 Entering Gaussian System, Link 0=g16
 Input=BH10_305_forward_mol3.gjf
 Output=BH10_305_forward_mol3.log
 Initial command:
 /arc/software/Gaussian/g16.c01/l1.exe "/tmp/slurm/4856311/Gau-1689226.inp" -scrdir="/tmp/slurm/4856311/"
 Entering Link 1 = /arc/software/Gaussian/g16.c01/l1.exe PID=   1689227.
  
 Copyright (c) 1988-2019, Gaussian, Inc.  All Rights Reserved.
  
 This is part of the Gaussian(R) 16 program.  It is based on
 the Gaussian(R) 09 system (copyright 2009, Gaussian, Inc.),
 the Gaussian(R) 03 system (copyright 2003, Gaussian, Inc.),
 the Gaussian(R) 98 system (copyright 1998, Gaussian, Inc.),
 the Gaussian(R) 94 system (copyright 1995, Gaussian, Inc.),
 the Gaussian 92(TM) system (copyright 1992, Gaussian, Inc.),
 the Gaussian 90(TM) system (copyright 1990, Gaussian, Inc.),
 the Gaussian 88(TM) system (copyright 1988, Gaussian, Inc.),
 the Gaussian 86(TM) system (copyright 1986, Carnegie Mellon
 University), and the Gaussian 82(TM) system (copyright 1983,
 Carnegie Mellon University). Gaussian is a federally registered
 trademark of Gaussian, Inc.
  
 This software contains proprietary and confidential information,
 including trade secrets, belonging to Gaussian, Inc.
  
 This software is provided under written license and may be
 used, copied, transmitted, or stored only in accord with that
 written license.
  
 The following legend is applicable only to US Government
 contracts under FAR:
  
                    RESTRICTED RIGHTS LEGEND
  
 Use, reproduction and disclosure by the US Government is
 subject to restrictions as set forth in subparagraphs (a)
 and (c) of the Commercial Computer Software - Restricted
 Rights clause in FAR 52.227-19.
  
 Gaussian, Inc.
 340 Quinnipiac St., Bldg. 40, Wallingford CT 06492
  
  
 ---------------------------------------------------------------
 Warning -- This program may not be used in any manner that
 competes with the business of Gaussian, Inc. or will provide
 assistance to any competitor of Gaussian, Inc.  The licensee
 of this program is prohibited from giving any competitor of
 Gaussian, Inc. access to this program.  By using this program,
 the user acknowledges that Gaussian, Inc. is engaged in the
 business of creating and licensing software in the field of
 computational chemistry and represents and warrants to the
 licensee that it is not a competitor of Gaussian, Inc. and that
 it will not use this program in any manner prohibited above.
 ---------------------------------------------------------------
  

 Cite this work as:
 Gaussian 16, Revision C.01,
 M. J. Frisch, G. W. Trucks, H. B. Schlegel, G. E. Scuseria, 
 M. A. Robb, J. R. Cheeseman, G. Scalmani, V. Barone, 
 G. A. Petersson, H. Nakatsuji, X. Li, M. Caricato, A. V. Marenich, 
 J. Bloino, B. G. Janesko, R. Gomperts, B. Mennucci, H. P. Hratchian, 
 J. V. Ortiz, A. F. Izmaylov, J. L. Sonnenberg, D. Williams-Young, 
 F. Ding, F. Lipparini, F. Egidi, J. Goings, B. Peng, A. Petrone, 
 T. Henderson, D. Ranasinghe, V. G. Zakrzewski, J. Gao, N. Rega, 
 G. Zheng, W. Liang, M. Hada, M. Ehara, K. Toyota, R. Fukuda, 
 J. Hasegawa, M. Ishida, T. Nakajima, Y. Honda, O. Kitao, H. Nakai, 
 T. Vreven, K. Throssell, J. A. Montgomery, Jr., J. E. Peralta, 
 F. Ogliaro, M. J. Bearpark, J. J. Heyd, E. N. Brothers, K. N. Kudin, 
 V. N. Staroverov, T. A. Keith, R. Kobayashi, J. Normand, 
 K. Raghavachari, A. P. Rendell, J. C. Burant, S. S. Iyengar, 
 J. Tomasi, M. Cossi, J. M. Millam, M. Klene, C. Adamo, R. Cammi, 
 J. W. Ochterski, R. L. Martin, K. Morokuma, O. Farkas, 
 J. B. Foresman, and D. J. Fox, Gaussian, Inc., Wallingford CT, 2019.
 
 ******************************************
 Gaussian 16:  ES64L-G16RevC.01  3-Jul-2019
                 9-Apr-2025 
 ******************************************
 %nprocs=16
 Will use up to   16 processors via shared memory.
 %mem=30GB
 %chk=BH10_305_forward_mol3.chk
 ----------------------------------------------------------------------
 #t hf aug-cc-pvdz symm=none int=(grid=ultrafine) guess=(read,tcheck) s
 table=opt
 ----------------------------------------------------------------------
 -----
 title
 -----
 Symbolic Z-matrix:
 Charge =  0 Multiplicity = 2
 C                    -0.28627   0.56934   0. 
 C                     0.18179  -0.00027   1.29403 
 Cl                   -0.69414   2.26051   0. 
 C                     0.18179  -0.00027  -1.29403 
 C                     0.18179  -1.5323    1.25745 
 C                     0.86628  -2.06294   0. 
 C                     0.18179  -1.5323   -1.25745 
 H                    -0.43592   0.37045   2.11484 
 H                     1.20614   0.3561    1.49457 
 H                     1.20614   0.3561   -1.49457 
 H                    -0.43592   0.37045  -2.11484 
 H                    -0.8521   -1.89159   1.28135 
 H                     0.67242  -1.91647   2.15487 
 H                     0.85674  -3.1557    0. 
 H                     1.91965  -1.7575    0. 
 H                    -0.8521   -1.89159  -1.28135 
 H                     0.67242  -1.91647  -2.15487 
 
                    Distance matrix (angstroms):
                    1          2          3          4          5
     1  C    0.000000
     2  C    1.489313   0.000000
     3  Cl   1.739656   2.748251   0.000000
     4  C    1.489313   2.588062   2.748251   0.000000
     5  C    2.493421   1.532468   4.090699   2.976096   0.000000
     6  C    2.873552   2.529360   4.596427   2.529360   1.526854
     7  C    2.493421   2.976096   4.090699   1.532468   2.514890
     8  H    2.129441   1.092117   2.848085   3.484166   2.176494
     9  H    2.122859   1.102961   3.077597   2.992092   2.161387
    10  H    2.122859   2.992092   3.077597   1.102961   3.491270
    11  H    2.129441   3.484166   2.848085   1.092117   3.921011
    12  H    2.831646   2.155504   4.348190   3.358364   1.094800
    13  H    3.426634   2.157219   4.894703   3.975859   1.092554
    14  H    3.896465   3.476613   5.633878   3.476613   2.161519
    15  H    3.206285   2.789717   4.793356   2.789717   2.156857
    16  H    2.831646   3.358364   4.348190   2.155504   2.764685
    17  H    3.426634   3.975859   4.894703   2.157219   3.468744
                    6          7          8          9         10
     6  C    0.000000
     7  C    1.526854   0.000000
     8  H    3.477017   3.921011   0.000000
     9  H    2.863741   3.491270   1.755362   0.000000
    10  H    2.863741   2.161387   3.965407   2.989146   0.000000
    11  H    3.477017   2.176494   4.229688   3.965407   1.755362
    12  H    2.150362   2.764685   2.446375   3.055154   4.122406
    13  H    2.168523   3.468744   2.541652   2.425993   4.332190
    14  H    1.092805   2.161519   4.310132   3.832571   3.832571
    15  H    1.096752   2.156857   3.814364   2.685169   2.685169
    16  H    2.150362   1.094800   4.101725   4.122406   3.055154
    17  H    2.168523   1.092554   4.968786   4.332190   2.425993
                   11         12         13         14         15
    11  H    0.000000
    12  H    4.101725   0.000000
    13  H    4.968786   1.757218   0.000000
    14  H    4.310132   2.481925   2.492614   0.000000
    15  H    3.814364   3.056535   2.494856   1.756345   0.000000
    16  H    2.446375   2.562694   3.759302   2.481925   3.056535
    17  H    2.541652   3.759302   4.309736   2.492614   2.494856
                   16         17
    16  H    0.000000
    17  H    1.757218   0.000000
 Symmetry turned off by external request.
 Rotational constants (GHZ):           4.3383567           1.4228141           1.1297125
   255 basis functions,   449 primitive gaussians,   269 cartesian basis functions
    32 alpha electrons       31 beta electrons
       nuclear repulsion energy       367.6186965020 Hartrees.
 NAtoms=   17 NActive=   17 NUniq=   17 SFac= 1.00D+00 NAtFMM=   60 NAOKFM=F Big=F
 ExpMin= 2.97D-02 ExpMax= 1.28D+05 ExpMxC= 1.24D+03 IAcc=3 IRadAn=         5 AccDes= 0.00D+00
 Harris functional with IExCor=  205 and IRadAn=       5 diagonalized for initial guess.
 HarFok:  IExCor=  205 AccDes= 0.00D+00 IRadAn=         5 IDoV= 1 UseB2=F ITyADJ=14
 ICtDFT=  3500011 ScaDFX=  1.000000  1.000000  1.000000  1.000000
 FoFCou: FMM=F IPFlag=           0 FMFlag=      100000 FMFlg1=           0
         NFxFlg=           0 DoJE=T BraDBF=F KetDBF=T FulRan=T
         wScrn=  0.000000 ICntrl=       500 IOpCl=  0 I1Cent=   200000004 NGrid=           0
         NMat0=    1 NMatS0=      1 NMatT0=    0 NMatD0=    1 NMtDS0=    0 NMtDT0=    0
 Symmetry not used in FoFCou.
 Initial guess <Sx>= 0.0000 <Sy>= 0.0000 <Sz>= 0.5000 <S**2>= 0.7500 S= 0.5000
 SCF Done:  E(UHF) =  -692.537992043     A.U. after   17 cycles
            NFock= 17  Conv=0.54D-08     -V/T= 2.0001
 <Sx>= 0.0000 <Sy>= 0.0000 <Sz>= 0.5000 <S**2>= 0.7656 S= 0.5078
 <L.S>=  0.00000000000    
 Annihilation of the first spin contaminant:
 S**2 before annihilation     0.7656,   after     0.7502

 **********************************************************************

            Population analysis using the SCF Density.

 **********************************************************************

 Alpha  occ. eigenvalues -- -104.82686 -11.29439 -11.23854 -11.23852 -11.23359
 Alpha  occ. eigenvalues --  -11.23354 -11.23075 -10.55311  -8.01992  -8.01867
 Alpha  occ. eigenvalues --   -8.01762  -1.17572  -1.09894  -1.02409  -0.98819
 Alpha  occ. eigenvalues --   -0.85558  -0.82240  -0.74502  -0.65887  -0.62443
 Alpha  occ. eigenvalues --   -0.61757  -0.60283  -0.56777  -0.54583  -0.54267
 Alpha  occ. eigenvalues --   -0.49734  -0.49618  -0.46543  -0.46231  -0.45055
 Alpha  occ. eigenvalues --   -0.43070  -0.33136
 Alpha virt. eigenvalues --    0.03478   0.04156   0.04498   0.04898   0.06523
 Alpha virt. eigenvalues --    0.06564   0.06672   0.07272   0.07606   0.09001
 Alpha virt. eigenvalues --    0.10359   0.12514   0.13477   0.13524   0.14340
 Alpha virt. eigenvalues --    0.14848   0.15141   0.15651   0.16337   0.16602
 Alpha virt. eigenvalues --    0.16907   0.17508   0.18806   0.19239   0.19348
 Alpha virt. eigenvalues --    0.19678   0.19750   0.20504   0.20778   0.21685
 Alpha virt. eigenvalues --    0.22082   0.22290   0.22734   0.25627   0.25648
 Alpha virt. eigenvalues --    0.26727   0.28062   0.28255   0.30623   0.32277
 Alpha virt. eigenvalues --    0.34158   0.35914   0.36655   0.36772   0.37101
 Alpha virt. eigenvalues --    0.37435   0.39178   0.39419   0.40408   0.40942
 Alpha virt. eigenvalues --    0.41272   0.42958   0.43622   0.43913   0.46087
 Alpha virt. eigenvalues --    0.46353   0.46380   0.47391   0.47636   0.48297
 Alpha virt. eigenvalues --    0.48612   0.49570   0.50123   0.50818   0.51483
 Alpha virt. eigenvalues --    0.52526   0.54715   0.55790   0.56419   0.56751
 Alpha virt. eigenvalues --    0.57532   0.58080   0.58656   0.58959   0.59305
 Alpha virt. eigenvalues --    0.60091   0.61488   0.62139   0.63315   0.64565
 Alpha virt. eigenvalues --    0.66081   0.67201   0.68159   0.69938   0.70157
 Alpha virt. eigenvalues --    0.71303   0.72378   0.73262   0.74263   0.74705
 Alpha virt. eigenvalues --    0.75172   0.76194   0.76954   0.77136   0.78981
 Alpha virt. eigenvalues --    0.80970   0.81384   0.81875   0.83312   0.84194
 Alpha virt. eigenvalues --    0.85327   0.85363   0.86562   0.86960   0.88104
 Alpha virt. eigenvalues --    0.89248   0.90376   0.90892   0.91961   0.93158
 Alpha virt. eigenvalues --    0.93471   0.95489   0.95790   0.96550   0.96651
 Alpha virt. eigenvalues --    0.99158   1.02416   1.04263   1.07025   1.07187
 Alpha virt. eigenvalues --    1.07427   1.09827   1.11838   1.14048   1.17420
 Alpha virt. eigenvalues --    1.17819   1.20539   1.23112   1.25341   1.26170
 Alpha virt. eigenvalues --    1.28445   1.31532   1.31844   1.35458   1.42413
 Alpha virt. eigenvalues --    1.43262   1.44231   1.44924   1.46714   1.46823
 Alpha virt. eigenvalues --    1.50387   1.51007   1.52612   1.55159   1.56187
 Alpha virt. eigenvalues --    1.60559   1.60778   1.61560   1.63603   1.64157
 Alpha virt. eigenvalues --    1.68941   1.69384   1.72247   1.78024   1.80008
 Alpha virt. eigenvalues --    1.81996   1.82642   1.84152   1.85384   1.87747
 Alpha virt. eigenvalues --    1.91670   1.91775   1.93818   1.96989   1.99846
 Alpha virt. eigenvalues --    1.99951   2.01581   2.03133   2.06932   2.07975
 Alpha virt. eigenvalues --    2.09141   2.13226   2.14251   2.15749   2.16475
 Alpha virt. eigenvalues --    2.20343   2.20546   2.20834   2.21829   2.22464
 Alpha virt. eigenvalues --    2.23505   2.26519   2.28965   2.32391   2.32599
 Alpha virt. eigenvalues --    2.38157   2.41028   2.41347   2.43095   2.43214
 Alpha virt. eigenvalues --    2.46668   2.46777   2.48610   2.50826   2.59051
 Alpha virt. eigenvalues --    2.59911   2.62060   2.65658   2.68371   2.70079
 Alpha virt. eigenvalues --    2.73569   2.74099   2.77508   2.80015   2.82157
 Alpha virt. eigenvalues --    2.84103   2.88538   2.89846   2.91421   2.96413
 Alpha virt. eigenvalues --    2.97006   3.02377   3.06464   3.09647   3.12857
 Alpha virt. eigenvalues --    3.12929   3.17463   3.19503   3.20708   3.24177
 Alpha virt. eigenvalues --    3.31090   3.65716   3.85700
  Beta  occ. eigenvalues -- -104.82669 -11.26724 -11.24132 -11.24129 -11.23315
  Beta  occ. eigenvalues --  -11.23308 -11.23087 -10.55291  -8.02186  -8.01750
  Beta  occ. eigenvalues --   -8.01604  -1.14980  -1.09690  -1.02351  -0.97488
  Beta  occ. eigenvalues --   -0.85382  -0.80626  -0.71393  -0.65228  -0.61337
  Beta  occ. eigenvalues --   -0.61021  -0.57003  -0.56129  -0.54253  -0.53799
  Beta  occ. eigenvalues --   -0.49165  -0.47715  -0.46041  -0.45335  -0.44790
  Beta  occ. eigenvalues --   -0.42810
  Beta virt. eigenvalues --    0.03390   0.04162   0.04483   0.04857   0.06417
  Beta virt. eigenvalues --    0.06525   0.06687   0.07298   0.07601   0.09008
  Beta virt. eigenvalues --    0.10362   0.11274   0.12940   0.13574   0.14104
  Beta virt. eigenvalues --    0.14367   0.14908   0.15140   0.15691   0.16601
  Beta virt. eigenvalues --    0.17006   0.17303   0.17521   0.18834   0.19255
  Beta virt. eigenvalues --    0.19473   0.19754   0.20066   0.20593   0.21670
  Beta virt. eigenvalues --    0.21748   0.22322   0.22483   0.23108   0.25646
  Beta virt. eigenvalues --    0.26609   0.27584   0.28421   0.28847   0.31232
  Beta virt. eigenvalues --    0.32849   0.34333   0.36105   0.36851   0.36886
  Beta virt. eigenvalues --    0.37358   0.37793   0.39537   0.39644   0.40805
  Beta virt. eigenvalues --    0.41415   0.41792   0.43083   0.43733   0.44110
  Beta virt. eigenvalues --    0.46164   0.46468   0.47415   0.47669   0.48244
  Beta virt. eigenvalues --    0.48332   0.48716   0.49585   0.50307   0.50894
  Beta virt. eigenvalues --    0.52335   0.52663   0.55932   0.55996   0.56612
  Beta virt. eigenvalues --    0.57420   0.57899   0.58180   0.59030   0.59095
  Beta virt. eigenvalues --    0.60095   0.60158   0.62093   0.63418   0.63896
  Beta virt. eigenvalues --    0.65531   0.66188   0.67413   0.68569   0.70229
  Beta virt. eigenvalues --    0.70569   0.72055   0.73134   0.73969   0.74412
  Beta virt. eigenvalues --    0.74807   0.75283   0.76741   0.77090   0.77371
  Beta virt. eigenvalues --    0.79434   0.81558   0.81563   0.82248   0.83709
  Beta virt. eigenvalues --    0.84453   0.85479   0.85970   0.86700   0.87228
  Beta virt. eigenvalues --    0.88271   0.89562   0.91031   0.91379   0.92120
  Beta virt. eigenvalues --    0.93342   0.93719   0.95940   0.96415   0.96934
  Beta virt. eigenvalues --    0.97423   0.99228   1.02669   1.04646   1.07538
  Beta virt. eigenvalues --    1.07795   1.07860   1.10058   1.12204   1.14582
  Beta virt. eigenvalues --    1.17936   1.18048   1.22319   1.23659   1.26191
  Beta virt. eigenvalues --    1.26719   1.29334   1.32191   1.32717   1.35685
  Beta virt. eigenvalues --    1.42547   1.43459   1.45127   1.45739   1.47119
  Beta virt. eigenvalues --    1.47246   1.50737   1.51246   1.53027   1.55877
  Beta virt. eigenvalues --    1.56771   1.60854   1.61162   1.61733   1.63861
  Beta virt. eigenvalues --    1.64363   1.69378   1.69641   1.72677   1.79098
  Beta virt. eigenvalues --    1.81209   1.82137   1.82880   1.84797   1.86914
  Beta virt. eigenvalues --    1.87864   1.91877   1.92098   1.95689   1.98419
  Beta virt. eigenvalues --    2.00159   2.00535   2.01738   2.03632   2.07387
  Beta virt. eigenvalues --    2.08771   2.10236   2.13507   2.14461   2.16734
  Beta virt. eigenvalues --    2.17390   2.20641   2.20703   2.21079   2.21976
  Beta virt. eigenvalues --    2.22802   2.23772   2.26700   2.29309   2.32684
  Beta virt. eigenvalues --    2.32834   2.38319   2.41202   2.41740   2.43425
  Beta virt. eigenvalues --    2.43622   2.47180   2.47243   2.48875   2.51222
  Beta virt. eigenvalues --    2.59510   2.60160   2.62378   2.65774   2.68529
  Beta virt. eigenvalues --    2.70285   2.73806   2.74166   2.77692   2.80572
  Beta virt. eigenvalues --    2.82588   2.84144   2.88862   2.90065   2.91527
  Beta virt. eigenvalues --    2.96581   2.97255   3.02515   3.06647   3.10869
  Beta virt. eigenvalues --    3.12988   3.13339   3.17557   3.19605   3.20844
  Beta virt. eigenvalues --    3.24248   3.31167   3.66495   3.85736
          Condensed to atoms (all electrons):
          Atomic-Atomic Spin Densities.
 Mulliken charges and spin densities:
               1          2
     1  C   -0.622688   1.332655
     2  C    0.460591  -0.219527
     3  Cl  -0.311173  -0.011902
     4  C    0.460591  -0.219527
     5  C    0.336387  -0.000370
     6  C    0.313662   0.002522
     7  C    0.336387  -0.000370
     8  H   -0.111321   0.010278
     9  H    0.011028   0.050711
    10  H    0.011028   0.050711
    11  H   -0.111321   0.010278
    12  H   -0.145345  -0.003113
    13  H   -0.107123   0.000035
    14  H   -0.112001   0.000622
    15  H   -0.156233   0.000076
    16  H   -0.145345  -0.003113
    17  H   -0.107123   0.000035
 Sum of Mulliken charges =  -0.00000   1.00000
 Mulliken charges and spin densities with hydrogens summed into heavy atoms:
               1          2
     1  C   -0.622688   1.332655
     2  C    0.360298  -0.158538
     3  Cl  -0.311173  -0.011902
     4  C    0.360298  -0.158538
     5  C    0.083918  -0.003447
     6  C    0.045428   0.003219
     7  C    0.083918  -0.003447
 Electronic spatial extent (au):  <R**2>=           1044.1165
 Charge=             -0.0000 electrons
 Dipole moment (field-independent basis, Debye):
    X=              0.8580    Y=             -2.1786    Z=             -0.0000  Tot=              2.3415
                          Isotropic Fermi Contact Couplings
        Atom                 a.u.       MegaHertz       Gauss      10(-4) cm-1
     1  C(13)              0.30595     343.94849     122.72938     114.72887
     2  C(13)             -0.04632     -52.06879     -18.57944     -17.36828
     3  Cl(35)             0.02388      10.46979       3.73588       3.49235
     4  C(13)             -0.04632     -52.06879     -18.57944     -17.36828
     5  C(13)              0.01001      11.25427       4.01580       3.75402
     6  C(13)             -0.00282      -3.17450      -1.13274      -1.05890
     7  C(13)              0.01001      11.25427       4.01580       3.75402
     8  H(1)               0.00716      31.99000      11.41483      10.67071
     9  H(1)               0.02322     103.77768      37.03046      34.61651
    10  H(1)               0.02322     103.77768      37.03046      34.61651
    11  H(1)               0.00716      31.99000      11.41483      10.67071
    12  H(1)              -0.00078      -3.48481      -1.24347      -1.16241
    13  H(1)              -0.00089      -3.98839      -1.42316      -1.33038
    14  H(1)               0.00032       1.42928       0.51000       0.47676
    15  H(1)               0.00007       0.32560       0.11618       0.10861
    16  H(1)              -0.00078      -3.48481      -1.24347      -1.16241
    17  H(1)              -0.00089      -3.98839      -1.42316      -1.33038
 --------------------------------------------------------
       Center         ----  Spin Dipole Couplings  ----
                      3XX-RR        3YY-RR        3ZZ-RR
 --------------------------------------------------------
     1   Atom        0.947138     -0.391329     -0.555809
     2   Atom       -0.007873      0.002040      0.005833
     3   Atom        0.363316     -0.310226     -0.053090
     4   Atom       -0.007873      0.002040      0.005833
     5   Atom       -0.007877      0.013928     -0.006051
     6   Atom       -0.000808      0.007047     -0.006239
     7   Atom       -0.007877      0.013928     -0.006051
     8   Atom       -0.009778     -0.008415      0.018193
     9   Atom       -0.003757     -0.004514      0.008271
    10   Atom       -0.003757     -0.004514      0.008271
    11   Atom       -0.009778     -0.008415      0.018193
    12   Atom       -0.005514      0.007794     -0.002280
    13   Atom       -0.002088      0.001672      0.000416
    14   Atom       -0.001183      0.003337     -0.002154
    15   Atom        0.000885      0.002355     -0.003240
    16   Atom       -0.005514      0.007794     -0.002280
    17   Atom       -0.002088      0.001672      0.000416
 --------------------------------------------------------
                        XY            XZ            YZ
 --------------------------------------------------------
     1   Atom        0.496796      0.000000     -0.000000
     2   Atom       -0.006988      0.003725     -0.000009
     3   Atom        0.431750      0.000000      0.000000
     4   Atom       -0.006988     -0.003725      0.000009
     5   Atom       -0.009252      0.002822     -0.006880
     6   Atom       -0.005006      0.000000     -0.000000
     7   Atom       -0.009252     -0.002822      0.006880
     8   Atom        0.002493      0.004302     -0.003966
     9   Atom       -0.004272      0.008719     -0.004902
    10   Atom       -0.004272     -0.008719      0.004902
    11   Atom        0.002493     -0.004302      0.003966
    12   Atom        0.001902     -0.000201     -0.007908
    13   Atom       -0.001970      0.002153     -0.004575
    14   Atom       -0.001907     -0.000000      0.000000
    15   Atom       -0.005058      0.000000     -0.000000
    16   Atom        0.001902      0.000201      0.007908
    17   Atom       -0.001970     -0.002153      0.004575
 --------------------------------------------------------


 ---------------------------------------------------------------------------------
              Anisotropic Spin Dipole Couplings in Principal Axis System
 ---------------------------------------------------------------------------------

       Atom             a.u.   MegaHertz   Gauss  10(-4) cm-1        Axes

              Baa    -0.5558   -74.584   -26.614   -24.879 -0.0000  0.0000  1.0000
     1 C(13)  Bbb    -0.5556   -74.552   -26.602   -24.868 -0.3139  0.9495 -0.0000
              Bcc     1.1114   149.136    53.216    49.747  0.9495  0.3139  0.0000
 
              Baa    -0.0121    -1.624    -0.579    -0.542  0.8814  0.4355 -0.1829
     2 C(13)  Bbb     0.0043     0.579     0.207     0.193 -0.2463  0.7541  0.6088
              Bcc     0.0078     1.045     0.373     0.348  0.4031 -0.4916  0.7719
 
              Baa    -0.5210   -27.269    -9.730    -9.096 -0.4387  0.8986 -0.0000
     3 Cl(35) Bbb    -0.0531    -2.779    -0.991    -0.927 -0.0000  0.0000  1.0000
              Bcc     0.5741    30.047    10.722    10.023  0.8986  0.4387  0.0000
 
              Baa    -0.0121    -1.624    -0.579    -0.542  0.8814  0.4355  0.1829
     4 C(13)  Bbb     0.0043     0.579     0.207     0.193 -0.2463  0.7541 -0.6088
              Bcc     0.0078     1.045     0.373     0.348 -0.4031  0.4916  0.7719
 
              Baa    -0.0113    -1.516    -0.541    -0.506  0.9427  0.3230 -0.0834
     5 C(13)  Bbb    -0.0082    -1.099    -0.392    -0.367 -0.0152  0.2912  0.9565
              Bcc     0.0195     2.615     0.933     0.872 -0.3333  0.9005 -0.2794
 
              Baa    -0.0062    -0.837    -0.299    -0.279 -0.0000 -0.0000  1.0000
     6 C(13)  Bbb    -0.0032    -0.435    -0.155    -0.145  0.8992  0.4374  0.0000
              Bcc     0.0095     1.273     0.454     0.424 -0.4374  0.8992 -0.0000
 
              Baa    -0.0113    -1.516    -0.541    -0.506  0.9427  0.3230  0.0834
     7 C(13)  Bbb    -0.0082    -1.099    -0.392    -0.367  0.0152 -0.2912  0.9565
              Bcc     0.0195     2.615     0.933     0.872 -0.3333  0.9005  0.2794
 
              Baa    -0.0128    -6.818    -2.433    -2.274  0.7713 -0.6090 -0.1851
     8 H(1)   Bbb    -0.0065    -3.479    -1.242    -1.161  0.6221  0.7827  0.0173
              Bcc     0.0193    10.298     3.674     3.435  0.1344 -0.1285  0.9826
 
              Baa    -0.0091    -4.877    -1.740    -1.627  0.8359  0.4679 -0.2869
     9 H(1)   Bbb    -0.0058    -3.083    -1.100    -1.028 -0.3001  0.8273  0.4749
              Bcc     0.0149     7.960     2.840     2.655  0.4595 -0.3109  0.8320
 
              Baa    -0.0091    -4.877    -1.740    -1.627  0.8359  0.4679  0.2869
    10 H(1)   Bbb    -0.0058    -3.083    -1.100    -1.028 -0.3001  0.8273 -0.4749
              Bcc     0.0149     7.960     2.840     2.655 -0.4595  0.3109  0.8320
 
              Baa    -0.0128    -6.818    -2.433    -2.274  0.7713 -0.6090  0.1851
    11 H(1)   Bbb    -0.0065    -3.479    -1.242    -1.161  0.6221  0.7827 -0.0173
              Bcc     0.0193    10.298     3.674     3.435 -0.1344  0.1285  0.9826
 
              Baa    -0.0070    -3.748    -1.337    -1.250 -0.4804  0.4601  0.7466
    12 H(1)   Bbb    -0.0053    -2.819    -1.006    -0.940  0.8715  0.1547  0.4654
              Bcc     0.0123     6.567     2.343     2.190  0.0987  0.8743 -0.4753
 
              Baa    -0.0037    -1.985    -0.708    -0.662 -0.4040  0.5015  0.7651
    13 H(1)   Bbb    -0.0029    -1.551    -0.553    -0.517  0.8585  0.4967  0.1277
              Bcc     0.0066     3.536     1.262     1.179 -0.3160  0.7083 -0.6312
 
              Baa    -0.0022    -1.149    -0.410    -0.383 -0.0000 -0.0000  1.0000
    14 H(1)   Bbb    -0.0019    -1.003    -0.358    -0.335  0.9392  0.3433  0.0000
              Bcc     0.0040     2.152     0.768     0.718 -0.3433  0.9392  0.0000
 
              Baa    -0.0035    -1.862    -0.665    -0.621  0.7562  0.6543  0.0000
    15 H(1)   Bbb    -0.0032    -1.729    -0.617    -0.577 -0.0000 -0.0000  1.0000
              Bcc     0.0067     3.591     1.281     1.198 -0.6543  0.7562 -0.0000
 
              Baa    -0.0070    -3.748    -1.337    -1.250  0.4804 -0.4601  0.7466
    16 H(1)   Bbb    -0.0053    -2.819    -1.006    -0.940  0.8715  0.1547 -0.4654
              Bcc     0.0123     6.567     2.343     2.190  0.0987  0.8743  0.4753
 
              Baa    -0.0037    -1.985    -0.708    -0.662  0.4040 -0.5015  0.7651
    17 H(1)   Bbb    -0.0029    -1.551    -0.553    -0.517  0.8585  0.4967 -0.1277
              Bcc     0.0066     3.536     1.262     1.179 -0.3160  0.7083  0.6312
 

 ---------------------------------------------------------------------------------

 NROrb=    255 NOA=    32 NOB=    31 NVA=   223 NVB=   224

 **** Warning!!: The largest alpha MO coefficient is  0.65318775D+02


 **** Warning!!: The largest beta MO coefficient is  0.65632463D+02

    12 initial guesses have been made.
 Iteration     1 Dimension    12 NMult     0 NNew     12
 Iteration     2 Dimension    24 NMult    12 NNew     12
 Iteration     3 Dimension    27 NMult    24 NNew      3
 Iteration     4 Dimension    30 NMult    27 NNew      3
 Iteration     5 Dimension    33 NMult    30 NNew      3
 Iteration     6 Dimension    36 NMult    33 NNew      3
 Iteration     7 Dimension    39 NMult    36 NNew      3
 Iteration     8 Dimension    42 NMult    39 NNew      3
 Iteration     9 Dimension    45 NMult    42 NNew      3
 Iteration    10 Dimension    48 NMult    45 NNew      3
 ***********************************************************************
 Stability analysis using <AA,BB:AA,BB> singles matrix:
 ***********************************************************************
 Ground to excited state transition densities written to RWF  633

 Eigenvectors of the stability matrix:
 
 Excited state symmetry could not be determined.
 Eigenvector   1:  2.282-?Sym  Eigenvalue= 0.1901555  <S**2>=1.052
     32A -> 33A       -0.14600
     32A -> 41A        0.10971
     32A -> 43A        0.35129
     32A -> 44A       -0.23219
     32A -> 48A       -0.11023
     32A -> 51A        0.19572
     32A -> 53A        0.32625
     32A -> 61A        0.12601
     32A -> 63A        0.29694
     32A -> 65A       -0.22863
     32A -> 67A        0.47531
     32A -> 68A       -0.19470
     32A -> 69A       -0.16363
     32A -> 74A       -0.10918
     32A -> 81A        0.11195
 The wavefunction is stable under the perturbations considered.
 The wavefunction is already stable.

 **********************************************************************

            Population analysis using the SCF Density.

 **********************************************************************

 Alpha  occ. eigenvalues -- -104.82686 -11.29439 -11.23854 -11.23852 -11.23359
 Alpha  occ. eigenvalues --  -11.23354 -11.23075 -10.55311  -8.01992  -8.01867
 Alpha  occ. eigenvalues --   -8.01762  -1.17572  -1.09894  -1.02409  -0.98819
 Alpha  occ. eigenvalues --   -0.85558  -0.82240  -0.74502  -0.65887  -0.62443
 Alpha  occ. eigenvalues --   -0.61757  -0.60283  -0.56777  -0.54583  -0.54267
 Alpha  occ. eigenvalues --   -0.49734  -0.49618  -0.46543  -0.46231  -0.45055
 Alpha  occ. eigenvalues --   -0.43070  -0.33136
 Alpha virt. eigenvalues --    0.03478   0.04156   0.04498   0.04898   0.06523
 Alpha virt. eigenvalues --    0.06564   0.06672   0.07272   0.07606   0.09001
 Alpha virt. eigenvalues --    0.10359   0.12514   0.13477   0.13524   0.14340
 Alpha virt. eigenvalues --    0.14848   0.15141   0.15651   0.16337   0.16602
 Alpha virt. eigenvalues --    0.16907   0.17508   0.18806   0.19239   0.19348
 Alpha virt. eigenvalues --    0.19678   0.19750   0.20504   0.20778   0.21685
 Alpha virt. eigenvalues --    0.22082   0.22290   0.22734   0.25627   0.25648
 Alpha virt. eigenvalues --    0.26727   0.28062   0.28255   0.30623   0.32277
 Alpha virt. eigenvalues --    0.34158   0.35914   0.36655   0.36772   0.37101
 Alpha virt. eigenvalues --    0.37435   0.39178   0.39419   0.40408   0.40942
 Alpha virt. eigenvalues --    0.41272   0.42958   0.43622   0.43913   0.46087
 Alpha virt. eigenvalues --    0.46353   0.46380   0.47391   0.47636   0.48297
 Alpha virt. eigenvalues --    0.48612   0.49570   0.50123   0.50818   0.51483
 Alpha virt. eigenvalues --    0.52526   0.54715   0.55790   0.56419   0.56751
 Alpha virt. eigenvalues --    0.57532   0.58080   0.58656   0.58959   0.59305
 Alpha virt. eigenvalues --    0.60091   0.61488   0.62139   0.63315   0.64565
 Alpha virt. eigenvalues --    0.66081   0.67201   0.68159   0.69938   0.70157
 Alpha virt. eigenvalues --    0.71303   0.72378   0.73262   0.74263   0.74705
 Alpha virt. eigenvalues --    0.75172   0.76194   0.76954   0.77136   0.78981
 Alpha virt. eigenvalues --    0.80970   0.81384   0.81875   0.83312   0.84194
 Alpha virt. eigenvalues --    0.85327   0.85363   0.86562   0.86960   0.88104
 Alpha virt. eigenvalues --    0.89248   0.90376   0.90892   0.91961   0.93158
 Alpha virt. eigenvalues --    0.93471   0.95489   0.95790   0.96550   0.96651
 Alpha virt. eigenvalues --    0.99158   1.02416   1.04263   1.07025   1.07187
 Alpha virt. eigenvalues --    1.07427   1.09827   1.11838   1.14048   1.17420
 Alpha virt. eigenvalues --    1.17819   1.20539   1.23112   1.25341   1.26170
 Alpha virt. eigenvalues --    1.28445   1.31532   1.31844   1.35458   1.42413
 Alpha virt. eigenvalues --    1.43262   1.44231   1.44924   1.46714   1.46823
 Alpha virt. eigenvalues --    1.50387   1.51007   1.52612   1.55159   1.56187
 Alpha virt. eigenvalues --    1.60559   1.60778   1.61560   1.63603   1.64157
 Alpha virt. eigenvalues --    1.68941   1.69384   1.72247   1.78024   1.80008
 Alpha virt. eigenvalues --    1.81996   1.82642   1.84152   1.85384   1.87747
 Alpha virt. eigenvalues --    1.91670   1.91775   1.93818   1.96989   1.99846
 Alpha virt. eigenvalues --    1.99951   2.01581   2.03133   2.06932   2.07975
 Alpha virt. eigenvalues --    2.09141   2.13226   2.14251   2.15749   2.16475
 Alpha virt. eigenvalues --    2.20343   2.20546   2.20834   2.21829   2.22464
 Alpha virt. eigenvalues --    2.23505   2.26519   2.28965   2.32391   2.32599
 Alpha virt. eigenvalues --    2.38157   2.41028   2.41347   2.43095   2.43214
 Alpha virt. eigenvalues --    2.46668   2.46777   2.48610   2.50826   2.59051
 Alpha virt. eigenvalues --    2.59911   2.62060   2.65658   2.68371   2.70079
 Alpha virt. eigenvalues --    2.73569   2.74099   2.77508   2.80015   2.82157
 Alpha virt. eigenvalues --    2.84103   2.88538   2.89846   2.91421   2.96413
 Alpha virt. eigenvalues --    2.97006   3.02377   3.06464   3.09647   3.12857
 Alpha virt. eigenvalues --    3.12929   3.17463   3.19503   3.20708   3.24177
 Alpha virt. eigenvalues --    3.31090   3.65716   3.85700
  Beta  occ. eigenvalues -- -104.82669 -11.26724 -11.24132 -11.24129 -11.23315
  Beta  occ. eigenvalues --  -11.23308 -11.23087 -10.55291  -8.02186  -8.01750
  Beta  occ. eigenvalues --   -8.01604  -1.14980  -1.09690  -1.02351  -0.97488
  Beta  occ. eigenvalues --   -0.85382  -0.80626  -0.71393  -0.65228  -0.61337
  Beta  occ. eigenvalues --   -0.61021  -0.57003  -0.56129  -0.54253  -0.53799
  Beta  occ. eigenvalues --   -0.49165  -0.47715  -0.46041  -0.45335  -0.44790
  Beta  occ. eigenvalues --   -0.42810
  Beta virt. eigenvalues --    0.03390   0.04162   0.04483   0.04857   0.06417
  Beta virt. eigenvalues --    0.06525   0.06687   0.07298   0.07601   0.09008
  Beta virt. eigenvalues --    0.10362   0.11274   0.12940   0.13574   0.14104
  Beta virt. eigenvalues --    0.14367   0.14908   0.15140   0.15691   0.16601
  Beta virt. eigenvalues --    0.17006   0.17303   0.17521   0.18834   0.19255
  Beta virt. eigenvalues --    0.19473   0.19754   0.20066   0.20593   0.21670
  Beta virt. eigenvalues --    0.21748   0.22322   0.22483   0.23108   0.25646
  Beta virt. eigenvalues --    0.26609   0.27584   0.28421   0.28847   0.31232
  Beta virt. eigenvalues --    0.32849   0.34333   0.36105   0.36851   0.36886
  Beta virt. eigenvalues --    0.37358   0.37793   0.39537   0.39644   0.40805
  Beta virt. eigenvalues --    0.41415   0.41792   0.43083   0.43733   0.44110
  Beta virt. eigenvalues --    0.46164   0.46468   0.47415   0.47669   0.48244
  Beta virt. eigenvalues --    0.48332   0.48716   0.49585   0.50307   0.50894
  Beta virt. eigenvalues --    0.52335   0.52663   0.55932   0.55996   0.56612
  Beta virt. eigenvalues --    0.57420   0.57899   0.58180   0.59030   0.59095
  Beta virt. eigenvalues --    0.60095   0.60158   0.62093   0.63418   0.63896
  Beta virt. eigenvalues --    0.65531   0.66188   0.67413   0.68569   0.70229
  Beta virt. eigenvalues --    0.70569   0.72055   0.73134   0.73969   0.74412
  Beta virt. eigenvalues --    0.74807   0.75283   0.76741   0.77090   0.77371
  Beta virt. eigenvalues --    0.79434   0.81558   0.81563   0.82248   0.83709
  Beta virt. eigenvalues --    0.84453   0.85479   0.85970   0.86700   0.87228
  Beta virt. eigenvalues --    0.88271   0.89562   0.91031   0.91379   0.92120
  Beta virt. eigenvalues --    0.93342   0.93719   0.95940   0.96415   0.96934
  Beta virt. eigenvalues --    0.97423   0.99228   1.02669   1.04646   1.07538
  Beta virt. eigenvalues --    1.07795   1.07860   1.10058   1.12204   1.14582
  Beta virt. eigenvalues --    1.17936   1.18048   1.22319   1.23659   1.26191
  Beta virt. eigenvalues --    1.26719   1.29334   1.32191   1.32717   1.35685
  Beta virt. eigenvalues --    1.42547   1.43459   1.45127   1.45739   1.47119
  Beta virt. eigenvalues --    1.47246   1.50737   1.51246   1.53027   1.55877
  Beta virt. eigenvalues --    1.56771   1.60854   1.61162   1.61733   1.63861
  Beta virt. eigenvalues --    1.64363   1.69378   1.69641   1.72677   1.79098
  Beta virt. eigenvalues --    1.81209   1.82137   1.82880   1.84797   1.86914
  Beta virt. eigenvalues --    1.87864   1.91877   1.92098   1.95689   1.98419
  Beta virt. eigenvalues --    2.00159   2.00535   2.01738   2.03632   2.07387
  Beta virt. eigenvalues --    2.08771   2.10236   2.13507   2.14461   2.16734
  Beta virt. eigenvalues --    2.17390   2.20641   2.20703   2.21079   2.21976
  Beta virt. eigenvalues --    2.22802   2.23772   2.26700   2.29309   2.32684
  Beta virt. eigenvalues --    2.32834   2.38319   2.41202   2.41740   2.43425
  Beta virt. eigenvalues --    2.43622   2.47180   2.47243   2.48875   2.51222
  Beta virt. eigenvalues --    2.59510   2.60160   2.62378   2.65774   2.68529
  Beta virt. eigenvalues --    2.70285   2.73806   2.74166   2.77692   2.80572
  Beta virt. eigenvalues --    2.82588   2.84144   2.88862   2.90065   2.91527
  Beta virt. eigenvalues --    2.96581   2.97255   3.02515   3.06647   3.10869
  Beta virt. eigenvalues --    3.12988   3.13339   3.17557   3.19605   3.20844
  Beta virt. eigenvalues --    3.24248   3.31167   3.66495   3.85736
          Condensed to atoms (all electrons):
          Atomic-Atomic Spin Densities.
 Mulliken charges and spin densities:
               1          2
     1  C   -0.622688   1.332655
     2  C    0.460591  -0.219527
     3  Cl  -0.311173  -0.011902
     4  C    0.460591  -0.219527
     5  C    0.336387  -0.000370
     6  C    0.313662   0.002522
     7  C    0.336387  -0.000370
     8  H   -0.111321   0.010278
     9  H    0.011028   0.050711
    10  H    0.011028   0.050711
    11  H   -0.111321   0.010278
    12  H   -0.145345  -0.003113
    13  H   -0.107123   0.000035
    14  H   -0.112001   0.000622
    15  H   -0.156233   0.000076
    16  H   -0.145345  -0.003113
    17  H   -0.107123   0.000035
 Sum of Mulliken charges =  -0.00000   1.00000
 Mulliken charges and spin densities with hydrogens summed into heavy atoms:
               1          2
     1  C   -0.622688   1.332655
     2  C    0.360298  -0.158538
     3  Cl  -0.311173  -0.011902
     4  C    0.360298  -0.158538
     5  C    0.083918  -0.003447
     6  C    0.045428   0.003219
     7  C    0.083918  -0.003447
 Electronic spatial extent (au):  <R**2>=           1044.1165
 Charge=             -0.0000 electrons
 Dipole moment (field-independent basis, Debye):
    X=              0.8580    Y=             -2.1786    Z=             -0.0000  Tot=              2.3415
                          Isotropic Fermi Contact Couplings
        Atom                 a.u.       MegaHertz       Gauss      10(-4) cm-1
     1  C(13)              0.30595     343.94849     122.72938     114.72887
     2  C(13)             -0.04632     -52.06879     -18.57944     -17.36828
     3  Cl(35)             0.02388      10.46979       3.73588       3.49235
     4  C(13)             -0.04632     -52.06879     -18.57944     -17.36828
     5  C(13)              0.01001      11.25427       4.01580       3.75402
     6  C(13)             -0.00282      -3.17450      -1.13274      -1.05890
     7  C(13)              0.01001      11.25427       4.01580       3.75402
     8  H(1)               0.00716      31.99000      11.41483      10.67071
     9  H(1)               0.02322     103.77768      37.03046      34.61651
    10  H(1)               0.02322     103.77768      37.03046      34.61651
    11  H(1)               0.00716      31.99000      11.41483      10.67071
    12  H(1)              -0.00078      -3.48481      -1.24347      -1.16241
    13  H(1)              -0.00089      -3.98839      -1.42316      -1.33038
    14  H(1)               0.00032       1.42928       0.51000       0.47676
    15  H(1)               0.00007       0.32560       0.11618       0.10861
    16  H(1)              -0.00078      -3.48481      -1.24347      -1.16241
    17  H(1)              -0.00089      -3.98839      -1.42316      -1.33038
 --------------------------------------------------------
       Center         ----  Spin Dipole Couplings  ----
                      3XX-RR        3YY-RR        3ZZ-RR
 --------------------------------------------------------
     1   Atom        0.947138     -0.391329     -0.555809
     2   Atom       -0.007873      0.002040      0.005833
     3   Atom        0.363316     -0.310226     -0.053090
     4   Atom       -0.007873      0.002040      0.005833
     5   Atom       -0.007877      0.013928     -0.006051
     6   Atom       -0.000808      0.007047     -0.006239
     7   Atom       -0.007877      0.013928     -0.006051
     8   Atom       -0.009778     -0.008415      0.018193
     9   Atom       -0.003757     -0.004514      0.008271
    10   Atom       -0.003757     -0.004514      0.008271
    11   Atom       -0.009778     -0.008415      0.018193
    12   Atom       -0.005514      0.007794     -0.002280
    13   Atom       -0.002088      0.001672      0.000416
    14   Atom       -0.001183      0.003337     -0.002154
    15   Atom        0.000885      0.002355     -0.003240
    16   Atom       -0.005514      0.007794     -0.002280
    17   Atom       -0.002088      0.001672      0.000416
 --------------------------------------------------------
                        XY            XZ            YZ
 --------------------------------------------------------
     1   Atom        0.496796      0.000000     -0.000000
     2   Atom       -0.006988      0.003725     -0.000009
     3   Atom        0.431750      0.000000      0.000000
     4   Atom       -0.006988     -0.003725      0.000009
     5   Atom       -0.009252      0.002822     -0.006880
     6   Atom       -0.005006      0.000000     -0.000000
     7   Atom       -0.009252     -0.002822      0.006880
     8   Atom        0.002493      0.004302     -0.003966
     9   Atom       -0.004272      0.008719     -0.004902
    10   Atom       -0.004272     -0.008719      0.004902
    11   Atom        0.002493     -0.004302      0.003966
    12   Atom        0.001902     -0.000201     -0.007908
    13   Atom       -0.001970      0.002153     -0.004575
    14   Atom       -0.001907     -0.000000      0.000000
    15   Atom       -0.005058      0.000000     -0.000000
    16   Atom        0.001902      0.000201      0.007908
    17   Atom       -0.001970     -0.002153      0.004575
 --------------------------------------------------------


 ---------------------------------------------------------------------------------
              Anisotropic Spin Dipole Couplings in Principal Axis System
 ---------------------------------------------------------------------------------

       Atom             a.u.   MegaHertz   Gauss  10(-4) cm-1        Axes

              Baa    -0.5558   -74.584   -26.614   -24.879 -0.0000  0.0000  1.0000
     1 C(13)  Bbb    -0.5556   -74.552   -26.602   -24.868 -0.3139  0.9495 -0.0000
              Bcc     1.1114   149.136    53.216    49.747  0.9495  0.3139  0.0000
 
              Baa    -0.0121    -1.624    -0.579    -0.542  0.8814  0.4355 -0.1829
     2 C(13)  Bbb     0.0043     0.579     0.207     0.193 -0.2463  0.7541  0.6088
              Bcc     0.0078     1.045     0.373     0.348  0.4031 -0.4916  0.7719
 
              Baa    -0.5210   -27.269    -9.730    -9.096 -0.4387  0.8986 -0.0000
     3 Cl(35) Bbb    -0.0531    -2.779    -0.991    -0.927 -0.0000  0.0000  1.0000
              Bcc     0.5741    30.047    10.722    10.023  0.8986  0.4387  0.0000
 
              Baa    -0.0121    -1.624    -0.579    -0.542  0.8814  0.4355  0.1829
     4 C(13)  Bbb     0.0043     0.579     0.207     0.193 -0.2463  0.7541 -0.6088
              Bcc     0.0078     1.045     0.373     0.348 -0.4031  0.4916  0.7719
 
              Baa    -0.0113    -1.516    -0.541    -0.506  0.9427  0.3230 -0.0834
     5 C(13)  Bbb    -0.0082    -1.099    -0.392    -0.367 -0.0152  0.2912  0.9565
              Bcc     0.0195     2.615     0.933     0.872 -0.3333  0.9005 -0.2794
 
              Baa    -0.0062    -0.837    -0.299    -0.279 -0.0000 -0.0000  1.0000
     6 C(13)  Bbb    -0.0032    -0.435    -0.155    -0.145  0.8992  0.4374  0.0000
              Bcc     0.0095     1.273     0.454     0.424 -0.4374  0.8992 -0.0000
 
              Baa    -0.0113    -1.516    -0.541    -0.506  0.9427  0.3230  0.0834
     7 C(13)  Bbb    -0.0082    -1.099    -0.392    -0.367  0.0152 -0.2912  0.9565
              Bcc     0.0195     2.615     0.933     0.872 -0.3333  0.9005  0.2794
 
              Baa    -0.0128    -6.818    -2.433    -2.274  0.7713 -0.6090 -0.1851
     8 H(1)   Bbb    -0.0065    -3.479    -1.242    -1.161  0.6221  0.7827  0.0173
              Bcc     0.0193    10.298     3.674     3.435  0.1344 -0.1285  0.9826
 
              Baa    -0.0091    -4.877    -1.740    -1.627  0.8359  0.4679 -0.2869
     9 H(1)   Bbb    -0.0058    -3.083    -1.100    -1.028 -0.3001  0.8273  0.4749
              Bcc     0.0149     7.960     2.840     2.655  0.4595 -0.3109  0.8320
 
              Baa    -0.0091    -4.877    -1.740    -1.627  0.8359  0.4679  0.2869
    10 H(1)   Bbb    -0.0058    -3.083    -1.100    -1.028 -0.3001  0.8273 -0.4749
              Bcc     0.0149     7.960     2.840     2.655 -0.4595  0.3109  0.8320
 
              Baa    -0.0128    -6.818    -2.433    -2.274  0.7713 -0.6090  0.1851
    11 H(1)   Bbb    -0.0065    -3.479    -1.242    -1.161  0.6221  0.7827 -0.0173
              Bcc     0.0193    10.298     3.674     3.435 -0.1344  0.1285  0.9826
 
              Baa    -0.0070    -3.748    -1.337    -1.250 -0.4804  0.4601  0.7466
    12 H(1)   Bbb    -0.0053    -2.819    -1.006    -0.940  0.8715  0.1547  0.4654
              Bcc     0.0123     6.567     2.343     2.190  0.0987  0.8743 -0.4753
 
              Baa    -0.0037    -1.985    -0.708    -0.662 -0.4040  0.5015  0.7651
    13 H(1)   Bbb    -0.0029    -1.551    -0.553    -0.517  0.8585  0.4967  0.1277
              Bcc     0.0066     3.536     1.262     1.179 -0.3160  0.7083 -0.6312
 
              Baa    -0.0022    -1.149    -0.410    -0.383 -0.0000 -0.0000  1.0000
    14 H(1)   Bbb    -0.0019    -1.003    -0.358    -0.335  0.9392  0.3433  0.0000
              Bcc     0.0040     2.152     0.768     0.718 -0.3433  0.9392  0.0000
 
              Baa    -0.0035    -1.862    -0.665    -0.621  0.7562  0.6543  0.0000
    15 H(1)   Bbb    -0.0032    -1.729    -0.617    -0.577 -0.0000 -0.0000  1.0000
              Bcc     0.0067     3.591     1.281     1.198 -0.6543  0.7562 -0.0000
 
              Baa    -0.0070    -3.748    -1.337    -1.250  0.4804 -0.4601  0.7466
    16 H(1)   Bbb    -0.0053    -2.819    -1.006    -0.940  0.8715  0.1547 -0.4654
              Bcc     0.0123     6.567     2.343     2.190  0.0987  0.8743  0.4753
 
              Baa    -0.0037    -1.985    -0.708    -0.662  0.4040 -0.5015  0.7651
    17 H(1)   Bbb    -0.0029    -1.551    -0.553    -0.517  0.8585  0.4967 -0.1277
              Bcc     0.0066     3.536     1.262     1.179 -0.3160  0.7083  0.6312
 

 ---------------------------------------------------------------------------------

 Unable to Open any file for archive entry.
 1\1\GINC-SE162\Stability\UHF\Aug-CC-pVDZ\C6H10Cl1\OHZDE\09-Apr-2025\0\
 \#t hf aug-cc-pvdz symm=none int=(grid=ultrafine) guess=(read,tcheck) 
 stable=opt\\title\\0,2\C,0,-0.286274,0.569342,0.\C,0,0.181787,-0.00026
 9,1.294031\Cl,0,-0.694142,2.260509,0.\C,0,0.181787,-0.000269,-1.294031
 \C,0,0.181787,-1.5323,1.257445\C,0,0.866284,-2.06294,0.\C,0,0.181787,-
 1.5323,-1.257445\H,0,-0.435915,0.370445,2.114844\H,0,1.206143,0.356101
 ,1.494573\H,0,1.206143,0.356101,-1.494573\H,0,-0.435915,0.370445,-2.11
 4844\H,0,-0.852101,-1.891594,1.281347\H,0,0.672418,-1.916472,2.154868\
 H,0,0.856738,-3.155703,0.\H,0,1.919645,-1.757498,0.\H,0,-0.852101,-1.8
 91594,-1.281347\H,0,0.672418,-1.916472,-2.154868\\Version=ES64L-G16Rev
 C.01\HF=-692.537992\S2=0.76559\S2-1=0.\S2A=0.750198\RMSD=5.425e-09\Dip
 ole=0.3375468,-0.857138,0.\Quadrupole=0.3201474,-2.0648321,1.7446848,0
 .8440409,0.,0.\PG=Unknown\\@
 The archive entry for this job was punched.


 E PUR SI MUOVE    -- GALILEO GALILEI
 Job cpu time:       0 days  0 hours 18 minutes 36.2 seconds.
 Elapsed time:       0 days  0 hours  1 minutes 15.8 seconds.
 File lengths (MBytes):  RWF=    312 Int=      0 D2E=      0 Chk=     11 Scr=      1
 Normal termination of Gaussian 16 at Wed Apr  9 01:25:34 2025.
 Initial command:
 /arc/software/Gaussian/g16.c01/l1.exe "/tmp/slurm/4856311/Gau-1689226.inp" -scrdir="/tmp/slurm/4856311/"
 Entering Link 1 = /arc/software/Gaussian/g16.c01/l1.exe PID=   1689451.
  
 Copyright (c) 1988-2019, Gaussian, Inc.  All Rights Reserved.
  
 This is part of the Gaussian(R) 16 program.  It is based on
 the Gaussian(R) 09 system (copyright 2009, Gaussian, Inc.),
 the Gaussian(R) 03 system (copyright 2003, Gaussian, Inc.),
 the Gaussian(R) 98 system (copyright 1998, Gaussian, Inc.),
 the Gaussian(R) 94 system (copyright 1995, Gaussian, Inc.),
 the Gaussian 92(TM) system (copyright 1992, Gaussian, Inc.),
 the Gaussian 90(TM) system (copyright 1990, Gaussian, Inc.),
 the Gaussian 88(TM) system (copyright 1988, Gaussian, Inc.),
 the Gaussian 86(TM) system (copyright 1986, Carnegie Mellon
 University), and the Gaussian 82(TM) system (copyright 1983,
 Carnegie Mellon University). Gaussian is a federally registered
 trademark of Gaussian, Inc.
  
 This software contains proprietary and confidential information,
 including trade secrets, belonging to Gaussian, Inc.
  
 This software is provided under written license and may be
 used, copied, transmitted, or stored only in accord with that
 written license.
  
 The following legend is applicable only to US Government
 contracts under FAR:
  
                    RESTRICTED RIGHTS LEGEND
  
 Use, reproduction and disclosure by the US Government is
 subject to restrictions as set forth in subparagraphs (a)
 and (c) of the Commercial Computer Software - Restricted
 Rights clause in FAR 52.227-19.
  
 Gaussian, Inc.
 340 Quinnipiac St., Bldg. 40, Wallingford CT 06492
  
  
 ---------------------------------------------------------------
 Warning -- This program may not be used in any manner that
 competes with the business of Gaussian, Inc. or will provide
 assistance to any competitor of Gaussian, Inc.  The licensee
 of this program is prohibited from giving any competitor of
 Gaussian, Inc. access to this program.  By using this program,
 the user acknowledges that Gaussian, Inc. is engaged in the
 business of creating and licensing software in the field of
 computational chemistry and represents and warrants to the
 licensee that it is not a competitor of Gaussian, Inc. and that
 it will not use this program in any manner prohibited above.
 ---------------------------------------------------------------
  

 Cite this work as:
 Gaussian 16, Revision C.01,
 M. J. Frisch, G. W. Trucks, H. B. Schlegel, G. E. Scuseria, 
 M. A. Robb, J. R. Cheeseman, G. Scalmani, V. Barone, 
 G. A. Petersson, H. Nakatsuji, X. Li, M. Caricato, A. V. Marenich, 
 J. Bloino, B. G. Janesko, R. Gomperts, B. Mennucci, H. P. Hratchian, 
 J. V. Ortiz, A. F. Izmaylov, J. L. Sonnenberg, D. Williams-Young, 
 F. Ding, F. Lipparini, F. Egidi, J. Goings, B. Peng, A. Petrone, 
 T. Henderson, D. Ranasinghe, V. G. Zakrzewski, J. Gao, N. Rega, 
 G. Zheng, W. Liang, M. Hada, M. Ehara, K. Toyota, R. Fukuda, 
 J. Hasegawa, M. Ishida, T. Nakajima, Y. Honda, O. Kitao, H. Nakai, 
 T. Vreven, K. Throssell, J. A. Montgomery, Jr., J. E. Peralta, 
 F. Ogliaro, M. J. Bearpark, J. J. Heyd, E. N. Brothers, K. N. Kudin, 
 V. N. Staroverov, T. A. Keith, R. Kobayashi, J. Normand, 
 K. Raghavachari, A. P. Rendell, J. C. Burant, S. S. Iyengar, 
 J. Tomasi, M. Cossi, J. M. Millam, M. Klene, C. Adamo, R. Cammi, 
 J. W. Ochterski, R. L. Martin, K. Morokuma, O. Farkas, 
 J. B. Foresman, and D. J. Fox, Gaussian, Inc., Wallingford CT, 2019.
 
 ******************************************
 Gaussian 16:  ES64L-G16RevC.01  3-Jul-2019
                 9-Apr-2025 
 ******************************************
 %nprocs=16
 Will use up to   16 processors via shared memory.
 %mem=30GB
 %chk=BH10_305_forward_mol3.chk
 ----------------------------------------------------------------------
 #t hf aug-cc-pvdz iop(5/13=1,5/36=2,99/5=2) pseudo=read geom=check gue
 ss=(read,tcheck) scf=(maxcycle=1)
 ----------------------------------------------------------------------
 -----
 title
 -----
 Structure from the checkpoint file:  "BH10_305_forward_mol3.chk"
 Charge =  0 Multiplicity = 2
 Z-Matrix found in chk file.
 C,0,-0.286274,0.569342,0.
 C,0,0.181787,-0.000269,1.294031
 Cl,0,-0.694142,2.260509,0.
 C,0,0.181787,-0.000269,-1.294031
 C,0,0.181787,-1.5323,1.257445
 C,0,0.866284,-2.06294,0.
 C,0,0.181787,-1.5323,-1.257445
 H,0,-0.435915,0.370445,2.114844
 H,0,1.206143,0.356101,1.494573
 H,0,1.206143,0.356101,-1.494573
 H,0,-0.435915,0.370445,-2.114844
 H,0,-0.852101,-1.891594,1.281347
 H,0,0.672418,-1.916472,2.154868
 H,0,0.856738,-3.155703,0.
 H,0,1.919645,-1.757498,0.
 H,0,-0.852101,-1.891594,-1.281347
 H,0,0.672418,-1.916472,-2.154868
 Recover connectivity data from disk.
                    Distance matrix (angstroms):
                    1          2          3          4          5
     1  C    0.000000
     2  C    1.489313   0.000000
     3  Cl   1.739656   2.748251   0.000000
     4  C    1.489313   2.588062   2.748251   0.000000
     5  C    2.493421   1.532468   4.090699   2.976096   0.000000
     6  C    2.873552   2.529360   4.596427   2.529360   1.526854
     7  C    2.493421   2.976096   4.090699   1.532468   2.514890
     8  H    2.129441   1.092117   2.848085   3.484166   2.176494
     9  H    2.122859   1.102961   3.077597   2.992092   2.161387
    10  H    2.122859   2.992092   3.077597   1.102961   3.491270
    11  H    2.129441   3.484166   2.848085   1.092117   3.921011
    12  H    2.831646   2.155504   4.348190   3.358364   1.094800
    13  H    3.426634   2.157219   4.894703   3.975859   1.092554
    14  H    3.896465   3.476613   5.633878   3.476613   2.161519
    15  H    3.206285   2.789717   4.793356   2.789717   2.156857
    16  H    2.831646   3.358364   4.348190   2.155504   2.764685
    17  H    3.426634   3.975859   4.894703   2.157219   3.468744
                    6          7          8          9         10
     6  C    0.000000
     7  C    1.526854   0.000000
     8  H    3.477017   3.921011   0.000000
     9  H    2.863741   3.491270   1.755362   0.000000
    10  H    2.863741   2.161387   3.965407   2.989146   0.000000
    11  H    3.477017   2.176494   4.229688   3.965407   1.755362
    12  H    2.150362   2.764685   2.446375   3.055154   4.122406
    13  H    2.168523   3.468744   2.541652   2.425993   4.332190
    14  H    1.092805   2.161519   4.310132   3.832571   3.832571
    15  H    1.096752   2.156857   3.814364   2.685169   2.685169
    16  H    2.150362   1.094800   4.101725   4.122406   3.055154
    17  H    2.168523   1.092554   4.968786   4.332190   2.425993
                   11         12         13         14         15
    11  H    0.000000
    12  H    4.101725   0.000000
    13  H    4.968786   1.757218   0.000000
    14  H    4.310132   2.481925   2.492614   0.000000
    15  H    3.814364   3.056535   2.494856   1.756345   0.000000
    16  H    2.446375   2.562694   3.759302   2.481925   3.056535
    17  H    2.541652   3.759302   4.309736   2.492614   2.494856
                   16         17
    16  H    0.000000
    17  H    1.757218   0.000000
 Framework group  CS[SG(C2H2Cl),X(C4H8)]
 Deg. of freedom    25
                         Standard orientation:                         
 ---------------------------------------------------------------------
 Center     Atomic      Atomic             Coordinates (Angstroms)
 Number     Number       Type             X           Y           Z
 ---------------------------------------------------------------------
      1          6           0       -0.286274    0.569342   -0.000000
      2          6           0        0.181787   -0.000269    1.294031
      3         17           0       -0.694142    2.260509   -0.000000
      4          6           0        0.181787   -0.000269   -1.294031
      5          6           0        0.181787   -1.532300    1.257445
      6          6           0        0.866284   -2.062940    0.000000
      7          6           0        0.181787   -1.532300   -1.257445
      8          1           0       -0.435915    0.370445    2.114844
      9          1           0        1.206143    0.356101    1.494573
     10          1           0        1.206143    0.356101   -1.494573
     11          1           0       -0.435915    0.370445   -2.114844
     12          1           0       -0.852101   -1.891594    1.281347
     13          1           0        0.672418   -1.916472    2.154868
     14          1           0        0.856738   -3.155703    0.000000
     15          1           0        1.919645   -1.757498    0.000000
     16          1           0       -0.852101   -1.891594   -1.281347
     17          1           0        0.672418   -1.916472   -2.154868
 ---------------------------------------------------------------------
 Rotational constants (GHZ):           4.3383567           1.4228141           1.1297125
 ======================================================================================================
                                       Pseudopotential Parameters
 ======================================================================================================
  Center     Atomic      Valence      Angular      Power
  Number     Number     Electrons     Momentum     of R      Exponent        Coefficient   SO-Coeffient
 ======================================================================================================
    1          6            6
                                      G and up 
                                                     0        0.0000010       -0.00286759    0.00000000
                                                     2        0.1200000        0.03193960    0.00000000
                                                     2        0.1600000       -0.04027782    0.00000000
                                                     2        0.2600000        0.24782456    0.00000000
                                                     2        0.4000000       -0.62266671    0.00000000
                                                     2        0.7000000        0.35695227    0.00000000
                                      S - G
                                                     0        0.0000010       -0.06602313    0.00000000
                                                     2        0.1200000        1.47277455    0.00000000
                                                     2        0.1600000       -4.06924166    0.00000000
                                                     2        0.3000000        5.02952802    0.00000000
                                                     2        0.7000000       -5.65856978    0.00000000
                                                     2        1.7000000        8.57604414    0.00000000
                                      P - G
                                                     0        0.0000010        0.49434425    0.00000000
                                                     2        0.1200000       -1.37391547    0.00000000
                                                     2        0.1600000        3.65411806    0.00000000
                                                     2        0.2800000       -7.36479843    0.00000000
                                                     2        0.6000000       17.22091285    0.00000000
                                                     2        1.1000000      -23.50107827    0.00000000
                                                     2        3.0000000       16.29464063    0.00000000
                                      D - G
                                                     0        0.0000010       -0.28693103    0.00000000
                                                     2        0.1200000        0.12273044    0.00000000
                                                     2        0.3000000       -0.43416384    0.00000000
                                                     2        0.7000000        2.23358493    0.00000000
                                      F - G
                                                     0        0.0000010        0.07263570    0.00000000
                                                     2        0.1400000       -0.76152861    0.00000000
                                                     2        0.2200000        1.98045593    0.00000000
                                                     2        0.4000000       -2.42426427    0.00000000
                                                     2        0.7000000        0.52335237    0.00000000
    2          6            6
                                      G and up 
                                                     0        0.0000010       -0.00286759    0.00000000
                                                     2        0.1200000        0.03193960    0.00000000
                                                     2        0.1600000       -0.04027782    0.00000000
                                                     2        0.2600000        0.24782456    0.00000000
                                                     2        0.4000000       -0.62266671    0.00000000
                                                     2        0.7000000        0.35695227    0.00000000
                                      S - G
                                                     0        0.0000010       -0.06602313    0.00000000
                                                     2        0.1200000        1.47277455    0.00000000
                                                     2        0.1600000       -4.06924166    0.00000000
                                                     2        0.3000000        5.02952802    0.00000000
                                                     2        0.7000000       -5.65856978    0.00000000
                                                     2        1.7000000        8.57604414    0.00000000
                                      P - G
                                                     0        0.0000010        0.49434425    0.00000000
                                                     2        0.1200000       -1.37391547    0.00000000
                                                     2        0.1600000        3.65411806    0.00000000
                                                     2        0.2800000       -7.36479843    0.00000000
                                                     2        0.6000000       17.22091285    0.00000000
                                                     2        1.1000000      -23.50107827    0.00000000
                                                     2        3.0000000       16.29464063    0.00000000
                                      D - G
                                                     0        0.0000010       -0.28693103    0.00000000
                                                     2        0.1200000        0.12273044    0.00000000
                                                     2        0.3000000       -0.43416384    0.00000000
                                                     2        0.7000000        2.23358493    0.00000000
                                      F - G
                                                     0        0.0000010        0.07263570    0.00000000
                                                     2        0.1400000       -0.76152861    0.00000000
                                                     2        0.2200000        1.98045593    0.00000000
                                                     2        0.4000000       -2.42426427    0.00000000
                                                     2        0.7000000        0.52335237    0.00000000
    3         17           17
                                      G and up 
                                                     0        0.0000010        0.00409650    0.00000000
                                                     2        0.1200000        0.06945192    0.00000000
                                                     2        0.1400000       -0.06660574    0.00000000
                                                     2        0.2200000        0.15305308    0.00000000
                                      S - G
                                                     0        0.0000010        0.00555482    0.00000000
                                                     2        0.2000000       -0.53060378    0.00000000
                                      P - G
                                                     0        0.0000010       -0.16962542    0.00000000
                                                     2        0.1200000        0.15585357    0.00000000
                                                     2        0.1800000       -0.79460714    0.00000000
                                                     2        0.5000000        1.36495881    0.00000000
                                      D - G
                                                     0        0.0000010        0.91266089    0.00000000
                                                     2        0.2400000       -1.50552862    0.00000000
                                      F - G
                                                     0        0.0000010       -0.76620800    0.00000000
                                                     2        0.1200000       -0.23737626    0.00000000
                                                     2        0.1800000        0.28531204    0.00000000
    4          6            6
                                      G and up 
                                                     0        0.0000010       -0.00286759    0.00000000
                                                     2        0.1200000        0.03193960    0.00000000
                                                     2        0.1600000       -0.04027782    0.00000000
                                                     2        0.2600000        0.24782456    0.00000000
                                                     2        0.4000000       -0.62266671    0.00000000
                                                     2        0.7000000        0.35695227    0.00000000
                                      S - G
                                                     0        0.0000010       -0.06602313    0.00000000
                                                     2        0.1200000        1.47277455    0.00000000
                                                     2        0.1600000       -4.06924166    0.00000000
                                                     2        0.3000000        5.02952802    0.00000000
                                                     2        0.7000000       -5.65856978    0.00000000
                                                     2        1.7000000        8.57604414    0.00000000
                                      P - G
                                                     0        0.0000010        0.49434425    0.00000000
                                                     2        0.1200000       -1.37391547    0.00000000
                                                     2        0.1600000        3.65411806    0.00000000
                                                     2        0.2800000       -7.36479843    0.00000000
                                                     2        0.6000000       17.22091285    0.00000000
                                                     2        1.1000000      -23.50107827    0.00000000
                                                     2        3.0000000       16.29464063    0.00000000
                                      D - G
                                                     0        0.0000010       -0.28693103    0.00000000
                                                     2        0.1200000        0.12273044    0.00000000
                                                     2        0.3000000       -0.43416384    0.00000000
                                                     2        0.7000000        2.23358493    0.00000000
                                      F - G
                                                     0        0.0000010        0.07263570    0.00000000
                                                     2        0.1400000       -0.76152861    0.00000000
                                                     2        0.2200000        1.98045593    0.00000000
                                                     2        0.4000000       -2.42426427    0.00000000
                                                     2        0.7000000        0.52335237    0.00000000
    5          6            6
                                      G and up 
                                                     0        0.0000010       -0.00286759    0.00000000
                                                     2        0.1200000        0.03193960    0.00000000
                                                     2        0.1600000       -0.04027782    0.00000000
                                                     2        0.2600000        0.24782456    0.00000000
                                                     2        0.4000000       -0.62266671    0.00000000
                                                     2        0.7000000        0.35695227    0.00000000
                                      S - G
                                                     0        0.0000010       -0.06602313    0.00000000
                                                     2        0.1200000        1.47277455    0.00000000
                                                     2        0.1600000       -4.06924166    0.00000000
                                                     2        0.3000000        5.02952802    0.00000000
                                                     2        0.7000000       -5.65856978    0.00000000
                                                     2        1.7000000        8.57604414    0.00000000
                                      P - G
                                                     0        0.0000010        0.49434425    0.00000000
                                                     2        0.1200000       -1.37391547    0.00000000
                                                     2        0.1600000        3.65411806    0.00000000
                                                     2        0.2800000       -7.36479843    0.00000000
                                                     2        0.6000000       17.22091285    0.00000000
                                                     2        1.1000000      -23.50107827    0.00000000
                                                     2        3.0000000       16.29464063    0.00000000
                                      D - G
                                                     0        0.0000010       -0.28693103    0.00000000
                                                     2        0.1200000        0.12273044    0.00000000
                                                     2        0.3000000       -0.43416384    0.00000000
                                                     2        0.7000000        2.23358493    0.00000000
                                      F - G
                                                     0        0.0000010        0.07263570    0.00000000
                                                     2        0.1400000       -0.76152861    0.00000000
                                                     2        0.2200000        1.98045593    0.00000000
                                                     2        0.4000000       -2.42426427    0.00000000
                                                     2        0.7000000        0.52335237    0.00000000
    6          6            6
                                      G and up 
                                                     0        0.0000010       -0.00286759    0.00000000
                                                     2        0.1200000        0.03193960    0.00000000
                                                     2        0.1600000       -0.04027782    0.00000000
                                                     2        0.2600000        0.24782456    0.00000000
                                                     2        0.4000000       -0.62266671    0.00000000
                                                     2        0.7000000        0.35695227    0.00000000
                                      S - G
                                                     0        0.0000010       -0.06602313    0.00000000
                                                     2        0.1200000        1.47277455    0.00000000
                                                     2        0.1600000       -4.06924166    0.00000000
                                                     2        0.3000000        5.02952802    0.00000000
                                                     2        0.7000000       -5.65856978    0.00000000
                                                     2        1.7000000        8.57604414    0.00000000
                                      P - G
                                                     0        0.0000010        0.49434425    0.00000000
                                                     2        0.1200000       -1.37391547    0.00000000
                                                     2        0.1600000        3.65411806    0.00000000
                                                     2        0.2800000       -7.36479843    0.00000000
                                                     2        0.6000000       17.22091285    0.00000000
                                                     2        1.1000000      -23.50107827    0.00000000
                                                     2        3.0000000       16.29464063    0.00000000
                                      D - G
                                                     0        0.0000010       -0.28693103    0.00000000
                                                     2        0.1200000        0.12273044    0.00000000
                                                     2        0.3000000       -0.43416384    0.00000000
                                                     2        0.7000000        2.23358493    0.00000000
                                      F - G
                                                     0        0.0000010        0.07263570    0.00000000
                                                     2        0.1400000       -0.76152861    0.00000000
                                                     2        0.2200000        1.98045593    0.00000000
                                                     2        0.4000000       -2.42426427    0.00000000
                                                     2        0.7000000        0.52335237    0.00000000
    7          6            6
                                      G and up 
                                                     0        0.0000010       -0.00286759    0.00000000
                                                     2        0.1200000        0.03193960    0.00000000
                                                     2        0.1600000       -0.04027782    0.00000000
                                                     2        0.2600000        0.24782456    0.00000000
                                                     2        0.4000000       -0.62266671    0.00000000
                                                     2        0.7000000        0.35695227    0.00000000
                                      S - G
                                                     0        0.0000010       -0.06602313    0.00000000
                                                     2        0.1200000        1.47277455    0.00000000
                                                     2        0.1600000       -4.06924166    0.00000000
                                                     2        0.3000000        5.02952802    0.00000000
                                                     2        0.7000000       -5.65856978    0.00000000
                                                     2        1.7000000        8.57604414    0.00000000
                                      P - G
                                                     0        0.0000010        0.49434425    0.00000000
                                                     2        0.1200000       -1.37391547    0.00000000
                                                     2        0.1600000        3.65411806    0.00000000
                                                     2        0.2800000       -7.36479843    0.00000000
                                                     2        0.6000000       17.22091285    0.00000000
                                                     2        1.1000000      -23.50107827    0.00000000
                                                     2        3.0000000       16.29464063    0.00000000
                                      D - G
                                                     0        0.0000010       -0.28693103    0.00000000
                                                     2        0.1200000        0.12273044    0.00000000
                                                     2        0.3000000       -0.43416384    0.00000000
                                                     2        0.7000000        2.23358493    0.00000000
                                      F - G
                                                     0        0.0000010        0.07263570    0.00000000
                                                     2        0.1400000       -0.76152861    0.00000000
                                                     2        0.2200000        1.98045593    0.00000000
                                                     2        0.4000000       -2.42426427    0.00000000
                                                     2        0.7000000        0.52335237    0.00000000
    8          1            1
                                      F and up 
                                                     0        0.0000010        0.00072061    0.00000000
                                                     2        0.1200000        0.03832357    0.00000000
                                                     2        0.1400000       -0.08683256    0.00000000
                                                     2        0.1800000        0.09312970    0.00000000
                                                     2        0.2800000       -0.02532572    0.00000000
                                                     2        0.4000000       -0.09430787    0.00000000
                                                     2        0.7000000        0.42710831    0.00000000
                                                     2        1.2000000       -2.11746981    0.00000000
                                      S - F
                                                     0        0.0000010        0.14449603    0.00000000
                                                     2        0.1200000       -0.56378993    0.00000000
                                                     2        0.1400000        0.63941249    0.00000000
[...]
                 (A") (A') (A') (A") (A") (A') (A") (A') (A") (A")
                 (A') (A') (A") (A') (A') (A') (A") (A') (A') (A")
                 (A") (A') (A") (A') (A') (A") (A') (A') (A") (A')
                 (A") (A') (A") (A') (A') (A") (A") (A') (A') (A")
                 (A') (A") (A") (A') (A") (A') (A') (A') (A") (A')
                 (A") (A') (A') (A") (A") (A') (A') (A") (A") (A')
                 (A") (A') (A") (A") (A') (A') (A") (A") (A') (A")
                 (A') (A') (A') (A") (A') (A") (A') (A') (A') (A")
                 (A") (A') (A") (A')
 The electronic state is 2-A'.
 Alpha  occ. eigenvalues --  -99.88108 -11.44968 -11.44011 -11.42850 -11.38880
 Alpha  occ. eigenvalues --  -11.38399 -11.35003 -10.45520  -9.65394  -9.64644
 Alpha  occ. eigenvalues --   -9.64640  -1.38909  -1.26614  -1.12081  -1.08705
 Alpha  occ. eigenvalues --   -0.90493  -0.87605  -0.77587  -0.68256  -0.64121
 Alpha  occ. eigenvalues --   -0.62846  -0.61426  -0.56433  -0.55379  -0.54019
 Alpha  occ. eigenvalues --   -0.52619  -0.48305  -0.45867  -0.45847  -0.41874
 Alpha  occ. eigenvalues --   -0.40787  -0.31712
 Alpha virt. eigenvalues --    0.03884   0.05368   0.05385   0.05491   0.05749
 Alpha virt. eigenvalues --    0.06008   0.06114   0.07010   0.07049   0.08639
 Alpha virt. eigenvalues --    0.09210   0.11471   0.12734   0.13347   0.13938
 Alpha virt. eigenvalues --    0.14048   0.14670   0.15039   0.15495   0.16145
 Alpha virt. eigenvalues --    0.17049   0.18164   0.18356   0.18972   0.19059
 Alpha virt. eigenvalues --    0.19167   0.19641   0.20051   0.20287   0.20482
 Alpha virt. eigenvalues --    0.20819   0.21465   0.21876   0.24212   0.25041
 Alpha virt. eigenvalues --    0.25400   0.26403   0.27420   0.29286   0.29909
 Alpha virt. eigenvalues --    0.32595   0.33579   0.34903   0.36365   0.36523
 Alpha virt. eigenvalues --    0.37018   0.38495   0.38528   0.38753   0.39637
 Alpha virt. eigenvalues --    0.40068   0.41376   0.42650   0.43521   0.44489
 Alpha virt. eigenvalues --    0.45371   0.46925   0.46984   0.47439   0.47520
 Alpha virt. eigenvalues --    0.48152   0.48992   0.49962   0.50622   0.50789
 Alpha virt. eigenvalues --    0.50919   0.51486   0.52896   0.54066   0.55639
 Alpha virt. eigenvalues --    0.57316   0.57666   0.58257   0.58274   0.58756
 Alpha virt. eigenvalues --    0.59432   0.62126   0.62228   0.64261   0.65173
 Alpha virt. eigenvalues --    0.66065   0.67786   0.68448   0.68900   0.71401
 Alpha virt. eigenvalues --    0.71547   0.72298   0.73186   0.74650   0.74780
 Alpha virt. eigenvalues --    0.75632   0.76696   0.76716   0.77928   0.78017
 Alpha virt. eigenvalues --    0.81040   0.82224   0.82685   0.83087   0.84537
 Alpha virt. eigenvalues --    0.86431   0.86466   0.88032   0.88429   0.89625
 Alpha virt. eigenvalues --    0.90681   0.91212   0.91947   0.92811   0.92996
 Alpha virt. eigenvalues --    0.95213   0.96211   0.96585   0.98351   0.98640
 Alpha virt. eigenvalues --    1.00325   1.04435   1.05872   1.07388   1.07693
 Alpha virt. eigenvalues --    1.12217   1.14482   1.19026   1.23566   1.26932
 Alpha virt. eigenvalues --    1.27153   1.31920   1.32744   1.34347   1.34471
 Alpha virt. eigenvalues --    1.36041   1.36902   1.39528   1.41224   1.42065
 Alpha virt. eigenvalues --    1.44501   1.47472   1.50146   1.55626   1.62798
 Alpha virt. eigenvalues --    1.63929   1.66603   1.69744   1.70237   1.75372
 Alpha virt. eigenvalues --    1.76987   1.79535   1.80678   1.81410   1.83604
 Alpha virt. eigenvalues --    1.89337   1.90895   1.92274   1.93945   1.98275
 Alpha virt. eigenvalues --    2.00509   2.01860   2.05073   2.06001   2.09215
 Alpha virt. eigenvalues --    2.10471   2.11443   2.12707   2.13723   2.16924
 Alpha virt. eigenvalues --    2.16929   2.20298   2.22408   2.22602   2.23528
 Alpha virt. eigenvalues --    2.30090   2.32775   2.33338   2.34057   2.35560
 Alpha virt. eigenvalues --    2.37559   2.39625   2.41283   2.45603   2.48325
 Alpha virt. eigenvalues --    2.50900   2.53358   2.57239   2.60179   2.60552
 Alpha virt. eigenvalues --    2.63813   2.69871   2.72436   2.74650   2.75036
 Alpha virt. eigenvalues --    2.75332   2.79013   2.79428   2.83495   2.83733
 Alpha virt. eigenvalues --    2.86099   2.86414   2.92918   2.97202   2.99569
 Alpha virt. eigenvalues --    3.03744   3.04339   3.05263   3.06209   3.08584
 Alpha virt. eigenvalues --    3.10651   3.15102   3.16163   3.23854   3.26598
 Alpha virt. eigenvalues --    3.31597   3.40015   3.50975   3.51743   3.52421
 Alpha virt. eigenvalues --    3.55477   3.75245   3.76606   3.78481   3.82873
 Alpha virt. eigenvalues --    3.88457   3.92810   3.98422
  Beta  occ. eigenvalues --  -99.88091 -11.44136 -11.43274 -11.42853 -11.38490
  Beta  occ. eigenvalues --  -11.38341 -11.34919 -10.45501  -9.65643  -9.64633
  Beta  occ. eigenvalues --   -9.64322  -1.36902  -1.26458  -1.11994  -1.06654
  Beta  occ. eigenvalues --   -0.90278  -0.85429  -0.74825  -0.67695  -0.62830
  Beta  occ. eigenvalues --   -0.62083  -0.58027  -0.56081  -0.54367  -0.53904
  Beta  occ. eigenvalues --   -0.50821  -0.47668  -0.45674  -0.45552  -0.41807
  Beta  occ. eigenvalues --   -0.40285
  Beta virt. eigenvalues --    0.03346   0.05294   0.05389   0.05472   0.05765
  Beta virt. eigenvalues --    0.06012   0.06120   0.06962   0.07109   0.08651
  Beta virt. eigenvalues --    0.09183   0.09621   0.12029   0.13113   0.13422
  Beta virt. eigenvalues --    0.14059   0.14274   0.14934   0.15465   0.15496
  Beta virt. eigenvalues --    0.16623   0.17069   0.18205   0.18439   0.19066
  Beta virt. eigenvalues --    0.19159   0.19394   0.19664   0.20321   0.20523
  Beta virt. eigenvalues --    0.20846   0.21185   0.21830   0.21897   0.24785
  Beta virt. eigenvalues --    0.25056   0.25904   0.26848   0.27578   0.29772
  Beta virt. eigenvalues --    0.30198   0.32657   0.33830   0.35069   0.36516
  Beta virt. eigenvalues --    0.36913   0.37354   0.38512   0.38853   0.38981
  Beta virt. eigenvalues --    0.39673   0.40424   0.41533   0.43295   0.43602
  Beta virt. eigenvalues --    0.45640   0.46106   0.47028   0.47077   0.47475
  Beta virt. eigenvalues --    0.47997   0.48602   0.49220   0.50054   0.50724
  Beta virt. eigenvalues --    0.51077   0.51499   0.51505   0.54216   0.54941
  Beta virt. eigenvalues --    0.55631   0.57654   0.58223   0.58364   0.58921
  Beta virt. eigenvalues --    0.59510   0.60181   0.62208   0.62257   0.64993
  Beta virt. eigenvalues --    0.66322   0.66637   0.68378   0.68969   0.69810
  Beta virt. eigenvalues --    0.71630   0.71704   0.72521   0.73272   0.74992
  Beta virt. eigenvalues --    0.75679   0.75710   0.77032   0.77080   0.78014
  Beta virt. eigenvalues --    0.78961   0.81245   0.82541   0.83047   0.83456
  Beta virt. eigenvalues --    0.84671   0.86623   0.87108   0.88246   0.88465
  Beta virt. eigenvalues --    0.90053   0.90821   0.91368   0.92334   0.93015
  Beta virt. eigenvalues --    0.93287   0.95987   0.96264   0.97008   0.98871
  Beta virt. eigenvalues --    0.98899   1.00378   1.05090   1.06097   1.07740
  Beta virt. eigenvalues --    1.08464   1.12938   1.14599   1.19625   1.23834
  Beta virt. eigenvalues --    1.27318   1.27374   1.32354   1.33005   1.34645
  Beta virt. eigenvalues --    1.34862   1.37043   1.37058   1.39698   1.41349
  Beta virt. eigenvalues --    1.43241   1.47548   1.49225   1.50381   1.55737
  Beta virt. eigenvalues --    1.62948   1.65161   1.68655   1.69890   1.71277
  Beta virt. eigenvalues --    1.76025   1.77766   1.79705   1.81015   1.81876
  Beta virt. eigenvalues --    1.83888   1.89729   1.91173   1.92830   1.95775
  Beta virt. eigenvalues --    1.98583   2.02371   2.02661   2.05852   2.06477
  Beta virt. eigenvalues --    2.09314   2.10803   2.11500   2.13954   2.14434
  Beta virt. eigenvalues --    2.17049   2.17719   2.20955   2.22675   2.23289
  Beta virt. eigenvalues --    2.24260   2.30419   2.33907   2.34341   2.34644
  Beta virt. eigenvalues --    2.35663   2.37760   2.40100   2.41724   2.46035
  Beta virt. eigenvalues --    2.48730   2.51115   2.54061   2.57680   2.60338
  Beta virt. eigenvalues --    2.60835   2.64053   2.70019   2.72711   2.75289
  Beta virt. eigenvalues --    2.75459   2.75691   2.79218   2.79792   2.83786
  Beta virt. eigenvalues --    2.84019   2.86437   2.86566   2.92993   2.97447
  Beta virt. eigenvalues --    2.99798   3.04403   3.04487   3.05486   3.06698
  Beta virt. eigenvalues --    3.08735   3.10837   3.15282   3.16667   3.23914
  Beta virt. eigenvalues --    3.27767   3.32175   3.40332   3.51192   3.52104
  Beta virt. eigenvalues --    3.52491   3.55634   3.75581   3.77157   3.78625
  Beta virt. eigenvalues --    3.82939   3.88649   3.92847   3.98450
          Condensed to atoms (all electrons):
          Atomic-Atomic Spin Densities.
 Mulliken charges and spin densities:
               1          2
     1  C    0.202654   1.716359
     2  C   -2.913898  -0.348565
     3  Cl  -0.331479  -0.033829
     4  C   -2.913898  -0.348565
     5  C   -2.731151   0.013487
     6  C   -2.636598  -0.053708
     7  C   -2.731151   0.013487
     8  H    1.587070   0.008722
     9  H    1.354726   0.015557
    10  H    1.354726   0.015557
    11  H    1.587070   0.008722
    12  H    1.415235  -0.003329
    13  H    1.313468   0.000246
    14  H    1.276040  -0.000592
    15  H    1.438480  -0.000464
    16  H    1.415235  -0.003329
    17  H    1.313468   0.000246
 Sum of Mulliken charges =  -0.00000   1.00000
 Mulliken charges and spin densities with hydrogens summed into heavy atoms:
               1          2
     1  C    0.202654   1.716359
     2  C    0.027898  -0.324287
     3  Cl  -0.331479  -0.033829
     4  C    0.027898  -0.324287
     5  C   -0.002447   0.010403
     6  C    0.077923  -0.054763
     7  C   -0.002447   0.010403
 Electronic spatial extent (au):  <R**2>=           1062.0501
 Charge=              0.0000 electrons
 Dipole moment (field-independent basis, Debye):
    X=              0.9095    Y=             -2.4884    Z=              0.0000  Tot=              2.6494
                          Isotropic Fermi Contact Couplings
        Atom                 a.u.       MegaHertz       Gauss      10(-4) cm-1
     1  C(13)              0.19655     220.96490      78.84577      73.70596
     2  C(13)             -0.02456     -27.61110      -9.85233      -9.21007
     3  Cl(35)             0.03282      14.39058       5.13492       4.80018
     4  C(13)             -0.02456     -27.61110      -9.85233      -9.21007
     5  C(13)              0.00829       9.31518       3.32389       3.10721
     6  C(13)             -0.00205      -2.30121      -0.82113      -0.76760
     7  C(13)              0.00829       9.31518       3.32389       3.10721
     8  H(1)               0.00566      25.28286       9.02155       8.43346
     9  H(1)               0.01752      78.33458      27.95172      26.12960
    10  H(1)               0.01752      78.33458      27.95172      26.12960
    11  H(1)               0.00566      25.28286       9.02155       8.43346
    12  H(1)              -0.00058      -2.60517      -0.92959      -0.86899
    13  H(1)              -0.00068      -3.03019      -1.08125      -1.01076
    14  H(1)               0.00025       1.12242       0.40051       0.37440
    15  H(1)               0.00007       0.30549       0.10901       0.10190
    16  H(1)              -0.00058      -2.60517      -0.92959      -0.86899
    17  H(1)              -0.00068      -3.03019      -1.08125      -1.01076
 --------------------------------------------------------
       Center         ----  Spin Dipole Couplings  ----
                      3XX-RR        3YY-RR        3ZZ-RR
 --------------------------------------------------------
     1   Atom        0.725521     -0.301470     -0.424051
     2   Atom       -0.004188     -0.002022      0.006210
     3   Atom        0.248052     -0.186988     -0.061063
     4   Atom       -0.004188     -0.002022      0.006210
     5   Atom       -0.006521      0.011760     -0.005239
     6   Atom       -0.000544      0.006434     -0.005889
     7   Atom       -0.006521      0.011760     -0.005239
     8   Atom       -0.008886     -0.007911      0.016797
     9   Atom       -0.002805     -0.004458      0.007263
    10   Atom       -0.002805     -0.004458      0.007263
    11   Atom       -0.008886     -0.007911      0.016797
    12   Atom       -0.005373      0.007525     -0.002152
    13   Atom       -0.001900      0.001730      0.000170
    14   Atom       -0.001110      0.003257     -0.002147
    15   Atom        0.000756      0.002350     -0.003106
    16   Atom       -0.005373      0.007525     -0.002152
    17   Atom       -0.001900      0.001730      0.000170
 --------------------------------------------------------
                        XY            XZ            YZ
 --------------------------------------------------------
     1   Atom        0.364881      0.000000      0.000000
     2   Atom       -0.004314      0.005023     -0.002524
     3   Atom        0.318696     -0.000000      0.000000
     4   Atom       -0.004314     -0.005023      0.002524
     5   Atom       -0.008431      0.002531     -0.006081
     6   Atom       -0.004947      0.000000      0.000000
     7   Atom       -0.008431     -0.002531      0.006081
     8   Atom        0.002078      0.003687     -0.003380
     9   Atom       -0.003974      0.008603     -0.004428
    10   Atom       -0.003974     -0.008603      0.004428
    11   Atom        0.002078     -0.003687      0.003380
    12   Atom        0.001645      0.000171     -0.007571
    13   Atom       -0.001870      0.002073     -0.004338
    14   Atom       -0.001765      0.000000     -0.000000
    15   Atom       -0.004640      0.000000     -0.000000
    16   Atom        0.001645     -0.000171      0.007571
    17   Atom       -0.001870     -0.002073      0.004338
 --------------------------------------------------------


 ---------------------------------------------------------------------------------
              Anisotropic Spin Dipole Couplings in Principal Axis System
 ---------------------------------------------------------------------------------

       Atom             a.u.   MegaHertz   Gauss  10(-4) cm-1        Axes

              Baa    -0.4241   -56.904   -20.305   -18.981  0.0000 -0.0000  1.0000
     1 C(13)  Bbb    -0.4179   -56.079   -20.010   -18.706 -0.3040  0.9527  0.0000
              Bcc     0.8420   112.983    40.315    37.687  0.9527  0.3040  0.0000
 
              Baa    -0.0081    -1.081    -0.386    -0.361  0.8347  0.5117 -0.2033
     2 C(13)  Bbb    -0.0016    -0.214    -0.076    -0.071 -0.3653  0.7910  0.4908
              Bcc     0.0097     1.295     0.462     0.432  0.4120 -0.3354  0.8472
 
              Baa    -0.3553   -18.597    -6.636    -6.203 -0.4670  0.8842 -0.0000
     3 Cl(35) Bbb    -0.0611    -3.196    -1.140    -1.066 -0.0000  0.0000  1.0000
              Bcc     0.4164    21.793     7.776     7.269  0.8842  0.4670 -0.0000
 
              Baa    -0.0081    -1.081    -0.386    -0.361  0.8347  0.5117  0.2033
     4 C(13)  Bbb    -0.0016    -0.214    -0.076    -0.071 -0.3653  0.7910 -0.4908
              Bcc     0.0097     1.295     0.462     0.432 -0.4120  0.3354  0.8472
 
              Baa    -0.0098    -1.318    -0.470    -0.440  0.9350  0.3509 -0.0507
     5 C(13)  Bbb    -0.0072    -0.964    -0.344    -0.321 -0.0544  0.2832  0.9575
              Bcc     0.0170     2.282     0.814     0.761 -0.3504  0.8925 -0.2839
 
              Baa    -0.0059    -0.790    -0.282    -0.264 -0.0000 -0.0000  1.0000
     6 C(13)  Bbb    -0.0031    -0.417    -0.149    -0.139  0.8878  0.4602  0.0000
              Bcc     0.0090     1.207     0.431     0.403 -0.4602  0.8878 -0.0000
 
              Baa    -0.0098    -1.318    -0.470    -0.440  0.9350  0.3509  0.0507
     7 C(13)  Bbb    -0.0072    -0.964    -0.344    -0.321  0.0544 -0.2832  0.9575
              Bcc     0.0170     2.282     0.814     0.761 -0.3504  0.8925  0.2839
 
              Baa    -0.0114    -6.091    -2.174    -2.032  0.7641 -0.6211 -0.1743
     8 H(1)   Bbb    -0.0063    -3.345    -1.193    -1.116  0.6324  0.7745  0.0124
              Bcc     0.0177     9.436     3.367     3.147  0.1273 -0.1197  0.9846
 
              Baa    -0.0084    -4.487    -1.601    -1.497  0.8229  0.4703 -0.3189
     9 H(1)   Bbb    -0.0056    -3.001    -1.071    -1.001 -0.2889  0.8296  0.4779
              Bcc     0.0140     7.488     2.672     2.498  0.4893 -0.3011  0.8185
 
              Baa    -0.0084    -4.487    -1.601    -1.497  0.8229  0.4703  0.3189
    10 H(1)   Bbb    -0.0056    -3.001    -1.071    -1.001 -0.2889  0.8296 -0.4779
              Bcc     0.0140     7.488     2.672     2.498 -0.4893  0.3011  0.8185
 
              Baa    -0.0114    -6.091    -2.174    -2.032  0.7641 -0.6211  0.1743
    11 H(1)   Bbb    -0.0063    -3.345    -1.193    -1.116  0.6324  0.7745 -0.0124
              Bcc     0.0177     9.436     3.367     3.147 -0.1273  0.1197  0.9846
 
              Baa    -0.0069    -3.688    -1.316    -1.230 -0.5464  0.4369  0.7145
    12 H(1)   Bbb    -0.0049    -2.597    -0.927    -0.866  0.8338  0.2030  0.5134
              Bcc     0.0118     6.285     2.243     2.096  0.0793  0.8763 -0.4752
 
              Baa    -0.0036    -1.937    -0.691    -0.646 -0.4025  0.4869  0.7752
    13 H(1)   Bbb    -0.0027    -1.420    -0.507    -0.474  0.8576  0.4968  0.1332
              Bcc     0.0063     3.357     1.198     1.120 -0.3203  0.7184 -0.6175
 
              Baa    -0.0021    -1.146    -0.409    -0.382 -0.0000 -0.0000  1.0000
    14 H(1)   Bbb    -0.0017    -0.925    -0.330    -0.309  0.9428  0.3334  0.0000
              Bcc     0.0039     2.071     0.739     0.691 -0.3334  0.9428 -0.0000
 
              Baa    -0.0032    -1.683    -0.601    -0.561  0.7646  0.6445  0.0000
    15 H(1)   Bbb    -0.0031    -1.657    -0.591    -0.553 -0.0000 -0.0000  1.0000
              Bcc     0.0063     3.341     1.192     1.114 -0.6445  0.7646 -0.0000
 
              Baa    -0.0069    -3.688    -1.316    -1.230  0.5464 -0.4369  0.7145
    16 H(1)   Bbb    -0.0049    -2.597    -0.927    -0.866  0.8338  0.2030 -0.5134
              Bcc     0.0118     6.285     2.243     2.096  0.0793  0.8763  0.4752
 
              Baa    -0.0036    -1.937    -0.691    -0.646  0.4025 -0.4869  0.7752
    17 H(1)   Bbb    -0.0027    -1.420    -0.507    -0.474  0.8576  0.4968 -0.1332
              Bcc     0.0063     3.357     1.198     1.120 -0.3203  0.7184  0.6175
 

 ---------------------------------------------------------------------------------


 Test job not archived.
 1\1\GINC-SE162\SP\UHF\Aug-CC-pVDZ\C6H10Cl1(2)\OHZDE\09-Apr-2025\0\\#t 
 hf aug-cc-pvdz iop(5/13=1,5/36=2,99/5=2) pseudo=read geom=check guess=
 (read,tcheck) scf=(maxcycle=1)\\title\\0,2\C,0,-0.286274,0.569342,0.\C
 ,0,0.181787,-0.000269,1.294031\Cl,0,-0.694142,2.260509,0.\C,0,0.181787
 ,-0.000269,-1.294031\C,0,0.181787,-1.5323,1.257445\C,0,0.866284,-2.062
 94,0.\C,0,0.181787,-1.5323,-1.257445\H,0,-0.435915,0.370445,2.114844\H
 ,0,1.206143,0.356101,1.494573\H,0,1.206143,0.356101,-1.494573\H,0,-0.4
 35915,0.370445,-2.114844\H,0,-0.852101,-1.891594,1.281347\H,0,0.672418
 ,-1.916472,2.154868\H,0,0.856738,-3.155703,0.\H,0,1.919645,-1.757498,0
 .\H,0,-0.852101,-1.891594,-1.281347\H,0,0.672418,-1.916472,-2.154868\\
 Version=ES64L-G16RevC.01\State=2-A'\HF=-693.9564024\S2=0.764547\S2-1=0
 .\S2A=0.750174\RMSD=6.023e-01\Dipole=0.3578103,-0.9789983,0.\Quadrupol
 e=0.4656237,-1.9990024,1.5333787,0.8107059,0.,0.\PG=CS [SG(C2H2Cl1),X(
 C4H8)]\\@


 PATIENCE IS THE ABILITY TO IDLE YOUR MOTOR WHEN
 YOU FEEL LIKE STRIPPING YOUR GEARS.
 Job cpu time:       0 days  0 hours  1 minutes  0.8 seconds.
 Elapsed time:       0 days  0 hours  0 minutes  5.1 seconds.
 File lengths (MBytes):  RWF=     15 Int=      0 D2E=      0 Chk=     11 Scr=      1
 Normal termination of Gaussian 16 at Wed Apr  9 01:25:39 2025.
