 Entering Gaussian System, Link 0=g16
 Input=BH76RC_6_mol2.gjf
 Output=BH76RC_6_mol2.log
 Initial command:
 /arc/software/Gaussian/g16.c01/l1.exe "/tmp/slurm/4856685/Gau-1821872.inp" -scrdir="/tmp/slurm/4856685/"
 Entering Link 1 = /arc/software/Gaussian/g16.c01/l1.exe PID=   1821873.
  
 Copyright (c) 1988-2019, Gaussian, Inc.  All Rights Reserved.
  
 This is part of the Gaussian(R) 16 program.  It is based on
 the Gaussian(R) 09 system (copyright 2009, Gaussian, Inc.),
 the Gaussian(R) 03 system (copyright 2003, Gaussian, Inc.),
 the Gaussian(R) 98 system (copyright 1998, Gaussian, Inc.),
 the Gaussian(R) 94 system (copyright 1995, Gaussian, Inc.),
 the Gaussian 92(TM) system (copyright 1992, Gaussian, Inc.),
 the Gaussian 90(TM) system (copyright 1990, Gaussian, Inc.),
 the Gaussian 88(TM) system (copyright 1988, Gaussian, Inc.),
 the Gaussian 86(TM) system (copyright 1986, Carnegie Mellon
 University), and the Gaussian 82(TM) system (copyright 1983,
 Carnegie Mellon University). Gaussian is a federally registered
 trademark of Gaussian, Inc.
  
 This software contains proprietary and confidential information,
 including trade secrets, belonging to Gaussian, Inc.
  
 This software is provided under written license and may be
 used, copied, transmitted, or stored only in accord with that
 written license.
  
 The following legend is applicable only to US Government
 contracts under FAR:
  
                    RESTRICTED RIGHTS LEGEND
  
 Use, reproduction and disclosure by the US Government is
 subject to restrictions as set forth in subparagraphs (a)
 and (c) of the Commercial Computer Software - Restricted
 Rights clause in FAR 52.227-19.
  
 Gaussian, Inc.
 340 Quinnipiac St., Bldg. 40, Wallingford CT 06492
  
  
 ---------------------------------------------------------------
 Warning -- This program may not be used in any manner that
 competes with the business of Gaussian, Inc. or will provide
 assistance to any competitor of Gaussian, Inc.  The licensee
 of this program is prohibited from giving any competitor of
 Gaussian, Inc. access to this program.  By using this program,
 the user acknowledges that Gaussian, Inc. is engaged in the
 business of creating and licensing software in the field of
 computational chemistry and represents and warrants to the
 licensee that it is not a competitor of Gaussian, Inc. and that
 it will not use this program in any manner prohibited above.
 ---------------------------------------------------------------
  

 Cite this work as:
 Gaussian 16, Revision C.01,
 M. J. Frisch, G. W. Trucks, H. B. Schlegel, G. E. Scuseria, 
 M. A. Robb, J. R. Cheeseman, G. Scalmani, V. Barone, 
 G. A. Petersson, H. Nakatsuji, X. Li, M. Caricato, A. V. Marenich, 
 J. Bloino, B. G. Janesko, R. Gomperts, B. Mennucci, H. P. Hratchian, 
 J. V. Ortiz, A. F. Izmaylov, J. L. Sonnenberg, D. Williams-Young, 
 F. Ding, F. Lipparini, F. Egidi, J. Goings, B. Peng, A. Petrone, 
 T. Henderson, D. Ranasinghe, V. G. Zakrzewski, J. Gao, N. Rega, 
 G. Zheng, W. Liang, M. Hada, M. Ehara, K. Toyota, R. Fukuda, 
 J. Hasegawa, M. Ishida, T. Nakajima, Y. Honda, O. Kitao, H. Nakai, 
 T. Vreven, K. Throssell, J. A. Montgomery, Jr., J. E. Peralta, 
 F. Ogliaro, M. J. Bearpark, J. J. Heyd, E. N. Brothers, K. N. Kudin, 
 V. N. Staroverov, T. A. Keith, R. Kobayashi, J. Normand, 
 K. Raghavachari, A. P. Rendell, J. C. Burant, S. S. Iyengar, 
 J. Tomasi, M. Cossi, J. M. Millam, M. Klene, C. Adamo, R. Cammi, 
 J. W. Ochterski, R. L. Martin, K. Morokuma, O. Farkas, 
 J. B. Foresman, and D. J. Fox, Gaussian, Inc., Wallingford CT, 2019.
 
 ******************************************
 Gaussian 16:  ES64L-G16RevC.01  3-Jul-2019
                 9-Apr-2025 
 ******************************************
 %nprocs=16
 Will use up to   16 processors via shared memory.
 %mem=30GB
 %chk=BH76RC_6_mol2.chk
 ----------------------------------------------------------------------
 #t hf aug-cc-pvdz symm=none int=(grid=ultrafine) guess=(read,tcheck) s
 table=(opt,rrhf)
 ----------------------------------------------------------------------
 -----
 title
 -----
 Symbolic Z-matrix:
 Charge = -1 Multiplicity = 1
 F                     0.        0.       -1.88994 
 C                     0.        0.       -0.48156 
 H                    -0.51236   0.88743  -0.1278 
 H                    -0.51236  -0.88743  -0.1278 
 H                     1.02472   0.       -0.1278 
 Cl                    0.        0.        2.75491 
 
                    Distance matrix (angstroms):
                    1          2          3          4          5
     1  F    0.000000
     2  C    1.408373   0.000000
     3  H    2.038422   1.084065   0.000000
     4  H    2.038422   1.084065   1.774867   0.000000
     5  H    2.038422   1.084065   1.774867   1.774867   0.000000
     6  Cl   4.644842   3.236469   3.059422   3.059422   3.059422
                    6
     6  Cl   0.000000
 Symmetry turned off by external request.
 Rotational constants (GHZ):         159.1843783           1.7131884           1.7131884
   100 basis functions,   200 primitive gaussians,   106 cartesian basis functions
    18 alpha electrons       18 beta electrons
       nuclear repulsion energy        79.9097196340 Hartrees.
 NAtoms=    6 NActive=    6 NUniq=    6 SFac= 1.00D+00 NAtFMM=   60 NAOKFM=F Big=F
 ExpMin= 2.97D-02 ExpMax= 1.28D+05 ExpMxC= 1.24D+03 IAcc=3 IRadAn=         5 AccDes= 0.00D+00
 Harris functional with IExCor=  205 and IRadAn=       5 diagonalized for initial guess.
 HarFok:  IExCor=  205 AccDes= 0.00D+00 IRadAn=         5 IDoV= 1 UseB2=F ITyADJ=14
 ICtDFT=  3500011 ScaDFX=  1.000000  1.000000  1.000000  1.000000
 FoFCou: FMM=F IPFlag=           0 FMFlag=      100000 FMFlg1=           0
         NFxFlg=           0 DoJE=T BraDBF=F KetDBF=T FulRan=T
         wScrn=  0.000000 ICntrl=       500 IOpCl=  0 I1Cent=   200000004 NGrid=           0
         NMat0=    1 NMatS0=      1 NMatT0=    0 NMatD0=    1 NMtDS0=    0 NMtDT0=    0
 Symmetry not used in FoFCou.
 SCF Done:  E(RHF) =  -598.633442914     A.U. after   11 cycles
            NFock= 11  Conv=0.63D-08     -V/T= 2.0003

 **********************************************************************

            Population analysis using the SCF Density.

 **********************************************************************

 Alpha  occ. eigenvalues -- -104.52325 -26.14979 -11.15759 -10.24639  -7.71241
 Alpha  occ. eigenvalues --   -7.71235  -7.71235  -1.44614  -0.80472  -0.75117
 Alpha  occ. eigenvalues --   -0.54794  -0.54794  -0.52566  -0.38336  -0.38336
 Alpha  occ. eigenvalues --   -0.16960  -0.16720  -0.16720
 Alpha virt. eigenvalues --    0.15161   0.17175   0.17175   0.21968   0.26240
 Alpha virt. eigenvalues --    0.26240   0.30208   0.31088   0.33237   0.33237
 Alpha virt. eigenvalues --    0.39299   0.41909   0.41909   0.43545   0.43545
 Alpha virt. eigenvalues --    0.44215   0.48631   0.54918   0.55857   0.55857
 Alpha virt. eigenvalues --    0.59104   0.59104   0.64179   0.65599   0.69290
 Alpha virt. eigenvalues --    0.69989   0.69989   0.75793   0.76111   0.76111
 Alpha virt. eigenvalues --    0.78067   0.78067   0.82644   0.87848   0.87848
 Alpha virt. eigenvalues --    0.93616   0.93616   1.00198   1.10726   1.10726
 Alpha virt. eigenvalues --    1.16491   1.22966   1.22966   1.29999   1.36871
 Alpha virt. eigenvalues --    1.44756   1.44756   1.57140   1.61701   1.61701
 Alpha virt. eigenvalues --    1.68508   1.68508   1.72547   1.72547   1.77155
 Alpha virt. eigenvalues --    1.77155   1.82959   1.91606   1.92595   1.92595
 Alpha virt. eigenvalues --    2.01893   2.10785   2.10785   2.16813   2.27958
 Alpha virt. eigenvalues --    2.39045   2.39045   2.41080   2.41080   2.46320
 Alpha virt. eigenvalues --    2.54138   2.84357   2.84357   3.02273   3.05540
 Alpha virt. eigenvalues --    3.05540   3.63618   5.11840   5.11840   5.21751
 Alpha virt. eigenvalues --    5.21751   5.25343
          Condensed to atoms (all electrons):
 Mulliken charges:
               1
     1  F   -0.618323
     2  C    0.957045
     3  H   -0.118813
     4  H   -0.118813
     5  H   -0.118813
     6  Cl  -0.982283
 Sum of Mulliken charges =  -1.00000
 Mulliken charges with hydrogens summed into heavy atoms:
               1
     1  F   -0.618323
     2  C    0.600605
     6  Cl  -0.982283
 Electronic spatial extent (au):  <R**2>=            688.1906
 Charge=             -1.0000 electrons
 Dipole moment (field-independent basis, Debye):
    X=             -0.0000    Y=              0.0000    Z=            -10.0546  Tot=             10.0546
 NROrb=    100 NOA=    18 NOB=    18 NVA=    82 NVB=    82

 **** Warning!!: The largest alpha MO coefficient is  0.21339789D+02

    12 initial guesses have been made.
 Iteration     1 Dimension    12 NMult     0 NNew     12
 Iteration     2 Dimension    24 NMult    12 NNew     12
 Iteration     3 Dimension    27 NMult    24 NNew      3
 Iteration     4 Dimension    30 NMult    27 NNew      3
 Iteration     5 Dimension    33 NMult    30 NNew      3
 Iteration     6 Dimension    36 NMult    33 NNew      3
 ***********************************************************************
 Stability analysis using <AA,BB:AA,BB> singles matrix:
 ***********************************************************************
 Ground to excited state transition densities written to RWF  633

 Eigenvectors of the stability matrix:
 
 Excited state symmetry could not be determined.
 Eigenvector   1:      Singlet-?Sym  Eigenvalue= 0.2048293  <S**2>=0.000
      18 -> 19         0.64429
      18 -> 22        -0.26086
 The wavefunction is stable under the perturbations considered.
 The wavefunction is already stable.

 **********************************************************************

            Population analysis using the SCF Density.

 **********************************************************************

 Alpha  occ. eigenvalues -- -104.52325 -26.14979 -11.15759 -10.24639  -7.71241
 Alpha  occ. eigenvalues --   -7.71235  -7.71235  -1.44614  -0.80472  -0.75117
 Alpha  occ. eigenvalues --   -0.54794  -0.54794  -0.52566  -0.38336  -0.38336
 Alpha  occ. eigenvalues --   -0.16960  -0.16720  -0.16720
 Alpha virt. eigenvalues --    0.15161   0.17175   0.17175   0.21968   0.26240
 Alpha virt. eigenvalues --    0.26240   0.30208   0.31088   0.33237   0.33237
 Alpha virt. eigenvalues --    0.39299   0.41909   0.41909   0.43545   0.43545
 Alpha virt. eigenvalues --    0.44215   0.48631   0.54918   0.55857   0.55857
 Alpha virt. eigenvalues --    0.59104   0.59104   0.64179   0.65599   0.69290
 Alpha virt. eigenvalues --    0.69989   0.69989   0.75793   0.76111   0.76111
 Alpha virt. eigenvalues --    0.78067   0.78067   0.82644   0.87848   0.87848
 Alpha virt. eigenvalues --    0.93616   0.93616   1.00198   1.10726   1.10726
 Alpha virt. eigenvalues --    1.16491   1.22966   1.22966   1.29999   1.36871
 Alpha virt. eigenvalues --    1.44756   1.44756   1.57140   1.61701   1.61701
 Alpha virt. eigenvalues --    1.68508   1.68508   1.72547   1.72547   1.77155
 Alpha virt. eigenvalues --    1.77155   1.82959   1.91606   1.92595   1.92595
 Alpha virt. eigenvalues --    2.01893   2.10785   2.10785   2.16813   2.27958
 Alpha virt. eigenvalues --    2.39045   2.39045   2.41080   2.41080   2.46320
 Alpha virt. eigenvalues --    2.54138   2.84357   2.84357   3.02273   3.05540
 Alpha virt. eigenvalues --    3.05540   3.63618   5.11840   5.11840   5.21751
 Alpha virt. eigenvalues --    5.21751   5.25343
          Condensed to atoms (all electrons):
 Mulliken charges:
               1
     1  F   -0.618323
     2  C    0.957045
     3  H   -0.118813
     4  H   -0.118813
     5  H   -0.118813
     6  Cl  -0.982283
 Sum of Mulliken charges =  -1.00000
 Mulliken charges with hydrogens summed into heavy atoms:
               1
     1  F   -0.618323
     2  C    0.600605
     6  Cl  -0.982283
 Electronic spatial extent (au):  <R**2>=            688.1906
 Charge=             -1.0000 electrons
 Dipole moment (field-independent basis, Debye):
    X=             -0.0000    Y=              0.0000    Z=            -10.0546  Tot=             10.0546
 Unable to Open any file for archive entry.
 1\1\GINC-SE334\Stability\RHF\Aug-CC-pVDZ\C1H3Cl1F1\OHZDE\09-Apr-2025\0
 \\#t hf aug-cc-pvdz symm=none int=(grid=ultrafine) guess=(read,tcheck)
  stable=(opt,rrhf)\\title\\-1,1\F,0,0.,0.,-1.88993612\C,0,0.,0.,-0.481
 56273\H,0,-0.51235996,0.88743348,-0.12780247\H,0,-0.51235996,-0.887433
 48,-0.12780247\H,0,1.02471992,0.,-0.12780247\Cl,0,0.,0.,2.75490626\\Ve
 rsion=ES64L-G16RevC.01\HF=-598.6334429\RMSD=6.287e-09\Dipole=0.,0.,-2.
 5222217\Quadrupole=10.5927274,10.5927274,-21.1854549,0.,0.,0.\PG=Unkno
 wn\\@
 The archive entry for this job was punched.


 THERE'S NOTHING WRONG WITH FOLLOWING A TRAIN OF THOUGHT...
 AS LONG AS IT ULTIMATELY PULLS INTO THE STATION.
 Job cpu time:       0 days  0 hours  0 minutes 16.8 seconds.
 Elapsed time:       0 days  0 hours  0 minutes  2.0 seconds.
 File lengths (MBytes):  RWF=     90 Int=      0 D2E=      0 Chk=      2 Scr=      1
 Normal termination of Gaussian 16 at Wed Apr  9 02:12:28 2025.
 Initial command:
 /arc/software/Gaussian/g16.c01/l1.exe "/tmp/slurm/4856685/Gau-1821872.inp" -scrdir="/tmp/slurm/4856685/"
 Entering Link 1 = /arc/software/Gaussian/g16.c01/l1.exe PID=   1822084.
  
 Copyright (c) 1988-2019, Gaussian, Inc.  All Rights Reserved.
  
 This is part of the Gaussian(R) 16 program.  It is based on
 the Gaussian(R) 09 system (copyright 2009, Gaussian, Inc.),
 the Gaussian(R) 03 system (copyright 2003, Gaussian, Inc.),
 the Gaussian(R) 98 system (copyright 1998, Gaussian, Inc.),
 the Gaussian(R) 94 system (copyright 1995, Gaussian, Inc.),
 the Gaussian 92(TM) system (copyright 1992, Gaussian, Inc.),
 the Gaussian 90(TM) system (copyright 1990, Gaussian, Inc.),
 the Gaussian 88(TM) system (copyright 1988, Gaussian, Inc.),
 the Gaussian 86(TM) system (copyright 1986, Carnegie Mellon
 University), and the Gaussian 82(TM) system (copyright 1983,
 Carnegie Mellon University). Gaussian is a federally registered
 trademark of Gaussian, Inc.
  
 This software contains proprietary and confidential information,
 including trade secrets, belonging to Gaussian, Inc.
  
 This software is provided under written license and may be
 used, copied, transmitted, or stored only in accord with that
 written license.
  
 The following legend is applicable only to US Government
 contracts under FAR:
  
                    RESTRICTED RIGHTS LEGEND
  
 Use, reproduction and disclosure by the US Government is
 subject to restrictions as set forth in subparagraphs (a)
 and (c) of the Commercial Computer Software - Restricted
 Rights clause in FAR 52.227-19.
  
 Gaussian, Inc.
 340 Quinnipiac St., Bldg. 40, Wallingford CT 06492
  
  
 ---------------------------------------------------------------
 Warning -- This program may not be used in any manner that
 competes with the business of Gaussian, Inc. or will provide
 assistance to any competitor of Gaussian, Inc.  The licensee
 of this program is prohibited from giving any competitor of
 Gaussian, Inc. access to this program.  By using this program,
 the user acknowledges that Gaussian, Inc. is engaged in the
 business of creating and licensing software in the field of
 computational chemistry and represents and warrants to the
 licensee that it is not a competitor of Gaussian, Inc. and that
 it will not use this program in any manner prohibited above.
 ---------------------------------------------------------------
  

 Cite this work as:
 Gaussian 16, Revision C.01,
 M. J. Frisch, G. W. Trucks, H. B. Schlegel, G. E. Scuseria, 
 M. A. Robb, J. R. Cheeseman, G. Scalmani, V. Barone, 
 G. A. Petersson, H. Nakatsuji, X. Li, M. Caricato, A. V. Marenich, 
 J. Bloino, B. G. Janesko, R. Gomperts, B. Mennucci, H. P. Hratchian, 
 J. V. Ortiz, A. F. Izmaylov, J. L. Sonnenberg, D. Williams-Young, 
 F. Ding, F. Lipparini, F. Egidi, J. Goings, B. Peng, A. Petrone, 
 T. Henderson, D. Ranasinghe, V. G. Zakrzewski, J. Gao, N. Rega, 
 G. Zheng, W. Liang, M. Hada, M. Ehara, K. Toyota, R. Fukuda, 
 J. Hasegawa, M. Ishida, T. Nakajima, Y. Honda, O. Kitao, H. Nakai, 
 T. Vreven, K. Throssell, J. A. Montgomery, Jr., J. E. Peralta, 
 F. Ogliaro, M. J. Bearpark, J. J. Heyd, E. N. Brothers, K. N. Kudin, 
 V. N. Staroverov, T. A. Keith, R. Kobayashi, J. Normand, 
 K. Raghavachari, A. P. Rendell, J. C. Burant, S. S. Iyengar, 
 J. Tomasi, M. Cossi, J. M. Millam, M. Klene, C. Adamo, R. Cammi, 
 J. W. Ochterski, R. L. Martin, K. Morokuma, O. Farkas, 
 J. B. Foresman, and D. J. Fox, Gaussian, Inc., Wallingford CT, 2019.
 
 ******************************************
 Gaussian 16:  ES64L-G16RevC.01  3-Jul-2019
                 9-Apr-2025 
 ******************************************
 %nprocs=16
 Will use up to   16 processors via shared memory.
 %mem=30GB
 %chk=BH76RC_6_mol2.chk
 ----------------------------------------------------------------------
 #t hf aug-cc-pvdz iop(5/13=1,5/36=2,99/5=2) pseudo=read geom=check gue
 ss=(read,tcheck) scf=(maxcycle=1)
 ----------------------------------------------------------------------
 -----
 title
 -----
 Structure from the checkpoint file:  "BH76RC_6_mol2.chk"
 Charge = -1 Multiplicity = 1
 Z-Matrix found in chk file.
 F,0,0.,0.,-1.88993612
 C,0,0.,0.,-0.48156273
 H,0,-0.51235996,0.88743348,-0.12780247
 H,0,-0.51235996,-0.88743348,-0.12780247
 H,0,1.02471992,0.,-0.12780247
 Cl,0,0.,0.,2.75490626
 Recover connectivity data from disk.
                    Distance matrix (angstroms):
                    1          2          3          4          5
     1  F    0.000000
     2  C    1.408373   0.000000
     3  H    2.038422   1.084065   0.000000
     4  H    2.038422   1.084065   1.774867   0.000000
     5  H    2.038422   1.084065   1.774867   1.774867   0.000000
     6  Cl   4.644842   3.236469   3.059422   3.059422   3.059422
                    6
     6  Cl   0.000000
 Framework group  C3V[C3(FCCl),3SGV(H)]
 Deg. of freedom     4
                         Standard orientation:                         
 ---------------------------------------------------------------------
 Center     Atomic      Atomic             Coordinates (Angstroms)
 Number     Number       Type             X           Y           Z
 ---------------------------------------------------------------------
      1          9           0        0.000000    0.000000   -2.648542
      2          6           0        0.000000    0.000000   -1.240168
      3          1           0       -0.000000    1.024720   -0.886408
      4          1           0       -0.887433   -0.512360   -0.886408
      5          1           0        0.887433   -0.512360   -0.886408
      6         17           0        0.000000    0.000000    1.996301
 ---------------------------------------------------------------------
 Rotational constants (GHZ):         159.1843785           1.7131884           1.7131884
 ======================================================================================================
                                       Pseudopotential Parameters
 ======================================================================================================
  Center     Atomic      Valence      Angular      Power
  Number     Number     Electrons     Momentum     of R      Exponent        Coefficient   SO-Coeffient
 ======================================================================================================
    1          9            9
                                      G and up 
                                                     0        0.0000010       -0.00152163    0.00000000
                                                     2        0.1200000       -0.09043016    0.00000000
                                                     2        0.1400000        0.25628512    0.00000000
                                                     2        0.2000000       -0.31987377    0.00000000
                                                     2        0.3000000        0.48912429    0.00000000
                                                     2        0.4000000        0.12183688    0.00000000
                                                     2        0.6000000       -0.79963093    0.00000000
                                                     2        1.3000000        1.98943307    0.00000000
                                      S - G
                                                     0        0.0000010       -0.05404402    0.00000000
                                                     2        0.1200000        1.31674577    0.00000000
                                                     2        0.2400000       -4.28550771    0.00000000
                                                     2        0.8000000        7.13027769    0.00000000
                                      P - G
                                                     0        0.0000010       -0.03280113    0.00000000
                                                     2        0.1200000       -0.11684768    0.00000000
                                                     2        0.2200000       -0.54710751    0.00000000
                                                     2        0.6000000        1.00412264    0.00000000
                                      D - G
                                                     0        0.0000010       -0.09872413    0.00000000
                                                     2        0.1600000        0.32020158    0.00000000
                                                     2        0.5000000       -3.54424892    0.00000000
                                      F - G
                                                     0        0.0000010        0.17152509    0.00000000
                                                     2        0.1200000       -0.51731546    0.00000000
                                                     2        0.4000000        2.52461867    0.00000000
    2          6            6
                                      G and up 
                                                     0        0.0000010       -0.00286759    0.00000000
                                                     2        0.1200000        0.03193960    0.00000000
                                                     2        0.1600000       -0.04027782    0.00000000
                                                     2        0.2600000        0.24782456    0.00000000
                                                     2        0.4000000       -0.62266671    0.00000000
                                                     2        0.7000000        0.35695227    0.00000000
                                      S - G
                                                     0        0.0000010       -0.06602313    0.00000000
                                                     2        0.1200000        1.47277455    0.00000000
                                                     2        0.1600000       -4.06924166    0.00000000
                                                     2        0.3000000        5.02952802    0.00000000
                                                     2        0.7000000       -5.65856978    0.00000000
                                                     2        1.7000000        8.57604414    0.00000000
                                      P - G
                                                     0        0.0000010        0.49434425    0.00000000
                                                     2        0.1200000       -1.37391547    0.00000000
                                                     2        0.1600000        3.65411806    0.00000000
                                                     2        0.2800000       -7.36479843    0.00000000
                                                     2        0.6000000       17.22091285    0.00000000
                                                     2        1.1000000      -23.50107827    0.00000000
                                                     2        3.0000000       16.29464063    0.00000000
                                      D - G
                                                     0        0.0000010       -0.28693103    0.00000000
                                                     2        0.1200000        0.12273044    0.00000000
                                                     2        0.3000000       -0.43416384    0.00000000
                                                     2        0.7000000        2.23358493    0.00000000
                                      F - G
                                                     0        0.0000010        0.07263570    0.00000000
                                                     2        0.1400000       -0.76152861    0.00000000
                                                     2        0.2200000        1.98045593    0.00000000
                                                     2        0.4000000       -2.42426427    0.00000000
                                                     2        0.7000000        0.52335237    0.00000000
    3          1            1
                                      F and up 
                                                     0        0.0000010        0.00072061    0.00000000
                                                     2        0.1200000        0.03832357    0.00000000
                                                     2        0.1400000       -0.08683256    0.00000000
                                                     2        0.1800000        0.09312970    0.00000000
                                                     2        0.2800000       -0.02532572    0.00000000
                                                     2        0.4000000       -0.09430787    0.00000000
                                                     2        0.7000000        0.42710831    0.00000000
                                                     2        1.2000000       -2.11746981    0.00000000
                                      S - F
                                                     0        0.0000010        0.14449603    0.00000000
                                                     2        0.1200000       -0.56378993    0.00000000
                                                     2        0.1400000        0.63941249    0.00000000
                                                     2        0.2600000       -0.58461015    0.00000000
                                                     2        0.5000000        1.00157293    0.00000000
                                                     2        1.8000000       -0.14135838    0.00000000
                                      P - F
                                                     0        0.0000010       -0.09353646    0.00000000
                                                     2        0.1200000        0.31768975    0.00000000
                                                     2        0.2000000       -0.71747951    0.00000000
                                                     2        0.4000000        0.65752308    0.00000000
                                                     2        1.7000000        2.94052587    0.00000000
                                      D - F
                                                     0        0.0000010       -0.04491202    0.00000000
                                                     2        0.1200000       -0.02862031    0.00000000
                                                     2        0.1800000       -0.21515263    0.00000000
                                                     2        0.3000000        0.80560647    0.00000000
                                                     2        0.4000000        0.47351754    0.00000000
                                                     2        0.7000000       -4.57051794    0.00000000
                                                     2        1.6000000       18.53737826    0.00000000
    4          1            1
                                      F and up 
                                                     0        0.0000010        0.00072061    0.00000000
                                                     2        0.1200000        0.03832357    0.00000000
                                                     2        0.1400000       -0.08683256    0.00000000
                                                     2        0.1800000        0.09312970    0.00000000
                                                     2        0.2800000       -0.02532572    0.00000000
                                                     2        0.4000000       -0.09430787    0.00000000
                                                     2        0.7000000        0.42710831    0.00000000
                                                     2        1.2000000       -2.11746981    0.00000000
                                      S - F
                                                     0        0.0000010        0.14449603    0.00000000
                                                     2        0.1200000       -0.56378993    0.00000000
                                                     2        0.1400000        0.63941249    0.00000000
                                                     2        0.2600000       -0.58461015    0.00000000
                                                     2        0.5000000        1.00157293    0.00000000
                                                     2        1.8000000       -0.14135838    0.00000000
                                      P - F
                                                     0        0.0000010       -0.09353646    0.00000000
                                                     2        0.1200000        0.31768975    0.00000000
                                                     2        0.2000000       -0.71747951    0.00000000
                                                     2        0.4000000        0.65752308    0.00000000
                                                     2        1.7000000        2.94052587    0.00000000
                                      D - F
                                                     0        0.0000010       -0.04491202    0.00000000
                                                     2        0.1200000       -0.02862031    0.00000000
                                                     2        0.1800000       -0.21515263    0.00000000
                                                     2        0.3000000        0.80560647    0.00000000
                                                     2        0.4000000        0.47351754    0.00000000
                                                     2        0.7000000       -4.57051794    0.00000000
                                                     2        1.6000000       18.53737826    0.00000000
    5          1            1
                                      F and up 
                                                     0        0.0000010        0.00072061    0.00000000
                                                     2        0.1200000        0.03832357    0.00000000
                                                     2        0.1400000       -0.08683256    0.00000000
                                                     2        0.1800000        0.09312970    0.00000000
                                                     2        0.2800000       -0.02532572    0.00000000
                                                     2        0.4000000       -0.09430787    0.00000000
                                                     2        0.7000000        0.42710831    0.00000000
                                                     2        1.2000000       -2.11746981    0.00000000
                                      S - F
                                                     0        0.0000010        0.14449603    0.00000000
                                                     2        0.1200000       -0.56378993    0.00000000
                                                     2        0.1400000        0.63941249    0.00000000
                                                     2        0.2600000       -0.58461015    0.00000000
                                                     2        0.5000000        1.00157293    0.00000000
                                                     2        1.8000000       -0.14135838    0.00000000
                                      P - F
                                                     0        0.0000010       -0.09353646    0.00000000
                                                     2        0.1200000        0.31768975    0.00000000
                                                     2        0.2000000       -0.71747951    0.00000000
                                                     2        0.4000000        0.65752308    0.00000000
                                                     2        1.7000000        2.94052587    0.00000000
                                      D - F
                                                     0        0.0000010       -0.04491202    0.00000000
                                                     2        0.1200000       -0.02862031    0.00000000
                                                     2        0.1800000       -0.21515263    0.00000000
                                                     2        0.3000000        0.80560647    0.00000000
                                                     2        0.4000000        0.47351754    0.00000000
                                                     2        0.7000000       -4.57051794    0.00000000
                                                     2        1.6000000       18.53737826    0.00000000
    6         17           17
                                      G and up 
                                                     0        0.0000010        0.00409650    0.00000000
                                                     2        0.1200000        0.06945192    0.00000000
                                                     2        0.1400000       -0.06660574    0.00000000
                                                     2        0.2200000        0.15305308    0.00000000
                                      S - G
                                                     0        0.0000010        0.00555482    0.00000000
                                                     2        0.2000000       -0.53060378    0.00000000
                                      P - G
                                                     0        0.0000010       -0.16962542    0.00000000
                                                     2        0.1200000        0.15585357    0.00000000
                                                     2        0.1800000       -0.79460714    0.00000000
                                                     2        0.5000000        1.36495881    0.00000000
                                      D - G
                                                     0        0.0000010        0.91266089    0.00000000
                                                     2        0.2400000       -1.50552862    0.00000000
                                      F - G
                                                     0        0.0000010       -0.76620800    0.00000000
                                                     2        0.1200000       -0.23737626    0.00000000
                                                     2        0.1800000        0.28531204    0.00000000
 ======================================================================================================
   100 basis functions,   200 primitive gaussians,   106 cartesian basis functions
    18 alpha electrons       18 beta electrons
       nuclear repulsion energy        79.9097196420 Hartrees.
 NAtoms=    6 NActive=    6 NUniq=    4 SFac= 2.25D+00 NAtFMM=   60 NAOKFM=F Big=F
   6 Symmetry operations used in ECPInt.
 ECPInt:  NShTT=     990 NPrTT=    6326 LenC2=     980 LenP2D=    4838.
 LDataN:  DoStor=T MaxTD1= 6 Len=  172
 Initial guess from the checkpoint file:  "BH76RC_6_mol2.chk"
 B after Tr=    -0.000000   -0.000000   -1.433557
         Rot=    0.965926   -0.000000   -0.000000    0.258819 Ang=  30.00 deg.
 Initial guess orbital symmetries:
       Occupied  (A1) (A1) (A1) (A1) (A1) (E) (E) (A1) (A1) (A1)
                 (E) (E) (A1) (E) (E) (A1) (E) (E)
       Virtual   (A1) (E) (E) (A1) (E) (E) (A1) (A1) (E) (E) (A1)
                 (E) (E) (E) (E) (A1) (A1) (A1) (E) (E) (E) (E)
                 (A1) (A2) (A1) (E) (E) (A1) (E) (E) (E) (E) (A1)
                 (E) (E) (E) (E) (A1) (E) (E) (A1) (E) (E) (A1)
                 (A1) (E) (E) (A1) (E) (E) (E) (E) (E) (E) (E)
                 (E) (A1) (A1) (E) (E) (A2) (E) (E) (A1) (A1) (E)
                 (E) (E) (E) (A1) (A1) (E) (E) (A1) (E) (E) (A1)
                 (E) (E) (E) (E) (A1)
 An orbital has undefined symmetry, so N**3 symmetry is turned off.
 >>>>>>>>>> Convergence criterion not met.
 SCF Done:  E(RHF) =  -599.436114219     A.U. after    2 cycles
            NFock=  1  Conv=0.54D-01     -V/T= 2.0144

 **********************************************************************

            Population analysis using the SCF Density.

 **********************************************************************

 Orbital symmetries:
       Occupied  (A1) (A1) (A1) (A1) (A1) (E) (E) (A1) (A1) (A1)
                 (E) (E) (A1) (E) (E) (A1) (E) (E)
       Virtual   (A1) (E) (E) (A1) (E) (E) (A1) (A1) (E) (E) (A1)
                 (E) (E) (A1) (E) (E) (E) (E) (A1) (A1) (E) (E)
                 (E) (E) (A2) (A1) (E) (E) (E) (E) (A1) (A1) (A1)
                 (E) (E) (E) (E) (A1) (E) (E) (A1) (E) (E) (E)
                 (E) (A1) (E) (E) (A1) (E) (E) (A1) (E) (E) (A1)
                 (E) (E) (A1) (E) (E) (A2) (A1) (E) (E) (A1) (E)
                 (E) (E) (E) (A1) (A1) (E) (E) (A1) (E) (E) (E)
                 (E) (E) (E) (A1) (A1)
 The electronic state is 1-A1.
 Alpha  occ. eigenvalues --  -99.58620 -29.10883 -11.27480 -10.15174  -9.34903
 Alpha  occ. eigenvalues --   -9.34736  -9.34736  -0.98731  -0.93607  -0.50665
 Alpha  occ. eigenvalues --   -0.46985  -0.46985  -0.25072  -0.21994  -0.21994
 Alpha  occ. eigenvalues --   -0.20570  -0.11044  -0.11044
 Alpha virt. eigenvalues --    0.16167   0.17601   0.17601   0.23489   0.26895
 Alpha virt. eigenvalues --    0.26895   0.29195   0.31828   0.32220   0.32220
 Alpha virt. eigenvalues --    0.38067   0.40679   0.40679   0.44370   0.45307
 Alpha virt. eigenvalues --    0.45307   0.52032   0.52032   0.52756   0.54402
 Alpha virt. eigenvalues --    0.57938   0.57938   0.59840   0.59840   0.63986
 Alpha virt. eigenvalues --    0.65461   0.66665   0.66665   0.70393   0.70393
 Alpha virt. eigenvalues --    0.70522   0.72892   0.78744   0.85228   0.85228
 Alpha virt. eigenvalues --    0.91107   0.91107   0.93481   1.02599   1.02599
 Alpha virt. eigenvalues --    1.09164   1.11044   1.11044   1.14963   1.14963
 Alpha virt. eigenvalues --    1.26859   1.33283   1.33283   1.41682   1.51186
 Alpha virt. eigenvalues --    1.51186   1.53603   1.59267   1.59267   1.69837
 Alpha virt. eigenvalues --    1.78108   1.78108   2.00559   2.05056   2.05056
 Alpha virt. eigenvalues --    2.09075   2.33881   2.38444   2.38444   2.50737
 Alpha virt. eigenvalues --    2.58600   2.58600   2.73260   2.73260   2.75239
 Alpha virt. eigenvalues --    2.97143   3.11915   3.11915   3.48152   3.75983
 Alpha virt. eigenvalues --    3.75983   3.81300   3.81300   3.98655   3.98655
 Alpha virt. eigenvalues --    4.04975   4.80694
          Condensed to atoms (all electrons):
 Mulliken charges:
               1
     1  F    0.135194
     2  C   -4.006804
     3  H    1.293646
     4  H    1.293646
     5  H    1.293646
     6  Cl  -1.009327
 Sum of Mulliken charges =  -1.00000
 Mulliken charges with hydrogens summed into heavy atoms:
               1
     1  F    0.135194
     2  C   -0.125867
     6  Cl  -1.009327
 Electronic spatial extent (au):  <R**2>=            615.8475
 Charge=             -1.0000 electrons
 Dipole moment (field-independent basis, Debye):
    X=             -0.0000    Y=              0.0000    Z=             -8.6764  Tot=              8.6764

 Test job not archived.
 1\1\GINC-SE334\SP\RHF\Aug-CC-pVDZ\C1H3Cl1F1(1-)\OHZDE\09-Apr-2025\0\\#
 t hf aug-cc-pvdz iop(5/13=1,5/36=2,99/5=2) pseudo=read geom=check gues
 s=(read,tcheck) scf=(maxcycle=1)\\title\\-1,1\F,0,0.,0.,-1.88993612\C,
 0,0.,0.,-0.48156273\H,0,-0.51235996,0.88743348,-0.12780247\H,0,-0.5123
 5996,-0.88743348,-0.12780247\H,0,1.02471992,0.,-0.12780247\Cl,0,0.,0.,
 2.75490626\\Version=ES64L-G16RevC.01\State=1-A1\HF=-599.4361142\RMSD=5
 .403e-02\Dipole=0.,0.,-3.4135702\Quadrupole=5.4143151,5.4143151,-10.82
 86302,0.,0.,0.\PG=C03V [C3(F1C1Cl1),3SGV(H1)]\\@


 OLD AGE AND TREACHERY WILL ALWAYS PREVAIL OVER YOUTH AND SKILL.
 Job cpu time:       0 days  0 hours  0 minutes  9.5 seconds.
 Elapsed time:       0 days  0 hours  0 minutes  1.2 seconds.
 File lengths (MBytes):  RWF=      6 Int=      0 D2E=      0 Chk=      2 Scr=      1
 Normal termination of Gaussian 16 at Wed Apr  9 02:12:29 2025.
