 Entering Gaussian System, Link 0=g16
 Input=DCONF_7_-110_mol1.gjf
 Output=DCONF_7_-110_mol1.log
 Initial command:
 /arc/software/Gaussian/g16.c01/l1.exe "/tmp/slurm/4858084/Gau-1830507.inp" -scrdir="/tmp/slurm/4858084/"
 Entering Link 1 = /arc/software/Gaussian/g16.c01/l1.exe PID=   1830571.
  
 Copyright (c) 1988-2019, Gaussian, Inc.  All Rights Reserved.
  
 This is part of the Gaussian(R) 16 program.  It is based on
 the Gaussian(R) 09 system (copyright 2009, Gaussian, Inc.),
 the Gaussian(R) 03 system (copyright 2003, Gaussian, Inc.),
 the Gaussian(R) 98 system (copyright 1998, Gaussian, Inc.),
 the Gaussian(R) 94 system (copyright 1995, Gaussian, Inc.),
 the Gaussian 92(TM) system (copyright 1992, Gaussian, Inc.),
 the Gaussian 90(TM) system (copyright 1990, Gaussian, Inc.),
 the Gaussian 88(TM) system (copyright 1988, Gaussian, Inc.),
 the Gaussian 86(TM) system (copyright 1986, Carnegie Mellon
 University), and the Gaussian 82(TM) system (copyright 1983,
 Carnegie Mellon University). Gaussian is a federally registered
 trademark of Gaussian, Inc.
  
 This software contains proprietary and confidential information,
 including trade secrets, belonging to Gaussian, Inc.
  
 This software is provided under written license and may be
 used, copied, transmitted, or stored only in accord with that
 written license.
  
 The following legend is applicable only to US Government
 contracts under FAR:
  
                    RESTRICTED RIGHTS LEGEND
  
 Use, reproduction and disclosure by the US Government is
 subject to restrictions as set forth in subparagraphs (a)
 and (c) of the Commercial Computer Software - Restricted
 Rights clause in FAR 52.227-19.
  
 Gaussian, Inc.
 340 Quinnipiac St., Bldg. 40, Wallingford CT 06492
  
  
 ---------------------------------------------------------------
 Warning -- This program may not be used in any manner that
 competes with the business of Gaussian, Inc. or will provide
 assistance to any competitor of Gaussian, Inc.  The licensee
 of this program is prohibited from giving any competitor of
 Gaussian, Inc. access to this program.  By using this program,
 the user acknowledges that Gaussian, Inc. is engaged in the
 business of creating and licensing software in the field of
 computational chemistry and represents and warrants to the
 licensee that it is not a competitor of Gaussian, Inc. and that
 it will not use this program in any manner prohibited above.
 ---------------------------------------------------------------
  

 Cite this work as:
 Gaussian 16, Revision C.01,
 M. J. Frisch, G. W. Trucks, H. B. Schlegel, G. E. Scuseria, 
 M. A. Robb, J. R. Cheeseman, G. Scalmani, V. Barone, 
 G. A. Petersson, H. Nakatsuji, X. Li, M. Caricato, A. V. Marenich, 
 J. Bloino, B. G. Janesko, R. Gomperts, B. Mennucci, H. P. Hratchian, 
 J. V. Ortiz, A. F. Izmaylov, J. L. Sonnenberg, D. Williams-Young, 
 F. Ding, F. Lipparini, F. Egidi, J. Goings, B. Peng, A. Petrone, 
 T. Henderson, D. Ranasinghe, V. G. Zakrzewski, J. Gao, N. Rega, 
 G. Zheng, W. Liang, M. Hada, M. Ehara, K. Toyota, R. Fukuda, 
 J. Hasegawa, M. Ishida, T. Nakajima, Y. Honda, O. Kitao, H. Nakai, 
 T. Vreven, K. Throssell, J. A. Montgomery, Jr., J. E. Peralta, 
 F. Ogliaro, M. J. Bearpark, J. J. Heyd, E. N. Brothers, K. N. Kudin, 
 V. N. Staroverov, T. A. Keith, R. Kobayashi, J. Normand, 
 K. Raghavachari, A. P. Rendell, J. C. Burant, S. S. Iyengar, 
 J. Tomasi, M. Cossi, J. M. Millam, M. Klene, C. Adamo, R. Cammi, 
 J. W. Ochterski, R. L. Martin, K. Morokuma, O. Farkas, 
 J. B. Foresman, and D. J. Fox, Gaussian, Inc., Wallingford CT, 2019.
 
 ******************************************
 Gaussian 16:  ES64L-G16RevC.01  3-Jul-2019
                 9-Apr-2025 
 ******************************************
 %nprocs=16
 Will use up to   16 processors via shared memory.
 %mem=30GB
 %chk=DCONF_7_-110_mol1.chk
 ----------------------------------------------------------------------
 #t hf aug-cc-pvdz symm=none int=(grid=ultrafine) guess=(read,tcheck) s
 table=(opt,rrhf)
 ----------------------------------------------------------------------
 -----
 title
 -----
 Symbolic Z-matrix:
 Charge =  0 Multiplicity = 1
 F                     13.2533  -26.4754   0.005 
 C                     14.4019  -25.6749   0.0001 
 H                     14.3527  -25.0381   0.8886 
 H                     14.3381  -25.0481  -0.8928 
 C                     15.656   -26.5502  -0.0015 
 H                     16.3139  -26.2407  -0.8204 
 H                     15.3392  -27.5737  -0.2222 
 C                     16.4263  -26.4957   1.3185 
 H                     16.775   -25.4789   1.5234 
 H                     15.79    -26.8096   2.1517 
 H                     17.3007  -27.1518   1.2942 
 
                    Distance matrix (angstroms):
                    1          2          3          4          5
     1  F    0.000000
     2  C    1.400038   0.000000
     3  H    2.013768   1.094243   0.000000
     4  H    2.004999   1.092803   1.781488   0.000000
     5  C    2.403873   1.529353   2.185707   2.188054   0.000000
     6  H    3.178623   2.156176   2.865874   2.308966   1.095089
     7  H    2.368304   2.129176   2.938763   2.798314   1.093903
     8  C    3.434185   2.551487   2.570842   3.368378   1.529291
     9  H    3.962439   2.826741   2.542600   3.458626   2.173744
    10  H    3.339889   2.800669   2.607578   3.805243   2.172905
    11  H    4.301279   3.501281   3.650061   4.240934   2.178486
                    6          7          8          9         10
     6  H    0.000000
     7  H    1.756352   0.000000
     8  C    2.156978   2.172010   0.000000
     9  H    2.507260   3.081692   1.094284   0.000000
    10  H    3.071074   2.534259   1.094364   1.770804   0.000000
    11  H    2.505077   2.514945   1.093450   1.768470   1.770486
                   11
    11  H    0.000000
 Symmetry turned off by external request.
 Rotational constants (GHZ):          19.1907292           4.0099349           3.9260211
   155 basis functions,   249 primitive gaussians,   163 cartesian basis functions
    17 alpha electrons       17 beta electrons
       nuclear repulsion energy       128.2576241037 Hartrees.
 NAtoms=   11 NActive=   11 NUniq=   11 SFac= 1.00D+00 NAtFMM=   60 NAOKFM=F Big=F
 ExpMin= 2.97D-02 ExpMax= 1.47D+04 ExpMxC= 5.03D+02 IAcc=3 IRadAn=         5 AccDes= 0.00D+00
 Harris functional with IExCor=  205 and IRadAn=       5 diagonalized for initial guess.
 HarFok:  IExCor=  205 AccDes= 0.00D+00 IRadAn=         5 IDoV= 1 UseB2=F ITyADJ=14
 ICtDFT=  3500011 ScaDFX=  1.000000  1.000000  1.000000  1.000000
 FoFCou: FMM=F IPFlag=           0 FMFlag=      100000 FMFlg1=           0
         NFxFlg=           0 DoJE=T BraDBF=F KetDBF=T FulRan=T
         wScrn=  0.000000 ICntrl=       500 IOpCl=  0 I1Cent=   200000004 NGrid=           0
         NMat0=    1 NMatS0=      1 NMatT0=    0 NMatD0=    1 NMtDS0=    0 NMtDT0=    0
 Symmetry not used in FoFCou.
 SCF Done:  E(RHF) =  -217.136757683     A.U. after   12 cycles
            NFock= 12  Conv=0.19D-08     -V/T= 2.0013

 **********************************************************************

            Population analysis using the SCF Density.

 **********************************************************************

 Alpha  occ. eigenvalues --  -26.28136 -11.31256 -11.23692 -11.23016  -1.58091
 Alpha  occ. eigenvalues --   -1.06617  -0.93588  -0.82611  -0.69603  -0.68666
 Alpha  occ. eigenvalues --   -0.65107  -0.60032  -0.57740  -0.54044  -0.49916
 Alpha  occ. eigenvalues --   -0.48437  -0.47910
 Alpha virt. eigenvalues --    0.03564   0.04607   0.04767   0.05578   0.07141
 Alpha virt. eigenvalues --    0.07624   0.07725   0.11115   0.12293   0.14187
 Alpha virt. eigenvalues --    0.15014   0.15778   0.16663   0.17147   0.17439
 Alpha virt. eigenvalues --    0.17994   0.19541   0.21387   0.21964   0.25864
 Alpha virt. eigenvalues --    0.28667   0.29363   0.30158   0.31554   0.33664
 Alpha virt. eigenvalues --    0.35622   0.37139   0.38390   0.38801   0.39434
 Alpha virt. eigenvalues --    0.40034   0.41772   0.43380   0.44625   0.45374
 Alpha virt. eigenvalues --    0.45647   0.47160   0.47909   0.49506   0.49768
 Alpha virt. eigenvalues --    0.53843   0.54527   0.54789   0.56873   0.57865
 Alpha virt. eigenvalues --    0.59022   0.60918   0.61999   0.62261   0.64514
 Alpha virt. eigenvalues --    0.64892   0.65360   0.67602   0.68746   0.70859
 Alpha virt. eigenvalues --    0.71257   0.73735   0.75299   0.76784   0.78263
 Alpha virt. eigenvalues --    0.79588   0.80211   0.80217   0.82421   0.85981
 Alpha virt. eigenvalues --    0.89567   0.92111   0.95001   0.97435   1.02937
 Alpha virt. eigenvalues --    1.05832   1.10386   1.13203   1.13870   1.21141
 Alpha virt. eigenvalues --    1.22816   1.24871   1.30686   1.32503   1.41146
 Alpha virt. eigenvalues --    1.45579   1.46378   1.48020   1.56762   1.57418
 Alpha virt. eigenvalues --    1.61755   1.64822   1.66795   1.76438   1.77584
 Alpha virt. eigenvalues --    1.79094   1.82716   1.84428   1.86103   1.89270
 Alpha virt. eigenvalues --    1.91078   1.95485   1.98013   1.99526   2.00934
 Alpha virt. eigenvalues --    2.02768   2.06592   2.10372   2.13471   2.18456
 Alpha virt. eigenvalues --    2.19228   2.22859   2.25420   2.25587   2.29022
 Alpha virt. eigenvalues --    2.30098   2.35890   2.43058   2.45674   2.46677
 Alpha virt. eigenvalues --    2.52395   2.55325   2.57539   2.60775   2.67627
 Alpha virt. eigenvalues --    2.72197   2.78186   2.83046   2.85557   2.87756
 Alpha virt. eigenvalues --    2.90933   2.95025   3.02123   3.07407   3.11678
 Alpha virt. eigenvalues --    3.18845   3.24271   3.80471   5.03459   5.05069
 Alpha virt. eigenvalues --    5.12939   5.15045   5.17202
          Condensed to atoms (all electrons):
 Mulliken charges:
               1
     1  F   -0.624276
     2  C    0.993353
     3  H   -0.197052
     4  H   -0.174354
     5  C    0.004648
     6  H   -0.073106
     7  H   -0.044610
     8  C    0.322024
     9  H   -0.046097
    10  H   -0.052733
    11  H   -0.107798
 Sum of Mulliken charges =  -0.00000
 Mulliken charges with hydrogens summed into heavy atoms:
               1
     1  F   -0.624276
     2  C    0.621947
     5  C   -0.113068
     8  C    0.115397
 Electronic spatial extent (au):  <R**2>=         111445.9482
 Charge=             -0.0000 electrons
 Dipole moment (field-independent basis, Debye):
    X=              1.9326    Y=              0.9588    Z=              0.0042  Tot=              2.1574
 NROrb=    155 NOA=    17 NOB=    17 NVA=   138 NVB=   138

 **** Warning!!: The largest alpha MO coefficient is  0.33145026D+02

    12 initial guesses have been made.
 Iteration     1 Dimension    12 NMult     0 NNew     12
 Iteration     2 Dimension    24 NMult    12 NNew     12
 Iteration     3 Dimension    27 NMult    24 NNew      3
 Iteration     4 Dimension    30 NMult    27 NNew      3
 Iteration     5 Dimension    33 NMult    30 NNew      3
 Iteration     6 Dimension    36 NMult    33 NNew      3
 Iteration     7 Dimension    39 NMult    36 NNew      3
 ***********************************************************************
 Stability analysis using <AA,BB:AA,BB> singles matrix:
 ***********************************************************************
 Ground to excited state transition densities written to RWF  633

 Eigenvectors of the stability matrix:
 
 Excited state symmetry could not be determined.
 Eigenvector   1:      Singlet-?Sym  Eigenvalue= 0.3630470  <S**2>=0.000
      16 -> 18        -0.17063
      17 -> 18         0.55296
      17 -> 19         0.11820
      17 -> 20         0.11462
      17 -> 30         0.17394
 The wavefunction is stable under the perturbations considered.
 The wavefunction is already stable.

 **********************************************************************

            Population analysis using the SCF Density.

 **********************************************************************

 Alpha  occ. eigenvalues --  -26.28136 -11.31256 -11.23692 -11.23016  -1.58091
 Alpha  occ. eigenvalues --   -1.06617  -0.93588  -0.82611  -0.69603  -0.68666
 Alpha  occ. eigenvalues --   -0.65107  -0.60032  -0.57740  -0.54044  -0.49916
 Alpha  occ. eigenvalues --   -0.48437  -0.47910
 Alpha virt. eigenvalues --    0.03564   0.04607   0.04767   0.05578   0.07141
 Alpha virt. eigenvalues --    0.07624   0.07725   0.11115   0.12293   0.14187
 Alpha virt. eigenvalues --    0.15014   0.15778   0.16663   0.17147   0.17439
 Alpha virt. eigenvalues --    0.17994   0.19541   0.21387   0.21964   0.25864
 Alpha virt. eigenvalues --    0.28667   0.29363   0.30158   0.31554   0.33664
 Alpha virt. eigenvalues --    0.35622   0.37139   0.38390   0.38801   0.39434
 Alpha virt. eigenvalues --    0.40034   0.41772   0.43380   0.44625   0.45374
 Alpha virt. eigenvalues --    0.45647   0.47160   0.47909   0.49506   0.49768
 Alpha virt. eigenvalues --    0.53843   0.54527   0.54789   0.56873   0.57865
 Alpha virt. eigenvalues --    0.59022   0.60918   0.61999   0.62261   0.64514
 Alpha virt. eigenvalues --    0.64892   0.65360   0.67602   0.68746   0.70859
 Alpha virt. eigenvalues --    0.71257   0.73735   0.75299   0.76784   0.78263
 Alpha virt. eigenvalues --    0.79588   0.80211   0.80217   0.82421   0.85981
 Alpha virt. eigenvalues --    0.89567   0.92111   0.95001   0.97435   1.02937
 Alpha virt. eigenvalues --    1.05832   1.10386   1.13203   1.13870   1.21141
 Alpha virt. eigenvalues --    1.22816   1.24871   1.30686   1.32503   1.41146
 Alpha virt. eigenvalues --    1.45579   1.46378   1.48020   1.56762   1.57418
 Alpha virt. eigenvalues --    1.61755   1.64822   1.66795   1.76438   1.77584
 Alpha virt. eigenvalues --    1.79094   1.82716   1.84428   1.86103   1.89270
 Alpha virt. eigenvalues --    1.91078   1.95485   1.98013   1.99526   2.00934
 Alpha virt. eigenvalues --    2.02768   2.06592   2.10372   2.13471   2.18456
 Alpha virt. eigenvalues --    2.19228   2.22859   2.25420   2.25587   2.29022
 Alpha virt. eigenvalues --    2.30098   2.35890   2.43058   2.45674   2.46677
 Alpha virt. eigenvalues --    2.52395   2.55325   2.57539   2.60775   2.67627
 Alpha virt. eigenvalues --    2.72197   2.78186   2.83046   2.85557   2.87756
 Alpha virt. eigenvalues --    2.90933   2.95025   3.02123   3.07407   3.11678
 Alpha virt. eigenvalues --    3.18845   3.24271   3.80471   5.03459   5.05069
 Alpha virt. eigenvalues --    5.12939   5.15045   5.17202
          Condensed to atoms (all electrons):
 Mulliken charges:
               1
     1  F   -0.624276
     2  C    0.993353
     3  H   -0.197052
     4  H   -0.174354
     5  C    0.004648
     6  H   -0.073106
     7  H   -0.044610
     8  C    0.322024
     9  H   -0.046097
    10  H   -0.052733
    11  H   -0.107798
 Sum of Mulliken charges =  -0.00000
 Mulliken charges with hydrogens summed into heavy atoms:
               1
     1  F   -0.624276
     2  C    0.621947
     5  C   -0.113068
     8  C    0.115397
 Electronic spatial extent (au):  <R**2>=         111445.9482
 Charge=             -0.0000 electrons
 Dipole moment (field-independent basis, Debye):
    X=              1.9326    Y=              0.9588    Z=              0.0042  Tot=              2.1574
 Unable to Open any file for archive entry.
 1\1\GINC-SE334\Stability\RHF\Aug-CC-pVDZ\C3H7F1\OHZDE\09-Apr-2025\0\\#
 t hf aug-cc-pvdz symm=none int=(grid=ultrafine) guess=(read,tcheck) st
 able=(opt,rrhf)\\title\\0,1\F,0,13.2533,-26.4754,0.005\C,0,14.4019,-25
 .6749,0.0001\H,0,14.3527,-25.0381,0.8886\H,0,14.3381,-25.0481,-0.8928\
 C,0,15.656,-26.5502,-0.0015\H,0,16.3139,-26.2407,-0.8204\H,0,15.3392,-
 27.5737,-0.2222\C,0,16.4263,-26.4957,1.3185\H,0,16.775,-25.4789,1.5234
 \H,0,15.79,-26.8096,2.1517\H,0,17.3007,-27.1518,1.2942\\Version=ES64L-
 G16RevC.01\HF=-217.1367577\RMSD=1.860e-09\Dipole=0.7603465,0.3772371,0
 .0016601\Quadrupole=38.78844,-37.9172963,-0.8711437,-28.012583,-0.0712
 995,-0.1810048\PG=Unknown\\@
 The archive entry for this job was punched.


 I DO NOT KNOW WHAT I MAY APPEAR TO THE WORLD; BUT TO MYSELF
 I SEEM TO HAVE BEEN ONLY LIKE A BOY PLAYING ON THE SEASHORE,
 AND DIVERTING MYSELF IN NOW AND THEN FINDING A SMOOTHER PEBBLE
 OR A PRETTIER SHELL THAN ORDINARY, WHILST THE GREAT OCEAN OF
 TRUTH LAY ALL UNDISCOVERED BEFORE ME.
                                          -- NEWTON (1642-1726)
 Job cpu time:       0 days  0 hours  0 minutes 47.9 seconds.
 Elapsed time:       0 days  0 hours  0 minutes  5.5 seconds.
 File lengths (MBytes):  RWF=    124 Int=      0 D2E=      0 Chk=      4 Scr=      1
 Normal termination of Gaussian 16 at Wed Apr  9 02:30:10 2025.
 Initial command:
 /arc/software/Gaussian/g16.c01/l1.exe "/tmp/slurm/4858084/Gau-1830507.inp" -scrdir="/tmp/slurm/4858084/"
 Entering Link 1 = /arc/software/Gaussian/g16.c01/l1.exe PID=   1830948.
  
 Copyright (c) 1988-2019, Gaussian, Inc.  All Rights Reserved.
  
 This is part of the Gaussian(R) 16 program.  It is based on
 the Gaussian(R) 09 system (copyright 2009, Gaussian, Inc.),
 the Gaussian(R) 03 system (copyright 2003, Gaussian, Inc.),
 the Gaussian(R) 98 system (copyright 1998, Gaussian, Inc.),
 the Gaussian(R) 94 system (copyright 1995, Gaussian, Inc.),
 the Gaussian 92(TM) system (copyright 1992, Gaussian, Inc.),
 the Gaussian 90(TM) system (copyright 1990, Gaussian, Inc.),
 the Gaussian 88(TM) system (copyright 1988, Gaussian, Inc.),
 the Gaussian 86(TM) system (copyright 1986, Carnegie Mellon
 University), and the Gaussian 82(TM) system (copyright 1983,
 Carnegie Mellon University). Gaussian is a federally registered
 trademark of Gaussian, Inc.
  
 This software contains proprietary and confidential information,
 including trade secrets, belonging to Gaussian, Inc.
  
 This software is provided under written license and may be
 used, copied, transmitted, or stored only in accord with that
 written license.
  
 The following legend is applicable only to US Government
 contracts under FAR:
  
                    RESTRICTED RIGHTS LEGEND
  
 Use, reproduction and disclosure by the US Government is
 subject to restrictions as set forth in subparagraphs (a)
 and (c) of the Commercial Computer Software - Restricted
 Rights clause in FAR 52.227-19.
  
 Gaussian, Inc.
 340 Quinnipiac St., Bldg. 40, Wallingford CT 06492
  
  
 ---------------------------------------------------------------
 Warning -- This program may not be used in any manner that
 competes with the business of Gaussian, Inc. or will provide
 assistance to any competitor of Gaussian, Inc.  The licensee
 of this program is prohibited from giving any competitor of
 Gaussian, Inc. access to this program.  By using this program,
 the user acknowledges that Gaussian, Inc. is engaged in the
 business of creating and licensing software in the field of
 computational chemistry and represents and warrants to the
 licensee that it is not a competitor of Gaussian, Inc. and that
 it will not use this program in any manner prohibited above.
 ---------------------------------------------------------------
  

 Cite this work as:
 Gaussian 16, Revision C.01,
 M. J. Frisch, G. W. Trucks, H. B. Schlegel, G. E. Scuseria, 
 M. A. Robb, J. R. Cheeseman, G. Scalmani, V. Barone, 
 G. A. Petersson, H. Nakatsuji, X. Li, M. Caricato, A. V. Marenich, 
 J. Bloino, B. G. Janesko, R. Gomperts, B. Mennucci, H. P. Hratchian, 
 J. V. Ortiz, A. F. Izmaylov, J. L. Sonnenberg, D. Williams-Young, 
 F. Ding, F. Lipparini, F. Egidi, J. Goings, B. Peng, A. Petrone, 
 T. Henderson, D. Ranasinghe, V. G. Zakrzewski, J. Gao, N. Rega, 
 G. Zheng, W. Liang, M. Hada, M. Ehara, K. Toyota, R. Fukuda, 
 J. Hasegawa, M. Ishida, T. Nakajima, Y. Honda, O. Kitao, H. Nakai, 
 T. Vreven, K. Throssell, J. A. Montgomery, Jr., J. E. Peralta, 
 F. Ogliaro, M. J. Bearpark, J. J. Heyd, E. N. Brothers, K. N. Kudin, 
 V. N. Staroverov, T. A. Keith, R. Kobayashi, J. Normand, 
 K. Raghavachari, A. P. Rendell, J. C. Burant, S. S. Iyengar, 
 J. Tomasi, M. Cossi, J. M. Millam, M. Klene, C. Adamo, R. Cammi, 
 J. W. Ochterski, R. L. Martin, K. Morokuma, O. Farkas, 
 J. B. Foresman, and D. J. Fox, Gaussian, Inc., Wallingford CT, 2019.
 
 ******************************************
 Gaussian 16:  ES64L-G16RevC.01  3-Jul-2019
                 9-Apr-2025 
 ******************************************
 %nprocs=16
 Will use up to   16 processors via shared memory.
 %mem=30GB
 %chk=DCONF_7_-110_mol1.chk
 ----------------------------------------------------------------------
 #t hf aug-cc-pvdz iop(5/13=1,5/36=2,99/5=2) pseudo=read geom=check gue
 ss=(read,tcheck) scf=(maxcycle=1)
 ----------------------------------------------------------------------
 -----
 title
 -----
 Structure from the checkpoint file:  "DCONF_7_-110_mol1.chk"
 Charge =  0 Multiplicity = 1
 Z-Matrix found in chk file.
 F,0,13.2533,-26.4754,0.005
 C,0,14.4019,-25.6749,0.0001
 H,0,14.3527,-25.0381,0.8886
 H,0,14.3381,-25.0481,-0.8928
 C,0,15.656,-26.5502,-0.0015
 H,0,16.3139,-26.2407,-0.8204
 H,0,15.3392,-27.5737,-0.2222
 C,0,16.4263,-26.4957,1.3185
 H,0,16.775,-25.4789,1.5234
 H,0,15.79,-26.8096,2.1517
 H,0,17.3007,-27.1518,1.2942
 Recover connectivity data from disk.
                    Distance matrix (angstroms):
                    1          2          3          4          5
     1  F    0.000000
     2  C    1.400038   0.000000
     3  H    2.013768   1.094243   0.000000
     4  H    2.004999   1.092803   1.781488   0.000000
     5  C    2.403873   1.529353   2.185707   2.188054   0.000000
     6  H    3.178623   2.156176   2.865874   2.308966   1.095089
     7  H    2.368304   2.129176   2.938763   2.798314   1.093903
     8  C    3.434185   2.551487   2.570842   3.368378   1.529291
     9  H    3.962439   2.826741   2.542600   3.458626   2.173744
    10  H    3.339889   2.800669   2.607578   3.805243   2.172905
    11  H    4.301279   3.501281   3.650061   4.240934   2.178486
                    6          7          8          9         10
     6  H    0.000000
     7  H    1.756352   0.000000
     8  C    2.156978   2.172010   0.000000
     9  H    2.507260   3.081692   1.094284   0.000000
    10  H    3.071074   2.534259   1.094364   1.770804   0.000000
    11  H    2.505077   2.514945   1.093450   1.768470   1.770486
                   11
    11  H    0.000000
 Framework group  C1[X(C3H7F)]
 Deg. of freedom    27
                         Standard orientation:                         
 ---------------------------------------------------------------------
 Center     Atomic      Atomic             Coordinates (Angstroms)
 Number     Number       Type             X           Y           Z
 ---------------------------------------------------------------------
      1          9           0       -1.680012   -0.390652   -0.255067
      2          6           0       -0.700084    0.275692    0.490474
      3          1           0       -0.487523   -0.343919    1.366983
      4          1           0       -1.147943    1.217033    0.818373
      5          6           0        0.549906    0.500839   -0.361439
      6          1           0        0.829589    1.558930   -0.323466
      7          1           0        0.280859    0.283648   -1.399256
      8          6           0        1.737659   -0.355644    0.079482
      9          1           0        2.031179   -0.114402    1.105692
     10          1           0        1.483626   -1.419433    0.041348
     11          1           0        2.605439   -0.191311   -0.565176
 ---------------------------------------------------------------------
 Rotational constants (GHZ):          19.1907292           4.0099349           3.9260211
 ======================================================================================================
                                       Pseudopotential Parameters
 ======================================================================================================
  Center     Atomic      Valence      Angular      Power
  Number     Number     Electrons     Momentum     of R      Exponent        Coefficient   SO-Coeffient
 ======================================================================================================
    1          9            9
                                      G and up 
                                                     0        0.0000010       -0.00152163    0.00000000
                                                     2        0.1200000       -0.09043016    0.00000000
                                                     2        0.1400000        0.25628512    0.00000000
                                                     2        0.2000000       -0.31987377    0.00000000
                                                     2        0.3000000        0.48912429    0.00000000
                                                     2        0.4000000        0.12183688    0.00000000
                                                     2        0.6000000       -0.79963093    0.00000000
                                                     2        1.3000000        1.98943307    0.00000000
                                      S - G
                                                     0        0.0000010       -0.05404402    0.00000000
                                                     2        0.1200000        1.31674577    0.00000000
                                                     2        0.2400000       -4.28550771    0.00000000
                                                     2        0.8000000        7.13027769    0.00000000
                                      P - G
                                                     0        0.0000010       -0.03280113    0.00000000
                                                     2        0.1200000       -0.11684768    0.00000000
                                                     2        0.2200000       -0.54710751    0.00000000
                                                     2        0.6000000        1.00412264    0.00000000
                                      D - G
                                                     0        0.0000010       -0.09872413    0.00000000
                                                     2        0.1600000        0.32020158    0.00000000
                                                     2        0.5000000       -3.54424892    0.00000000
                                      F - G
                                                     0        0.0000010        0.17152509    0.00000000
                                                     2        0.1200000       -0.51731546    0.00000000
                                                     2        0.4000000        2.52461867    0.00000000
    2          6            6
                                      G and up 
                                                     0        0.0000010       -0.00286759    0.00000000
                                                     2        0.1200000        0.03193960    0.00000000
                                                     2        0.1600000       -0.04027782    0.00000000
                                                     2        0.2600000        0.24782456    0.00000000
                                                     2        0.4000000       -0.62266671    0.00000000
                                                     2        0.7000000        0.35695227    0.00000000
                                      S - G
                                                     0        0.0000010       -0.06602313    0.00000000
                                                     2        0.1200000        1.47277455    0.00000000
                                                     2        0.1600000       -4.06924166    0.00000000
                                                     2        0.3000000        5.02952802    0.00000000
                                                     2        0.7000000       -5.65856978    0.00000000
                                                     2        1.7000000        8.57604414    0.00000000
                                      P - G
                                                     0        0.0000010        0.49434425    0.00000000
                                                     2        0.1200000       -1.37391547    0.00000000
                                                     2        0.1600000        3.65411806    0.00000000
                                                     2        0.2800000       -7.36479843    0.00000000
                                                     2        0.6000000       17.22091285    0.00000000
                                                     2        1.1000000      -23.50107827    0.00000000
                                                     2        3.0000000       16.29464063    0.00000000
                                      D - G
                                                     0        0.0000010       -0.28693103    0.00000000
                                                     2        0.1200000        0.12273044    0.00000000
                                                     2        0.3000000       -0.43416384    0.00000000
                                                     2        0.7000000        2.23358493    0.00000000
                                      F - G
                                                     0        0.0000010        0.07263570    0.00000000
                                                     2        0.1400000       -0.76152861    0.00000000
                                                     2        0.2200000        1.98045593    0.00000000
                                                     2        0.4000000       -2.42426427    0.00000000
                                                     2        0.7000000        0.52335237    0.00000000
    3          1            1
                                      F and up 
                                                     0        0.0000010        0.00072061    0.00000000
                                                     2        0.1200000        0.03832357    0.00000000
                                                     2        0.1400000       -0.08683256    0.00000000
                                                     2        0.1800000        0.09312970    0.00000000
                                                     2        0.2800000       -0.02532572    0.00000000
                                                     2        0.4000000       -0.09430787    0.00000000
                                                     2        0.7000000        0.42710831    0.00000000
                                                     2        1.2000000       -2.11746981    0.00000000
                                      S - F
                                                     0        0.0000010        0.14449603    0.00000000
                                                     2        0.1200000       -0.56378993    0.00000000
                                                     2        0.1400000        0.63941249    0.00000000
                                                     2        0.2600000       -0.58461015    0.00000000
                                                     2        0.5000000        1.00157293    0.00000000
                                                     2        1.8000000       -0.14135838    0.00000000
                                      P - F
                                                     0        0.0000010       -0.09353646    0.00000000
                                                     2        0.1200000        0.31768975    0.00000000
                                                     2        0.2000000       -0.71747951    0.00000000
                                                     2        0.4000000        0.65752308    0.00000000
                                                     2        1.7000000        2.94052587    0.00000000
                                      D - F
                                                     0        0.0000010       -0.04491202    0.00000000
                                                     2        0.1200000       -0.02862031    0.00000000
                                                     2        0.1800000       -0.21515263    0.00000000
                                                     2        0.3000000        0.80560647    0.00000000
                                                     2        0.4000000        0.47351754    0.00000000
                                                     2        0.7000000       -4.57051794    0.00000000
                                                     2        1.6000000       18.53737826    0.00000000
    4          1            1
                                      F and up 
                                                     0        0.0000010        0.00072061    0.00000000
                                                     2        0.1200000        0.03832357    0.00000000
                                                     2        0.1400000       -0.08683256    0.00000000
                                                     2        0.1800000        0.09312970    0.00000000
                                                     2        0.2800000       -0.02532572    0.00000000
                                                     2        0.4000000       -0.09430787    0.00000000
                                                     2        0.7000000        0.42710831    0.00000000
                                                     2        1.2000000       -2.11746981    0.00000000
                                      S - F
                                                     0        0.0000010        0.14449603    0.00000000
                                                     2        0.1200000       -0.56378993    0.00000000
                                                     2        0.1400000        0.63941249    0.00000000
                                                     2        0.2600000       -0.58461015    0.00000000
                                                     2        0.5000000        1.00157293    0.00000000
                                                     2        1.8000000       -0.14135838    0.00000000
                                      P - F
                                                     0        0.0000010       -0.09353646    0.00000000
                                                     2        0.1200000        0.31768975    0.00000000
                                                     2        0.2000000       -0.71747951    0.00000000
                                                     2        0.4000000        0.65752308    0.00000000
                                                     2        1.7000000        2.94052587    0.00000000
                                      D - F
                                                     0        0.0000010       -0.04491202    0.00000000
                                                     2        0.1200000       -0.02862031    0.00000000
                                                     2        0.1800000       -0.21515263    0.00000000
                                                     2        0.3000000        0.80560647    0.00000000
                                                     2        0.4000000        0.47351754    0.00000000
                                                     2        0.7000000       -4.57051794    0.00000000
                                                     2        1.6000000       18.53737826    0.00000000
    5          6            6
                                      G and up 
                                                     0        0.0000010       -0.00286759    0.00000000
                                                     2        0.1200000        0.03193960    0.00000000
                                                     2        0.1600000       -0.04027782    0.00000000
                                                     2        0.2600000        0.24782456    0.00000000
                                                     2        0.4000000       -0.62266671    0.00000000
                                                     2        0.7000000        0.35695227    0.00000000
                                      S - G
                                                     0        0.0000010       -0.06602313    0.00000000
                                                     2        0.1200000        1.47277455    0.00000000
                                                     2        0.1600000       -4.06924166    0.00000000
                                                     2        0.3000000        5.02952802    0.00000000
                                                     2        0.7000000       -5.65856978    0.00000000
                                                     2        1.7000000        8.57604414    0.00000000
                                      P - G
                                                     0        0.0000010        0.49434425    0.00000000
                                                     2        0.1200000       -1.37391547    0.00000000
                                                     2        0.1600000        3.65411806    0.00000000
                                                     2        0.2800000       -7.36479843    0.00000000
                                                     2        0.6000000       17.22091285    0.00000000
                                                     2        1.1000000      -23.50107827    0.00000000
                                                     2        3.0000000       16.29464063    0.00000000
                                      D - G
                                                     0        0.0000010       -0.28693103    0.00000000
                                                     2        0.1200000        0.12273044    0.00000000
                                                     2        0.3000000       -0.43416384    0.00000000
                                                     2        0.7000000        2.23358493    0.00000000
                                      F - G
                                                     0        0.0000010        0.07263570    0.00000000
                                                     2        0.1400000       -0.76152861    0.00000000
                                                     2        0.2200000        1.98045593    0.00000000
                                                     2        0.4000000       -2.42426427    0.00000000
                                                     2        0.7000000        0.52335237    0.00000000
    6          1            1
                                      F and up 
                                                     0        0.0000010        0.00072061    0.00000000
                                                     2        0.1200000        0.03832357    0.00000000
                                                     2        0.1400000       -0.08683256    0.00000000
                                                     2        0.1800000        0.09312970    0.00000000
                                                     2        0.2800000       -0.02532572    0.00000000
                                                     2        0.4000000       -0.09430787    0.00000000
                                                     2        0.7000000        0.42710831    0.00000000
                                                     2        1.2000000       -2.11746981    0.00000000
                                      S - F
                                                     0        0.0000010        0.14449603    0.00000000
                                                     2        0.1200000       -0.56378993    0.00000000
                                                     2        0.1400000        0.63941249    0.00000000
                                                     2        0.2600000       -0.58461015    0.00000000
                                                     2        0.5000000        1.00157293    0.00000000
                                                     2        1.8000000       -0.14135838    0.00000000
                                      P - F
                                                     0        0.0000010       -0.09353646    0.00000000
                                                     2        0.1200000        0.31768975    0.00000000
                                                     2        0.2000000       -0.71747951    0.00000000
                                                     2        0.4000000        0.65752308    0.00000000
                                                     2        1.7000000        2.94052587    0.00000000
                                      D - F
                                                     0        0.0000010       -0.04491202    0.00000000
                                                     2        0.1200000       -0.02862031    0.00000000
                                                     2        0.1800000       -0.21515263    0.00000000
                                                     2        0.3000000        0.80560647    0.00000000
                                                     2        0.4000000        0.47351754    0.00000000
                                                     2        0.7000000       -4.57051794    0.00000000
                                                     2        1.6000000       18.53737826    0.00000000
    7          1            1
                                      F and up 
                                                     0        0.0000010        0.00072061    0.00000000
                                                     2        0.1200000        0.03832357    0.00000000
                                                     2        0.1400000       -0.08683256    0.00000000
                                                     2        0.1800000        0.09312970    0.00000000
                                                     2        0.2800000       -0.02532572    0.00000000
                                                     2        0.4000000       -0.09430787    0.00000000
                                                     2        0.7000000        0.42710831    0.00000000
                                                     2        1.2000000       -2.11746981    0.00000000
                                      S - F
                                                     0        0.0000010        0.14449603    0.00000000
                                                     2        0.1200000       -0.56378993    0.00000000
                                                     2        0.1400000        0.63941249    0.00000000
                                                     2        0.2600000       -0.58461015    0.00000000
                                                     2        0.5000000        1.00157293    0.00000000
                                                     2        1.8000000       -0.14135838    0.00000000
                                      P - F
                                                     0        0.0000010       -0.09353646    0.00000000
                                                     2        0.1200000        0.31768975    0.00000000
                                                     2        0.2000000       -0.71747951    0.00000000
                                                     2        0.4000000        0.65752308    0.00000000
                                                     2        1.7000000        2.94052587    0.00000000
                                      D - F
                                                     0        0.0000010       -0.04491202    0.00000000
                                                     2        0.1200000       -0.02862031    0.00000000
                                                     2        0.1800000       -0.21515263    0.00000000
                                                     2        0.3000000        0.80560647    0.00000000
                                                     2        0.4000000        0.47351754    0.00000000
                                                     2        0.7000000       -4.57051794    0.00000000
                                                     2        1.6000000       18.53737826    0.00000000
    8          6            6
                                      G and up 
                                                     0        0.0000010       -0.00286759    0.00000000
                                                     2        0.1200000        0.03193960    0.00000000
                                                     2        0.1600000       -0.04027782    0.00000000
                                                     2        0.2600000        0.24782456    0.00000000
                                                     2        0.4000000       -0.62266671    0.00000000
                                                     2        0.7000000        0.35695227    0.00000000
                                      S - G
                                                     0        0.0000010       -0.06602313    0.00000000
                                                     2        0.1200000        1.47277455    0.00000000
                                                     2        0.1600000       -4.06924166    0.00000000
                                                     2        0.3000000        5.02952802    0.00000000
                                                     2        0.7000000       -5.65856978    0.00000000
                                                     2        1.7000000        8.57604414    0.00000000
                                      P - G
                                                     0        0.0000010        0.49434425    0.00000000
                                                     2        0.1200000       -1.37391547    0.00000000
                                                     2        0.1600000        3.65411806    0.00000000
                                                     2        0.2800000       -7.36479843    0.00000000
                                                     2        0.6000000       17.22091285    0.00000000
                                                     2        1.1000000      -23.50107827    0.00000000
                                                     2        3.0000000       16.29464063    0.00000000
                                      D - G
                                                     0        0.0000010       -0.28693103    0.00000000
                                                     2        0.1200000        0.12273044    0.00000000
                                                     2        0.3000000       -0.43416384    0.00000000
                                                     2        0.7000000        2.23358493    0.00000000
                                      F - G
                                                     0        0.0000010        0.07263570    0.00000000
                                                     2        0.1400000       -0.76152861    0.00000000
                                                     2        0.2200000        1.98045593    0.00000000
                                                     2        0.4000000       -2.42426427    0.00000000
                                                     2        0.7000000        0.52335237    0.00000000
    9          1            1
                                      F and up 
                                                     0        0.0000010        0.00072061    0.00000000
                                                     2        0.1200000        0.03832357    0.00000000
                                                     2        0.1400000       -0.08683256    0.00000000
                                                     2        0.1800000        0.09312970    0.00000000
                                                     2        0.2800000       -0.02532572    0.00000000
                                                     2        0.4000000       -0.09430787    0.00000000
                                                     2        0.7000000        0.42710831    0.00000000
                                                     2        1.2000000       -2.11746981    0.00000000
                                      S - F
                                                     0        0.0000010        0.14449603    0.00000000
                                                     2        0.1200000       -0.56378993    0.00000000
                                                     2        0.1400000        0.63941249    0.00000000
                                                     2        0.2600000       -0.58461015    0.00000000
                                                     2        0.5000000        1.00157293    0.00000000
                                                     2        1.8000000       -0.14135838    0.00000000
                                      P - F
                                                     0        0.0000010       -0.09353646    0.00000000
                                                     2        0.1200000        0.31768975    0.00000000
                                                     2        0.2000000       -0.71747951    0.00000000
                                                     2        0.4000000        0.65752308    0.00000000
                                                     2        1.7000000        2.94052587    0.00000000
                                      D - F
                                                     0        0.0000010       -0.04491202    0.00000000
                                                     2        0.1200000       -0.02862031    0.00000000
                                                     2        0.1800000       -0.21515263    0.00000000
                                                     2        0.3000000        0.80560647    0.00000000
                                                     2        0.4000000        0.47351754    0.00000000
                                                     2        0.7000000       -4.57051794    0.00000000
                                                     2        1.6000000       18.53737826    0.00000000
   10          1            1
                                      F and up 
                                                     0        0.0000010        0.00072061    0.00000000
                                                     2        0.1200000        0.03832357    0.00000000
                                                     2        0.1400000       -0.08683256    0.00000000
                                                     2        0.1800000        0.09312970    0.00000000
                                                     2        0.2800000       -0.02532572    0.00000000
                                                     2        0.4000000       -0.09430787    0.00000000
                                                     2        0.7000000        0.42710831    0.00000000
                                                     2        1.2000000       -2.11746981    0.00000000
                                      S - F
                                                     0        0.0000010        0.14449603    0.00000000
                                                     2        0.1200000       -0.56378993    0.00000000
                                                     2        0.1400000        0.63941249    0.00000000
                                                     2        0.2600000       -0.58461015    0.00000000
                                                     2        0.5000000        1.00157293    0.00000000
                                                     2        1.8000000       -0.14135838    0.00000000
                                      P - F
                                                     0        0.0000010       -0.09353646    0.00000000
                                                     2        0.1200000        0.31768975    0.00000000
                                                     2        0.2000000       -0.71747951    0.00000000
                                                     2        0.4000000        0.65752308    0.00000000
                                                     2        1.7000000        2.94052587    0.00000000
                                      D - F
                                                     0        0.0000010       -0.04491202    0.00000000
                                                     2        0.1200000       -0.02862031    0.00000000
                                                     2        0.1800000       -0.21515263    0.00000000
                                                     2        0.3000000        0.80560647    0.00000000
                                                     2        0.4000000        0.47351754    0.00000000
                                                     2        0.7000000       -4.57051794    0.00000000
                                                     2        1.6000000       18.53737826    0.00000000
   11          1            1
                                      F and up 
                                                     0        0.0000010        0.00072061    0.00000000
                                                     2        0.1200000        0.03832357    0.00000000
                                                     2        0.1400000       -0.08683256    0.00000000
                                                     2        0.1800000        0.09312970    0.00000000
                                                     2        0.2800000       -0.02532572    0.00000000
                                                     2        0.4000000       -0.09430787    0.00000000
                                                     2        0.7000000        0.42710831    0.00000000
                                                     2        1.2000000       -2.11746981    0.00000000
                                      S - F
                                                     0        0.0000010        0.14449603    0.00000000
                                                     2        0.1200000       -0.56378993    0.00000000
                                                     2        0.1400000        0.63941249    0.00000000
                                                     2        0.2600000       -0.58461015    0.00000000
                                                     2        0.5000000        1.00157293    0.00000000
                                                     2        1.8000000       -0.14135838    0.00000000
                                      P - F
                                                     0        0.0000010       -0.09353646    0.00000000
                                                     2        0.1200000        0.31768975    0.00000000
                                                     2        0.2000000       -0.71747951    0.00000000
                                                     2        0.4000000        0.65752308    0.00000000
                                                     2        1.7000000        2.94052587    0.00000000
                                      D - F
                                                     0        0.0000010       -0.04491202    0.00000000
                                                     2        0.1200000       -0.02862031    0.00000000
                                                     2        0.1800000       -0.21515263    0.00000000
                                                     2        0.3000000        0.80560647    0.00000000
                                                     2        0.4000000        0.47351754    0.00000000
                                                     2        0.7000000       -4.57051794    0.00000000
                                                     2        1.6000000       18.53737826    0.00000000
 ======================================================================================================
   155 basis functions,   249 primitive gaussians,   163 cartesian basis functions
    17 alpha electrons       17 beta electrons
       nuclear repulsion energy       128.2576241037 Hartrees.
 NAtoms=   11 NActive=   11 NUniq=   11 SFac= 1.00D+00 NAtFMM=   60 NAOKFM=F Big=F
   1 Symmetry operations used in ECPInt.
 ECPInt:  NShTT=    2556 NPrTT=   10212 LenC2=    2556 LenP2D=    8757.
 LDataN:  DoStor=T MaxTD1= 6 Len=  172
 Initial guess from the checkpoint file:  "DCONF_7_-110_mol1.chk"
 B after Tr=   -31.477833    4.088991   47.539011
         Rot=    0.792769   -0.578328   -0.119045   -0.151268 Ang= -75.11 deg.
 >>>>>>>>>> Convergence criterion not met.
 SCF Done:  E(RHF) =  -218.091648772     A.U. after    2 cycles
            NFock=  1  Conv=0.26D+00     -V/T= 2.0550

 **********************************************************************

            Population analysis using the SCF Density.

 **********************************************************************

 Orbital symmetries:
       Occupied  (A) (A) (A) (A) (A) (A) (A) (A) (A) (A) (A) (A)
                 (A) (A) (A) (A) (A)
       Virtual   (A) (A) (A) (A) (A) (A) (A) (A) (A) (A) (A) (A)
                 (A) (A) (A) (A) (A) (A) (A) (A) (A) (A) (A) (A)
                 (A) (A) (A) (A) (A) (A) (A) (A) (A) (A) (A) (A)
                 (A) (A) (A) (A) (A) (A) (A) (A) (A) (A) (A) (A)
                 (A) (A) (A) (A) (A) (A) (A) (A) (A) (A) (A) (A)
                 (A) (A) (A) (A) (A) (A) (A) (A) (A) (A) (A) (A)
                 (A) (A) (A) (A) (A) (A) (A) (A) (A) (A) (A) (A)
                 (A) (A) (A) (A) (A) (A) (A) (A) (A) (A) (A) (A)
                 (A) (A) (A) (A) (A) (A) (A) (A) (A) (A) (A) (A)
                 (A) (A) (A) (A) (A) (A) (A) (A) (A) (A) (A) (A)
                 (A) (A) (A) (A) (A) (A) (A) (A) (A) (A) (A) (A)
                 (A) (A) (A) (A) (A) (A)
 The electronic state is 1-A.
 Alpha  occ. eigenvalues --  -29.23924 -11.45448 -11.39888 -11.35919  -1.24966
 Alpha  occ. eigenvalues --   -1.05573  -0.87597  -0.69141  -0.65732  -0.59147
 Alpha  occ. eigenvalues --   -0.57921  -0.50510  -0.48210  -0.47557  -0.35510
 Alpha  occ. eigenvalues --   -0.23994  -0.23462
 Alpha virt. eigenvalues --    0.03968   0.05454   0.05703   0.06456   0.06633
 Alpha virt. eigenvalues --    0.06869   0.06937   0.11837   0.12483   0.14206
 Alpha virt. eigenvalues --    0.14669   0.15633   0.15949   0.17449   0.18102
 Alpha virt. eigenvalues --    0.18702   0.19547   0.21043   0.23389   0.26108
 Alpha virt. eigenvalues --    0.28505   0.29447   0.30791   0.32823   0.33065
 Alpha virt. eigenvalues --    0.35547   0.37268   0.38174   0.38736   0.39447
 Alpha virt. eigenvalues --    0.39828   0.41817   0.43051   0.45147   0.45752
 Alpha virt. eigenvalues --    0.46420   0.47655   0.48201   0.48993   0.49556
 Alpha virt. eigenvalues --    0.52378   0.53840   0.56354   0.56748   0.58954
 Alpha virt. eigenvalues --    0.59536   0.60676   0.62348   0.63870   0.64165
 Alpha virt. eigenvalues --    0.66358   0.66806   0.67454   0.68423   0.70957
 Alpha virt. eigenvalues --    0.72403   0.74472   0.76151   0.76423   0.78556
 Alpha virt. eigenvalues --    0.79456   0.80848   0.81553   0.81979   0.85512
 Alpha virt. eigenvalues --    0.86905   0.92370   0.93537   0.99776   1.01121
 Alpha virt. eigenvalues --    1.01931   1.07103   1.09113   1.12206   1.17540
 Alpha virt. eigenvalues --    1.24996   1.28452   1.30915   1.36989   1.38826
 Alpha virt. eigenvalues --    1.39621   1.53625   1.59075   1.63707   1.69760
 Alpha virt. eigenvalues --    1.71752   1.77003   1.80462   1.93204   1.93733
 Alpha virt. eigenvalues --    1.96712   1.98172   2.00562   2.01179   2.02127
 Alpha virt. eigenvalues --    2.07380   2.11682   2.13083   2.16926   2.22363
 Alpha virt. eigenvalues --    2.23918   2.27931   2.31004   2.37042   2.44112
 Alpha virt. eigenvalues --    2.47358   2.49759   2.53213   2.57409   2.59760
 Alpha virt. eigenvalues --    2.61767   2.63599   2.67061   2.69911   2.72103
 Alpha virt. eigenvalues --    2.77342   2.82357   2.89101   2.91483   2.98053
 Alpha virt. eigenvalues --    2.98841   3.06354   3.14648   3.17467   3.26864
 Alpha virt. eigenvalues --    3.30516   3.43082   3.51888   3.54251   3.70261
 Alpha virt. eigenvalues --    3.74704   3.77494   3.78849   3.88395   3.93832
 Alpha virt. eigenvalues --    3.95670   4.04601   4.90921
          Condensed to atoms (all electrons):
 Mulliken charges:
               1
     1  F    0.224008
     2  C   -2.727464
     3  H    1.532752
     4  H    1.407005
     5  C   -2.998921
     6  H    1.249650
     7  H    1.400066
     8  C   -3.757837
     9  H    1.253738
    10  H    1.254368
    11  H    1.162635
 Sum of Mulliken charges =  -0.00000
 Mulliken charges with hydrogens summed into heavy atoms:
               1
     1  F    0.224008
     2  C    0.212293
     5  C   -0.349205
     8  C   -0.087096
 Electronic spatial extent (au):  <R**2>=            374.6046
 Charge=              0.0000 electrons
 Dipole moment (field-independent basis, Debye):
    X=             -0.4263    Y=             -0.3289    Z=             -0.4531  Tot=              0.7037

 Test job not archived.
 1\1\GINC-SE334\SP\RHF\Aug-CC-pVDZ\C3H7F1\OHZDE\09-Apr-2025\0\\#t hf au
 g-cc-pvdz iop(5/13=1,5/36=2,99/5=2) pseudo=read geom=check guess=(read
 ,tcheck) scf=(maxcycle=1)\\title\\0,1\F,0,13.2533,-26.4754,0.005\C,0,1
 4.4019,-25.6749,0.0001\H,0,14.3527,-25.0381,0.8886\H,0,14.3381,-25.048
 1,-0.8928\C,0,15.656,-26.5502,-0.0015\H,0,16.3139,-26.2407,-0.8204\H,0
 ,15.3392,-27.5737,-0.2222\C,0,16.4263,-26.4957,1.3185\H,0,16.775,-25.4
 789,1.5234\H,0,15.79,-26.8096,2.1517\H,0,17.3007,-27.1518,1.2942\\Vers
 ion=ES64L-G16RevC.01\State=1-A\HF=-218.0916488\RMSD=2.615e-01\Dipole=-
 0.2016765,-0.1896692,-0.0009804\Quadrupole=0.3151679,-0.1528711,-0.162
 2968,0.1022217,-0.079239,0.0319017\PG=C01 [X(C3H7F1)]\\@


 SUCCESS-- IF YOU HAVE TRIED TO DO SOMETHING AND FAILED
           YOU ARE BETTER OFF THAN IF YOU HAD TRIED TO DO
           NOTHING AND SUCCEEDED.

                   -- FROM THE BACK OF A SUGAR PACKET
 Job cpu time:       0 days  0 hours  0 minutes 22.0 seconds.
 Elapsed time:       0 days  0 hours  0 minutes  2.2 seconds.
 File lengths (MBytes):  RWF=      6 Int=      0 D2E=      0 Chk=      4 Scr=      1
 Normal termination of Gaussian 16 at Wed Apr  9 02:30:12 2025.
