 Entering Gaussian System, Link 0=g16
 Input=DCONF_8_40_mol1.gjf
 Output=DCONF_8_40_mol1.log
 Initial command:
 /arc/software/Gaussian/g16.c01/l1.exe "/tmp/slurm/4858137/Gau-675633.inp" -scrdir="/tmp/slurm/4858137/"
 Entering Link 1 = /arc/software/Gaussian/g16.c01/l1.exe PID=    675634.
  
 Copyright (c) 1988-2019, Gaussian, Inc.  All Rights Reserved.
  
 This is part of the Gaussian(R) 16 program.  It is based on
 the Gaussian(R) 09 system (copyright 2009, Gaussian, Inc.),
 the Gaussian(R) 03 system (copyright 2003, Gaussian, Inc.),
 the Gaussian(R) 98 system (copyright 1998, Gaussian, Inc.),
 the Gaussian(R) 94 system (copyright 1995, Gaussian, Inc.),
 the Gaussian 92(TM) system (copyright 1992, Gaussian, Inc.),
 the Gaussian 90(TM) system (copyright 1990, Gaussian, Inc.),
 the Gaussian 88(TM) system (copyright 1988, Gaussian, Inc.),
 the Gaussian 86(TM) system (copyright 1986, Carnegie Mellon
 University), and the Gaussian 82(TM) system (copyright 1983,
 Carnegie Mellon University). Gaussian is a federally registered
 trademark of Gaussian, Inc.
  
 This software contains proprietary and confidential information,
 including trade secrets, belonging to Gaussian, Inc.
  
 This software is provided under written license and may be
 used, copied, transmitted, or stored only in accord with that
 written license.
  
 The following legend is applicable only to US Government
 contracts under FAR:
  
                    RESTRICTED RIGHTS LEGEND
  
 Use, reproduction and disclosure by the US Government is
 subject to restrictions as set forth in subparagraphs (a)
 and (c) of the Commercial Computer Software - Restricted
 Rights clause in FAR 52.227-19.
  
 Gaussian, Inc.
 340 Quinnipiac St., Bldg. 40, Wallingford CT 06492
  
  
 ---------------------------------------------------------------
 Warning -- This program may not be used in any manner that
 competes with the business of Gaussian, Inc. or will provide
 assistance to any competitor of Gaussian, Inc.  The licensee
 of this program is prohibited from giving any competitor of
 Gaussian, Inc. access to this program.  By using this program,
 the user acknowledges that Gaussian, Inc. is engaged in the
 business of creating and licensing software in the field of
 computational chemistry and represents and warrants to the
 licensee that it is not a competitor of Gaussian, Inc. and that
 it will not use this program in any manner prohibited above.
 ---------------------------------------------------------------
  

 Cite this work as:
 Gaussian 16, Revision C.01,
 M. J. Frisch, G. W. Trucks, H. B. Schlegel, G. E. Scuseria, 
 M. A. Robb, J. R. Cheeseman, G. Scalmani, V. Barone, 
 G. A. Petersson, H. Nakatsuji, X. Li, M. Caricato, A. V. Marenich, 
 J. Bloino, B. G. Janesko, R. Gomperts, B. Mennucci, H. P. Hratchian, 
 J. V. Ortiz, A. F. Izmaylov, J. L. Sonnenberg, D. Williams-Young, 
 F. Ding, F. Lipparini, F. Egidi, J. Goings, B. Peng, A. Petrone, 
 T. Henderson, D. Ranasinghe, V. G. Zakrzewski, J. Gao, N. Rega, 
 G. Zheng, W. Liang, M. Hada, M. Ehara, K. Toyota, R. Fukuda, 
 J. Hasegawa, M. Ishida, T. Nakajima, Y. Honda, O. Kitao, H. Nakai, 
 T. Vreven, K. Throssell, J. A. Montgomery, Jr., J. E. Peralta, 
 F. Ogliaro, M. J. Bearpark, J. J. Heyd, E. N. Brothers, K. N. Kudin, 
 V. N. Staroverov, T. A. Keith, R. Kobayashi, J. Normand, 
 K. Raghavachari, A. P. Rendell, J. C. Burant, S. S. Iyengar, 
 J. Tomasi, M. Cossi, J. M. Millam, M. Klene, C. Adamo, R. Cammi, 
 J. W. Ochterski, R. L. Martin, K. Morokuma, O. Farkas, 
 J. B. Foresman, and D. J. Fox, Gaussian, Inc., Wallingford CT, 2019.
 
 ******************************************
 Gaussian 16:  ES64L-G16RevC.01  3-Jul-2019
                 9-Apr-2025 
 ******************************************
 %nprocs=16
 Will use up to   16 processors via shared memory.
 %mem=30GB
 %chk=DCONF_8_40_mol1.chk
 ----------------------------------------------------------------------
 #t hf aug-cc-pvdz symm=none int=(grid=ultrafine) guess=(read,tcheck) s
 table=(opt,rrhf)
 ----------------------------------------------------------------------
 -----
 title
 -----
 Symbolic Z-matrix:
 Charge =  0 Multiplicity = 1
 C                     0.0266   -0.035    -0.006 
 H                     0.0445   -0.6356    0.912 
 H                     0.0068   -0.739    -0.8476 
 C                    -1.2388    0.8241    0.0007 
 H                    -1.2188    1.4804    0.8743 
 H                    -1.2422    1.4762   -0.8818 
 C                    -2.5057   -0.0311    0.0158 
 H                    -2.5242   -0.68      0.8976 
 H                    -3.4044    0.5918    0.0375 
 H                    -2.5584   -0.6696   -0.8722 
 C                     1.3087    0.7771   -0.1056 
 H                     2.1813    0.2119    0.2314 
 H                     1.4732    1.1166   -1.1334 
 F                     1.2202    1.9318    0.6781 
 
                    Distance matrix (angstroms):
                    1          2          3          4          5
     1  C    0.000000
     2  H    1.097162   0.000000
     3  H    1.097405   1.763039   0.000000
     4  C    1.529488   2.146637   2.171270   0.000000
     5  H    2.149974   2.464712   3.064763   1.092843   0.000000
     6  H    2.158843   3.054998   2.543282   1.097293   1.756261
     7  C    2.532397   2.769858   2.749407   1.528604   2.162814
     8  H    2.781924   2.569124   3.074925   2.172326   2.524270
     9  H    3.488056   3.763798   3.767057   2.178334   2.503336
    10  H    2.799151   3.155886   2.566257   2.175876   3.076896
    11  C    1.520923   2.151612   2.131682   2.550150   2.800552
    12  H    2.181754   2.397371   2.607087   3.482111   3.685525
    13  H    2.165610   3.048778   2.382281   2.954096   3.377880
    14  F    2.400203   2.833465   3.306550   2.780746   2.488167
                    6          7          8          9         10
     6  H    0.000000
     7  C    2.161960   0.000000
     8  H    3.075547   1.094982   0.000000
     9  H    2.510455   1.093680   1.769746   0.000000
    10  H    2.517326   1.094990   1.770161   1.770424   0.000000
    11  C    2.756505   3.900971   4.221454   4.718911   4.199414
    12  H    3.815497   4.698244   4.835394   5.601961   4.945678
    13  H    2.750638   4.297618   4.830315   5.043551   4.417299
    14  F    2.950301   4.263091   4.570581   4.857252   4.842368
                   11         12         13         14
    11  C    0.000000
    12  H    1.092909   0.000000
    13  H    1.094849   1.783975   0.000000
    14  F    1.398338   2.020225   2.002521   0.000000
 Symmetry turned off by external request.
 Rotational constants (GHZ):          12.1724738           2.4498858           2.1848487
   196 basis functions,   314 primitive gaussians,   206 cartesian basis functions
    21 alpha electrons       21 beta electrons
       nuclear repulsion energy       186.4488311104 Hartrees.
 NAtoms=   14 NActive=   14 NUniq=   14 SFac= 1.00D+00 NAtFMM=   60 NAOKFM=F Big=F
 ExpMin= 2.97D-02 ExpMax= 1.47D+04 ExpMxC= 5.03D+02 IAcc=3 IRadAn=         5 AccDes= 0.00D+00
 Harris functional with IExCor=  205 and IRadAn=       5 diagonalized for initial guess.
 HarFok:  IExCor=  205 AccDes= 0.00D+00 IRadAn=         5 IDoV= 1 UseB2=F ITyADJ=14
 ICtDFT=  3500011 ScaDFX=  1.000000  1.000000  1.000000  1.000000
 FoFCou: FMM=F IPFlag=           0 FMFlag=      100000 FMFlg1=           0
         NFxFlg=           0 DoJE=T BraDBF=F KetDBF=T FulRan=T
         wScrn=  0.000000 ICntrl=       500 IOpCl=  0 I1Cent=   200000004 NGrid=           0
         NMat0=    1 NMatS0=      1 NMatT0=    0 NMatD0=    1 NMtDS0=    0 NMtDT0=    0
 Symmetry not used in FoFCou.
 SCF Done:  E(RHF) =  -256.178794476     A.U. after   12 cycles
            NFock= 12  Conv=0.38D-08     -V/T= 2.0012

 **********************************************************************

            Population analysis using the SCF Density.

 **********************************************************************

 Alpha  occ. eigenvalues --  -26.28219 -11.31248 -11.23473 -11.22668 -11.22173
 Alpha  occ. eigenvalues --   -1.58250  -1.07979  -0.98951  -0.87563  -0.79830
 Alpha  occ. eigenvalues --   -0.69777  -0.68769  -0.65483  -0.62527  -0.57361
 Alpha  occ. eigenvalues --   -0.55428  -0.53734  -0.50568  -0.48069  -0.46955
 Alpha  occ. eigenvalues --   -0.46524
 Alpha virt. eigenvalues --    0.03615   0.04349   0.04666   0.05221   0.06586
 Alpha virt. eigenvalues --    0.06857   0.07301   0.07992   0.09561   0.11599
 Alpha virt. eigenvalues --    0.12693   0.13304   0.14791   0.16333   0.16540
 Alpha virt. eigenvalues --    0.17030   0.17294   0.17547   0.18291   0.18961
 Alpha virt. eigenvalues --    0.20330   0.20527   0.22728   0.23484   0.23912
 Alpha virt. eigenvalues --    0.27327   0.29773   0.30121   0.31068   0.31589
 Alpha virt. eigenvalues --    0.32544   0.35079   0.35790   0.36119   0.38511
 Alpha virt. eigenvalues --    0.38698   0.39154   0.41510   0.42213   0.43341
 Alpha virt. eigenvalues --    0.44589   0.45194   0.46195   0.46935   0.47473
 Alpha virt. eigenvalues --    0.47868   0.48508   0.48725   0.49478   0.51051
 Alpha virt. eigenvalues --    0.52178   0.52964   0.54517   0.55637   0.56675
 Alpha virt. eigenvalues --    0.57666   0.58812   0.60393   0.60964   0.61285
 Alpha virt. eigenvalues --    0.61906   0.64218   0.64380   0.66151   0.67244
 Alpha virt. eigenvalues --    0.67463   0.69213   0.70372   0.70526   0.72175
 Alpha virt. eigenvalues --    0.74669   0.75583   0.76914   0.77796   0.79024
 Alpha virt. eigenvalues --    0.80491   0.81165   0.82817   0.84573   0.85354
 Alpha virt. eigenvalues --    0.86760   0.87748   0.89446   0.89757   0.92859
 Alpha virt. eigenvalues --    0.93992   0.95639   0.99292   0.99667   1.07979
 Alpha virt. eigenvalues --    1.08905   1.11401   1.14479   1.15894   1.20872
 Alpha virt. eigenvalues --    1.22498   1.25245   1.26845   1.29493   1.32713
 Alpha virt. eigenvalues --    1.37018   1.43647   1.45712   1.48613   1.50593
 Alpha virt. eigenvalues --    1.51710   1.56672   1.58617   1.61882   1.63376
 Alpha virt. eigenvalues --    1.66395   1.67345   1.74880   1.78633   1.80947
 Alpha virt. eigenvalues --    1.81320   1.84542   1.86191   1.87603   1.89264
 Alpha virt. eigenvalues --    1.90862   1.92596   1.95784   1.99210   1.99645
 Alpha virt. eigenvalues --    2.02548   2.05041   2.07848   2.09457   2.11241
 Alpha virt. eigenvalues --    2.12120   2.15411   2.17947   2.19341   2.21399
 Alpha virt. eigenvalues --    2.23384   2.25013   2.27380   2.29344   2.31840
 Alpha virt. eigenvalues --    2.32932   2.36696   2.37975   2.42354   2.45572
 Alpha virt. eigenvalues --    2.46580   2.51139   2.53303   2.57677   2.61284
 Alpha virt. eigenvalues --    2.65386   2.69594   2.71057   2.73839   2.78059
 Alpha virt. eigenvalues --    2.81436   2.84344   2.86520   2.88468   2.92327
 Alpha virt. eigenvalues --    2.96433   2.98799   3.05375   3.07640   3.12037
 Alpha virt. eigenvalues --    3.15502   3.16445   3.25055   3.35341   3.78384
 Alpha virt. eigenvalues --    5.04989   5.08284   5.12781   5.16733   5.18217
          Condensed to atoms (all electrons):
 Mulliken charges:
               1
     1  C   -0.008019
     2  H   -0.172953
     3  H   -0.090104
     4  C    0.169993
     5  H   -0.119476
     6  H   -0.157807
     7  C    0.391058
     8  H   -0.056227
     9  H   -0.067852
    10  H   -0.077457
    11  C    1.077035
    12  H   -0.109162
    13  H   -0.143231
    14  F   -0.635799
 Sum of Mulliken charges =  -0.00000
 Mulliken charges with hydrogens summed into heavy atoms:
               1
     1  C   -0.271075
     4  C   -0.107290
     7  C    0.189523
    11  C    0.824642
    14  F   -0.635799
 Electronic spatial extent (au):  <R**2>=            662.6443
 Charge=             -0.0000 electrons
 Dipole moment (field-independent basis, Debye):
    X=             -0.1442    Y=             -1.6515    Z=             -1.0571  Tot=              1.9661
 NROrb=    196 NOA=    21 NOB=    21 NVA=   175 NVB=   175

 **** Warning!!: The largest alpha MO coefficient is  0.58411199D+02

    12 initial guesses have been made.
 Iteration     1 Dimension    12 NMult     0 NNew     12
 Iteration     2 Dimension    24 NMult    12 NNew     12
 Iteration     3 Dimension    27 NMult    24 NNew      3
 Iteration     4 Dimension    30 NMult    27 NNew      3
 Iteration     5 Dimension    33 NMult    30 NNew      3
 Iteration     6 Dimension    36 NMult    33 NNew      3
 Iteration     7 Dimension    39 NMult    36 NNew      3
 Iteration     8 Dimension    42 NMult    39 NNew      3
 Iteration     9 Dimension    45 NMult    42 NNew      3
 ***********************************************************************
 Stability analysis using <AA,BB:AA,BB> singles matrix:
 ***********************************************************************
 Ground to excited state transition densities written to RWF  633

 Eigenvectors of the stability matrix:
 
 Excited state symmetry could not be determined.
 Eigenvector   1:      Singlet-?Sym  Eigenvalue= 0.3568341  <S**2>=0.000
      18 -> 23        -0.13457
      20 -> 22         0.18150
      21 -> 22         0.54632
      21 -> 27        -0.14617
      21 -> 36        -0.10245
      21 -> 38         0.14184
 The wavefunction is stable under the perturbations considered.
 The wavefunction is already stable.

 **********************************************************************

            Population analysis using the SCF Density.

 **********************************************************************

 Alpha  occ. eigenvalues --  -26.28219 -11.31248 -11.23473 -11.22668 -11.22173
 Alpha  occ. eigenvalues --   -1.58250  -1.07979  -0.98951  -0.87563  -0.79830
 Alpha  occ. eigenvalues --   -0.69777  -0.68769  -0.65483  -0.62527  -0.57361
 Alpha  occ. eigenvalues --   -0.55428  -0.53734  -0.50568  -0.48069  -0.46955
 Alpha  occ. eigenvalues --   -0.46524
 Alpha virt. eigenvalues --    0.03615   0.04349   0.04666   0.05221   0.06586
 Alpha virt. eigenvalues --    0.06857   0.07301   0.07992   0.09561   0.11599
 Alpha virt. eigenvalues --    0.12693   0.13304   0.14791   0.16333   0.16540
 Alpha virt. eigenvalues --    0.17030   0.17294   0.17547   0.18291   0.18961
 Alpha virt. eigenvalues --    0.20330   0.20527   0.22728   0.23484   0.23912
 Alpha virt. eigenvalues --    0.27327   0.29773   0.30121   0.31068   0.31589
 Alpha virt. eigenvalues --    0.32544   0.35079   0.35790   0.36119   0.38511
 Alpha virt. eigenvalues --    0.38698   0.39154   0.41510   0.42213   0.43341
 Alpha virt. eigenvalues --    0.44589   0.45194   0.46195   0.46935   0.47473
 Alpha virt. eigenvalues --    0.47868   0.48508   0.48725   0.49478   0.51051
 Alpha virt. eigenvalues --    0.52178   0.52964   0.54517   0.55637   0.56675
 Alpha virt. eigenvalues --    0.57666   0.58812   0.60393   0.60964   0.61285
 Alpha virt. eigenvalues --    0.61906   0.64218   0.64380   0.66151   0.67244
 Alpha virt. eigenvalues --    0.67463   0.69213   0.70372   0.70526   0.72175
 Alpha virt. eigenvalues --    0.74669   0.75583   0.76914   0.77796   0.79024
 Alpha virt. eigenvalues --    0.80491   0.81165   0.82817   0.84573   0.85354
 Alpha virt. eigenvalues --    0.86760   0.87748   0.89446   0.89757   0.92859
 Alpha virt. eigenvalues --    0.93992   0.95639   0.99292   0.99667   1.07979
 Alpha virt. eigenvalues --    1.08905   1.11401   1.14479   1.15894   1.20872
 Alpha virt. eigenvalues --    1.22498   1.25245   1.26845   1.29493   1.32713
 Alpha virt. eigenvalues --    1.37018   1.43647   1.45712   1.48613   1.50593
 Alpha virt. eigenvalues --    1.51710   1.56672   1.58617   1.61882   1.63376
 Alpha virt. eigenvalues --    1.66395   1.67345   1.74880   1.78633   1.80947
 Alpha virt. eigenvalues --    1.81320   1.84542   1.86191   1.87603   1.89264
 Alpha virt. eigenvalues --    1.90862   1.92596   1.95784   1.99210   1.99645
 Alpha virt. eigenvalues --    2.02548   2.05041   2.07848   2.09457   2.11241
 Alpha virt. eigenvalues --    2.12120   2.15411   2.17947   2.19341   2.21399
 Alpha virt. eigenvalues --    2.23384   2.25013   2.27380   2.29344   2.31840
 Alpha virt. eigenvalues --    2.32932   2.36696   2.37975   2.42354   2.45572
 Alpha virt. eigenvalues --    2.46580   2.51139   2.53303   2.57677   2.61284
 Alpha virt. eigenvalues --    2.65386   2.69594   2.71057   2.73839   2.78059
 Alpha virt. eigenvalues --    2.81436   2.84344   2.86520   2.88468   2.92327
 Alpha virt. eigenvalues --    2.96433   2.98799   3.05375   3.07640   3.12037
 Alpha virt. eigenvalues --    3.15502   3.16445   3.25055   3.35341   3.78384
 Alpha virt. eigenvalues --    5.04989   5.08284   5.12781   5.16733   5.18217
          Condensed to atoms (all electrons):
 Mulliken charges:
               1
     1  C   -0.008019
     2  H   -0.172953
     3  H   -0.090104
     4  C    0.169993
     5  H   -0.119476
     6  H   -0.157807
     7  C    0.391058
     8  H   -0.056227
     9  H   -0.067852
    10  H   -0.077457
    11  C    1.077035
    12  H   -0.109162
    13  H   -0.143231
    14  F   -0.635799
 Sum of Mulliken charges =  -0.00000
 Mulliken charges with hydrogens summed into heavy atoms:
               1
     1  C   -0.271075
     4  C   -0.107290
     7  C    0.189523
    11  C    0.824642
    14  F   -0.635799
 Electronic spatial extent (au):  <R**2>=            662.6443
 Charge=             -0.0000 electrons
 Dipole moment (field-independent basis, Debye):
    X=             -0.1442    Y=             -1.6515    Z=             -1.0571  Tot=              1.9661
 Unable to Open any file for archive entry.
 1\1\GINC-SE074\Stability\RHF\Aug-CC-pVDZ\C4H9F1\OHZDE\09-Apr-2025\0\\#
 t hf aug-cc-pvdz symm=none int=(grid=ultrafine) guess=(read,tcheck) st
 able=(opt,rrhf)\\title\\0,1\C,0,0.0266,-0.035,-0.006\H,0,0.0445,-0.635
 6,0.912\H,0,0.0068,-0.739,-0.8476\C,0,-1.2388,0.8241,0.0007\H,0,-1.218
 8,1.4804,0.8743\H,0,-1.2422,1.4762,-0.8818\C,0,-2.5057,-0.0311,0.0158\
 H,0,-2.5242,-0.68,0.8976\H,0,-3.4044,0.5918,0.0375\H,0,-2.5584,-0.6696
 ,-0.8722\C,0,1.3087,0.7771,-0.1056\H,0,2.1813,0.2119,0.2314\H,0,1.4732
 ,1.1166,-1.1334\F,0,1.2202,1.9318,0.6781\\Version=ES64L-G16RevC.01\HF=
 -256.1787945\RMSD=3.806e-09\Dipole=-0.0567432,-0.6497357,-0.4158994\Qu
 adrupole=1.2061617,-2.4188701,1.2127083,-2.0250944,-1.088151,-1.672046
 9\PG=Unknown\\@
 The archive entry for this job was punched.


 Change starts when someone sees the next step.
                            -- William Drayton
 Job cpu time:       0 days  0 hours  3 minutes 57.9 seconds.
 Elapsed time:       0 days  0 hours  0 minutes 17.8 seconds.
 File lengths (MBytes):  RWF=    175 Int=      0 D2E=      0 Chk=      6 Scr=      1
 Normal termination of Gaussian 16 at Wed Apr  9 02:31:24 2025.
 Initial command:
 /arc/software/Gaussian/g16.c01/l1.exe "/tmp/slurm/4858137/Gau-675633.inp" -scrdir="/tmp/slurm/4858137/"
 Entering Link 1 = /arc/software/Gaussian/g16.c01/l1.exe PID=    675847.
  
 Copyright (c) 1988-2019, Gaussian, Inc.  All Rights Reserved.
  
 This is part of the Gaussian(R) 16 program.  It is based on
 the Gaussian(R) 09 system (copyright 2009, Gaussian, Inc.),
 the Gaussian(R) 03 system (copyright 2003, Gaussian, Inc.),
 the Gaussian(R) 98 system (copyright 1998, Gaussian, Inc.),
 the Gaussian(R) 94 system (copyright 1995, Gaussian, Inc.),
 the Gaussian 92(TM) system (copyright 1992, Gaussian, Inc.),
 the Gaussian 90(TM) system (copyright 1990, Gaussian, Inc.),
 the Gaussian 88(TM) system (copyright 1988, Gaussian, Inc.),
 the Gaussian 86(TM) system (copyright 1986, Carnegie Mellon
 University), and the Gaussian 82(TM) system (copyright 1983,
 Carnegie Mellon University). Gaussian is a federally registered
 trademark of Gaussian, Inc.
  
 This software contains proprietary and confidential information,
 including trade secrets, belonging to Gaussian, Inc.
  
 This software is provided under written license and may be
 used, copied, transmitted, or stored only in accord with that
 written license.
  
 The following legend is applicable only to US Government
 contracts under FAR:
  
                    RESTRICTED RIGHTS LEGEND
  
 Use, reproduction and disclosure by the US Government is
 subject to restrictions as set forth in subparagraphs (a)
 and (c) of the Commercial Computer Software - Restricted
 Rights clause in FAR 52.227-19.
  
 Gaussian, Inc.
 340 Quinnipiac St., Bldg. 40, Wallingford CT 06492
  
  
 ---------------------------------------------------------------
 Warning -- This program may not be used in any manner that
 competes with the business of Gaussian, Inc. or will provide
 assistance to any competitor of Gaussian, Inc.  The licensee
 of this program is prohibited from giving any competitor of
 Gaussian, Inc. access to this program.  By using this program,
 the user acknowledges that Gaussian, Inc. is engaged in the
 business of creating and licensing software in the field of
 computational chemistry and represents and warrants to the
 licensee that it is not a competitor of Gaussian, Inc. and that
 it will not use this program in any manner prohibited above.
 ---------------------------------------------------------------
  

 Cite this work as:
 Gaussian 16, Revision C.01,
 M. J. Frisch, G. W. Trucks, H. B. Schlegel, G. E. Scuseria, 
 M. A. Robb, J. R. Cheeseman, G. Scalmani, V. Barone, 
 G. A. Petersson, H. Nakatsuji, X. Li, M. Caricato, A. V. Marenich, 
 J. Bloino, B. G. Janesko, R. Gomperts, B. Mennucci, H. P. Hratchian, 
 J. V. Ortiz, A. F. Izmaylov, J. L. Sonnenberg, D. Williams-Young, 
 F. Ding, F. Lipparini, F. Egidi, J. Goings, B. Peng, A. Petrone, 
 T. Henderson, D. Ranasinghe, V. G. Zakrzewski, J. Gao, N. Rega, 
 G. Zheng, W. Liang, M. Hada, M. Ehara, K. Toyota, R. Fukuda, 
 J. Hasegawa, M. Ishida, T. Nakajima, Y. Honda, O. Kitao, H. Nakai, 
 T. Vreven, K. Throssell, J. A. Montgomery, Jr., J. E. Peralta, 
 F. Ogliaro, M. J. Bearpark, J. J. Heyd, E. N. Brothers, K. N. Kudin, 
 V. N. Staroverov, T. A. Keith, R. Kobayashi, J. Normand, 
 K. Raghavachari, A. P. Rendell, J. C. Burant, S. S. Iyengar, 
 J. Tomasi, M. Cossi, J. M. Millam, M. Klene, C. Adamo, R. Cammi, 
 J. W. Ochterski, R. L. Martin, K. Morokuma, O. Farkas, 
 J. B. Foresman, and D. J. Fox, Gaussian, Inc., Wallingford CT, 2019.
 
 ******************************************
 Gaussian 16:  ES64L-G16RevC.01  3-Jul-2019
                 9-Apr-2025 
 ******************************************
 %nprocs=16
 Will use up to   16 processors via shared memory.
 %mem=30GB
 %chk=DCONF_8_40_mol1.chk
 ----------------------------------------------------------------------
 #t hf aug-cc-pvdz iop(5/13=1,5/36=2,99/5=2) pseudo=read geom=check gue
 ss=(read,tcheck) scf=(maxcycle=1)
 ----------------------------------------------------------------------
 -----
 title
 -----
 Structure from the checkpoint file:  "DCONF_8_40_mol1.chk"
 Charge =  0 Multiplicity = 1
 Z-Matrix found in chk file.
 C,0,0.0266,-0.035,-0.006
 H,0,0.0445,-0.6356,0.912
 H,0,0.0068,-0.739,-0.8476
 C,0,-1.2388,0.8241,0.0007
 H,0,-1.2188,1.4804,0.8743
 H,0,-1.2422,1.4762,-0.8818
 C,0,-2.5057,-0.0311,0.0158
 H,0,-2.5242,-0.68,0.8976
 H,0,-3.4044,0.5918,0.0375
 H,0,-2.5584,-0.6696,-0.8722
 C,0,1.3087,0.7771,-0.1056
 H,0,2.1813,0.2119,0.2314
 H,0,1.4732,1.1166,-1.1334
 F,0,1.2202,1.9318,0.6781
 Recover connectivity data from disk.
                    Distance matrix (angstroms):
                    1          2          3          4          5
     1  C    0.000000
     2  H    1.097162   0.000000
     3  H    1.097405   1.763039   0.000000
     4  C    1.529488   2.146637   2.171270   0.000000
     5  H    2.149974   2.464712   3.064763   1.092843   0.000000
     6  H    2.158843   3.054998   2.543282   1.097293   1.756261
     7  C    2.532397   2.769858   2.749407   1.528604   2.162814
     8  H    2.781924   2.569124   3.074925   2.172326   2.524270
     9  H    3.488056   3.763798   3.767057   2.178334   2.503336
    10  H    2.799151   3.155886   2.566257   2.175876   3.076896
    11  C    1.520923   2.151612   2.131682   2.550150   2.800552
    12  H    2.181754   2.397371   2.607087   3.482111   3.685525
    13  H    2.165610   3.048778   2.382281   2.954096   3.377880
    14  F    2.400203   2.833465   3.306550   2.780746   2.488167
                    6          7          8          9         10
     6  H    0.000000
     7  C    2.161960   0.000000
     8  H    3.075547   1.094982   0.000000
     9  H    2.510455   1.093680   1.769746   0.000000
    10  H    2.517326   1.094990   1.770161   1.770424   0.000000
    11  C    2.756505   3.900971   4.221454   4.718911   4.199414
    12  H    3.815497   4.698244   4.835394   5.601961   4.945678
    13  H    2.750638   4.297618   4.830315   5.043551   4.417299
    14  F    2.950301   4.263091   4.570581   4.857252   4.842368
                   11         12         13         14
    11  C    0.000000
    12  H    1.092909   0.000000
    13  H    1.094849   1.783975   0.000000
    14  F    1.398338   2.020225   2.002521   0.000000
 Framework group  C1[X(C4H9F)]
 Deg. of freedom    36
                         Standard orientation:                         
 ---------------------------------------------------------------------
 Center     Atomic      Atomic             Coordinates (Angstroms)
 Number     Number       Type             X           Y           Z
 ---------------------------------------------------------------------
      1          6           0        0.017050    0.766946   -0.150858
      2          1           0       -0.092051    0.986492   -1.220279
      3          1           0       -0.301736    1.664967    0.393416
      4          6           0       -0.887519   -0.416487    0.196383
      5          1           0       -0.581802   -1.283523   -0.394457
      6          1           0       -0.744901   -0.688420    1.249837
      7          6           0       -2.360730   -0.099657   -0.060326
      8          1           0       -2.522933    0.162307   -1.111064
      9          1           0       -2.997590   -0.957116    0.174857
     10          1           0       -2.692440    0.745630    0.551606
     11          6           0        1.483551    0.521895    0.169348
     12          1           0        2.143523    1.197506   -0.380595
     13          1           0        1.668909    0.630475    1.242915
     14          9           0        1.845213   -0.788278   -0.159279
 ---------------------------------------------------------------------
 Rotational constants (GHZ):          12.1724738           2.4498858           2.1848487
 ======================================================================================================
                                       Pseudopotential Parameters
 ======================================================================================================
  Center     Atomic      Valence      Angular      Power
  Number     Number     Electrons     Momentum     of R      Exponent        Coefficient   SO-Coeffient
 ======================================================================================================
    1          6            6
                                      G and up 
                                                     0        0.0000010       -0.00286759    0.00000000
                                                     2        0.1200000        0.03193960    0.00000000
                                                     2        0.1600000       -0.04027782    0.00000000
                                                     2        0.2600000        0.24782456    0.00000000
                                                     2        0.4000000       -0.62266671    0.00000000
                                                     2        0.7000000        0.35695227    0.00000000
                                      S - G
                                                     0        0.0000010       -0.06602313    0.00000000
                                                     2        0.1200000        1.47277455    0.00000000
                                                     2        0.1600000       -4.06924166    0.00000000
                                                     2        0.3000000        5.02952802    0.00000000
                                                     2        0.7000000       -5.65856978    0.00000000
                                                     2        1.7000000        8.57604414    0.00000000
                                      P - G
                                                     0        0.0000010        0.49434425    0.00000000
                                                     2        0.1200000       -1.37391547    0.00000000
                                                     2        0.1600000        3.65411806    0.00000000
                                                     2        0.2800000       -7.36479843    0.00000000
                                                     2        0.6000000       17.22091285    0.00000000
                                                     2        1.1000000      -23.50107827    0.00000000
                                                     2        3.0000000       16.29464063    0.00000000
                                      D - G
                                                     0        0.0000010       -0.28693103    0.00000000
                                                     2        0.1200000        0.12273044    0.00000000
                                                     2        0.3000000       -0.43416384    0.00000000
                                                     2        0.7000000        2.23358493    0.00000000
                                      F - G
                                                     0        0.0000010        0.07263570    0.00000000
                                                     2        0.1400000       -0.76152861    0.00000000
                                                     2        0.2200000        1.98045593    0.00000000
                                                     2        0.4000000       -2.42426427    0.00000000
                                                     2        0.7000000        0.52335237    0.00000000
    2          1            1
                                      F and up 
                                                     0        0.0000010        0.00072061    0.00000000
                                                     2        0.1200000        0.03832357    0.00000000
                                                     2        0.1400000       -0.08683256    0.00000000
                                                     2        0.1800000        0.09312970    0.00000000
                                                     2        0.2800000       -0.02532572    0.00000000
                                                     2        0.4000000       -0.09430787    0.00000000
                                                     2        0.7000000        0.42710831    0.00000000
                                                     2        1.2000000       -2.11746981    0.00000000
                                      S - F
                                                     0        0.0000010        0.14449603    0.00000000
                                                     2        0.1200000       -0.56378993    0.00000000
                                                     2        0.1400000        0.63941249    0.00000000
                                                     2        0.2600000       -0.58461015    0.00000000
                                                     2        0.5000000        1.00157293    0.00000000
                                                     2        1.8000000       -0.14135838    0.00000000
                                      P - F
                                                     0        0.0000010       -0.09353646    0.00000000
                                                     2        0.1200000        0.31768975    0.00000000
                                                     2        0.2000000       -0.71747951    0.00000000
                                                     2        0.4000000        0.65752308    0.00000000
                                                     2        1.7000000        2.94052587    0.00000000
                                      D - F
                                                     0        0.0000010       -0.04491202    0.00000000
                                                     2        0.1200000       -0.02862031    0.00000000
                                                     2        0.1800000       -0.21515263    0.00000000
                                                     2        0.3000000        0.80560647    0.00000000
                                                     2        0.4000000        0.47351754    0.00000000
                                                     2        0.7000000       -4.57051794    0.00000000
                                                     2        1.6000000       18.53737826    0.00000000
    3          1            1
                                      F and up 
                                                     0        0.0000010        0.00072061    0.00000000
                                                     2        0.1200000        0.03832357    0.00000000
                                                     2        0.1400000       -0.08683256    0.00000000
                                                     2        0.1800000        0.09312970    0.00000000
                                                     2        0.2800000       -0.02532572    0.00000000
                                                     2        0.4000000       -0.09430787    0.00000000
                                                     2        0.7000000        0.42710831    0.00000000
                                                     2        1.2000000       -2.11746981    0.00000000
                                      S - F
                                                     0        0.0000010        0.14449603    0.00000000
                                                     2        0.1200000       -0.56378993    0.00000000
                                                     2        0.1400000        0.63941249    0.00000000
                                                     2        0.2600000       -0.58461015    0.00000000
                                                     2        0.5000000        1.00157293    0.00000000
                                                     2        1.8000000       -0.14135838    0.00000000
                                      P - F
                                                     0        0.0000010       -0.09353646    0.00000000
                                                     2        0.1200000        0.31768975    0.00000000
                                                     2        0.2000000       -0.71747951    0.00000000
                                                     2        0.4000000        0.65752308    0.00000000
                                                     2        1.7000000        2.94052587    0.00000000
                                      D - F
                                                     0        0.0000010       -0.04491202    0.00000000
                                                     2        0.1200000       -0.02862031    0.00000000
                                                     2        0.1800000       -0.21515263    0.00000000
                                                     2        0.3000000        0.80560647    0.00000000
                                                     2        0.4000000        0.47351754    0.00000000
                                                     2        0.7000000       -4.57051794    0.00000000
                                                     2        1.6000000       18.53737826    0.00000000
    4          6            6
                                      G and up 
                                                     0        0.0000010       -0.00286759    0.00000000
                                                     2        0.1200000        0.03193960    0.00000000
                                                     2        0.1600000       -0.04027782    0.00000000
                                                     2        0.2600000        0.24782456    0.00000000
                                                     2        0.4000000       -0.62266671    0.00000000
                                                     2        0.7000000        0.35695227    0.00000000
                                      S - G
                                                     0        0.0000010       -0.06602313    0.00000000
                                                     2        0.1200000        1.47277455    0.00000000
                                                     2        0.1600000       -4.06924166    0.00000000
                                                     2        0.3000000        5.02952802    0.00000000
                                                     2        0.7000000       -5.65856978    0.00000000
                                                     2        1.7000000        8.57604414    0.00000000
                                      P - G
                                                     0        0.0000010        0.49434425    0.00000000
                                                     2        0.1200000       -1.37391547    0.00000000
                                                     2        0.1600000        3.65411806    0.00000000
                                                     2        0.2800000       -7.36479843    0.00000000
                                                     2        0.6000000       17.22091285    0.00000000
                                                     2        1.1000000      -23.50107827    0.00000000
                                                     2        3.0000000       16.29464063    0.00000000
                                      D - G
                                                     0        0.0000010       -0.28693103    0.00000000
                                                     2        0.1200000        0.12273044    0.00000000
                                                     2        0.3000000       -0.43416384    0.00000000
                                                     2        0.7000000        2.23358493    0.00000000
                                      F - G
                                                     0        0.0000010        0.07263570    0.00000000
                                                     2        0.1400000       -0.76152861    0.00000000
                                                     2        0.2200000        1.98045593    0.00000000
                                                     2        0.4000000       -2.42426427    0.00000000
                                                     2        0.7000000        0.52335237    0.00000000
    5          1            1
                                      F and up 
                                                     0        0.0000010        0.00072061    0.00000000
                                                     2        0.1200000        0.03832357    0.00000000
                                                     2        0.1400000       -0.08683256    0.00000000
                                                     2        0.1800000        0.09312970    0.00000000
                                                     2        0.2800000       -0.02532572    0.00000000
                                                     2        0.4000000       -0.09430787    0.00000000
                                                     2        0.7000000        0.42710831    0.00000000
                                                     2        1.2000000       -2.11746981    0.00000000
                                      S - F
                                                     0        0.0000010        0.14449603    0.00000000
                                                     2        0.1200000       -0.56378993    0.00000000
                                                     2        0.1400000        0.63941249    0.00000000
                                                     2        0.2600000       -0.58461015    0.00000000
                                                     2        0.5000000        1.00157293    0.00000000
                                                     2        1.8000000       -0.14135838    0.00000000
                                      P - F
                                                     0        0.0000010       -0.09353646    0.00000000
                                                     2        0.1200000        0.31768975    0.00000000
                                                     2        0.2000000       -0.71747951    0.00000000
                                                     2        0.4000000        0.65752308    0.00000000
                                                     2        1.7000000        2.94052587    0.00000000
                                      D - F
                                                     0        0.0000010       -0.04491202    0.00000000
                                                     2        0.1200000       -0.02862031    0.00000000
                                                     2        0.1800000       -0.21515263    0.00000000
                                                     2        0.3000000        0.80560647    0.00000000
                                                     2        0.4000000        0.47351754    0.00000000
                                                     2        0.7000000       -4.57051794    0.00000000
                                                     2        1.6000000       18.53737826    0.00000000
    6          1            1
                                      F and up 
                                                     0        0.0000010        0.00072061    0.00000000
                                                     2        0.1200000        0.03832357    0.00000000
                                                     2        0.1400000       -0.08683256    0.00000000
                                                     2        0.1800000        0.09312970    0.00000000
                                                     2        0.2800000       -0.02532572    0.00000000
                                                     2        0.4000000       -0.09430787    0.00000000
                                                     2        0.7000000        0.42710831    0.00000000
                                                     2        1.2000000       -2.11746981    0.00000000
                                      S - F
                                                     0        0.0000010        0.14449603    0.00000000
                                                     2        0.1200000       -0.56378993    0.00000000
                                                     2        0.1400000        0.63941249    0.00000000
                                                     2        0.2600000       -0.58461015    0.00000000
                                                     2        0.5000000        1.00157293    0.00000000
                                                     2        1.8000000       -0.14135838    0.00000000
                                      P - F
                                                     0        0.0000010       -0.09353646    0.00000000
                                                     2        0.1200000        0.31768975    0.00000000
                                                     2        0.2000000       -0.71747951    0.00000000
                                                     2        0.4000000        0.65752308    0.00000000
                                                     2        1.7000000        2.94052587    0.00000000
                                      D - F
                                                     0        0.0000010       -0.04491202    0.00000000
                                                     2        0.1200000       -0.02862031    0.00000000
                                                     2        0.1800000       -0.21515263    0.00000000
                                                     2        0.3000000        0.80560647    0.00000000
                                                     2        0.4000000        0.47351754    0.00000000
                                                     2        0.7000000       -4.57051794    0.00000000
                                                     2        1.6000000       18.53737826    0.00000000
    7          6            6
                                      G and up 
                                                     0        0.0000010       -0.00286759    0.00000000
                                                     2        0.1200000        0.03193960    0.00000000
                                                     2        0.1600000       -0.04027782    0.00000000
                                                     2        0.2600000        0.24782456    0.00000000
                                                     2        0.4000000       -0.62266671    0.00000000
                                                     2        0.7000000        0.35695227    0.00000000
                                      S - G
                                                     0        0.0000010       -0.06602313    0.00000000
                                                     2        0.1200000        1.47277455    0.00000000
                                                     2        0.1600000       -4.06924166    0.00000000
                                                     2        0.3000000        5.02952802    0.00000000
                                                     2        0.7000000       -5.65856978    0.00000000
                                                     2        1.7000000        8.57604414    0.00000000
                                      P - G
                                                     0        0.0000010        0.49434425    0.00000000
                                                     2        0.1200000       -1.37391547    0.00000000
                                                     2        0.1600000        3.65411806    0.00000000
                                                     2        0.2800000       -7.36479843    0.00000000
                                                     2        0.6000000       17.22091285    0.00000000
                                                     2        1.1000000      -23.50107827    0.00000000
                                                     2        3.0000000       16.29464063    0.00000000
                                      D - G
                                                     0        0.0000010       -0.28693103    0.00000000
                                                     2        0.1200000        0.12273044    0.00000000
                                                     2        0.3000000       -0.43416384    0.00000000
                                                     2        0.7000000        2.23358493    0.00000000
                                      F - G
                                                     0        0.0000010        0.07263570    0.00000000
                                                     2        0.1400000       -0.76152861    0.00000000
                                                     2        0.2200000        1.98045593    0.00000000
                                                     2        0.4000000       -2.42426427    0.00000000
                                                     2        0.7000000        0.52335237    0.00000000
    8          1            1
                                      F and up 
                                                     0        0.0000010        0.00072061    0.00000000
                                                     2        0.1200000        0.03832357    0.00000000
                                                     2        0.1400000       -0.08683256    0.00000000
                                                     2        0.1800000        0.09312970    0.00000000
                                                     2        0.2800000       -0.02532572    0.00000000
                                                     2        0.4000000       -0.09430787    0.00000000
                                                     2        0.7000000        0.42710831    0.00000000
                                                     2        1.2000000       -2.11746981    0.00000000
                                      S - F
                                                     0        0.0000010        0.14449603    0.00000000
                                                     2        0.1200000       -0.56378993    0.00000000
                                                     2        0.1400000        0.63941249    0.00000000
                                                     2        0.2600000       -0.58461015    0.00000000
                                                     2        0.5000000        1.00157293    0.00000000
                                                     2        1.8000000       -0.14135838    0.00000000
                                      P - F
                                                     0        0.0000010       -0.09353646    0.00000000
                                                     2        0.1200000        0.31768975    0.00000000
                                                     2        0.2000000       -0.71747951    0.00000000
                                                     2        0.4000000        0.65752308    0.00000000
                                                     2        1.7000000        2.94052587    0.00000000
                                      D - F
                                                     0        0.0000010       -0.04491202    0.00000000
                                                     2        0.1200000       -0.02862031    0.00000000
                                                     2        0.1800000       -0.21515263    0.00000000
                                                     2        0.3000000        0.80560647    0.00000000
                                                     2        0.4000000        0.47351754    0.00000000
                                                     2        0.7000000       -4.57051794    0.00000000
                                                     2        1.6000000       18.53737826    0.00000000
    9          1            1
                                      F and up 
                                                     0        0.0000010        0.00072061    0.00000000
                                                     2        0.1200000        0.03832357    0.00000000
                                                     2        0.1400000       -0.08683256    0.00000000
                                                     2        0.1800000        0.09312970    0.00000000
                                                     2        0.2800000       -0.02532572    0.00000000
                                                     2        0.4000000       -0.09430787    0.00000000
                                                     2        0.7000000        0.42710831    0.00000000
                                                     2        1.2000000       -2.11746981    0.00000000
                                      S - F
                                                     0        0.0000010        0.14449603    0.00000000
                                                     2        0.1200000       -0.56378993    0.00000000
                                                     2        0.1400000        0.63941249    0.00000000
                                                     2        0.2600000       -0.58461015    0.00000000
                                                     2        0.5000000        1.00157293    0.00000000
                                                     2        1.8000000       -0.14135838    0.00000000
                                      P - F
                                                     0        0.0000010       -0.09353646    0.00000000
                                                     2        0.1200000        0.31768975    0.00000000
                                                     2        0.2000000       -0.71747951    0.00000000
                                                     2        0.4000000        0.65752308    0.00000000
                                                     2        1.7000000        2.94052587    0.00000000
                                      D - F
                                                     0        0.0000010       -0.04491202    0.00000000
                                                     2        0.1200000       -0.02862031    0.00000000
                                                     2        0.1800000       -0.21515263    0.00000000
                                                     2        0.3000000        0.80560647    0.00000000
                                                     2        0.4000000        0.47351754    0.00000000
                                                     2        0.7000000       -4.57051794    0.00000000
                                                     2        1.6000000       18.53737826    0.00000000
   10          1            1
                                      F and up 
                                                     0        0.0000010        0.00072061    0.00000000
                                                     2        0.1200000        0.03832357    0.00000000
                                                     2        0.1400000       -0.08683256    0.00000000
                                                     2        0.1800000        0.09312970    0.00000000
                                                     2        0.2800000       -0.02532572    0.00000000
                                                     2        0.4000000       -0.09430787    0.00000000
                                                     2        0.7000000        0.42710831    0.00000000
                                                     2        1.2000000       -2.11746981    0.00000000
                                      S - F
                                                     0        0.0000010        0.14449603    0.00000000
                                                     2        0.1200000       -0.56378993    0.00000000
                                                     2        0.1400000        0.63941249    0.00000000
                                                     2        0.2600000       -0.58461015    0.00000000
                                                     2        0.5000000        1.00157293    0.00000000
                                                     2        1.8000000       -0.14135838    0.00000000
                                      P - F
                                                     0        0.0000010       -0.09353646    0.00000000
                                                     2        0.1200000        0.31768975    0.00000000
                                                     2        0.2000000       -0.71747951    0.00000000
                                                     2        0.4000000        0.65752308    0.00000000
                                                     2        1.7000000        2.94052587    0.00000000
                                      D - F
                                                     0        0.0000010       -0.04491202    0.00000000
                                                     2        0.1200000       -0.02862031    0.00000000
                                                     2        0.1800000       -0.21515263    0.00000000
                                                     2        0.3000000        0.80560647    0.00000000
                                                     2        0.4000000        0.47351754    0.00000000
                                                     2        0.7000000       -4.57051794    0.00000000
                                                     2        1.6000000       18.53737826    0.00000000
   11          6            6
                                      G and up 
                                                     0        0.0000010       -0.00286759    0.00000000
                                                     2        0.1200000        0.03193960    0.00000000
                                                     2        0.1600000       -0.04027782    0.00000000
                                                     2        0.2600000        0.24782456    0.00000000
                                                     2        0.4000000       -0.62266671    0.00000000
                                                     2        0.7000000        0.35695227    0.00000000
                                      S - G
                                                     0        0.0000010       -0.06602313    0.00000000
                                                     2        0.1200000        1.47277455    0.00000000
                                                     2        0.1600000       -4.06924166    0.00000000
                                                     2        0.3000000        5.02952802    0.00000000
                                                     2        0.7000000       -5.65856978    0.00000000
                                                     2        1.7000000        8.57604414    0.00000000
                                      P - G
                                                     0        0.0000010        0.49434425    0.00000000
                                                     2        0.1200000       -1.37391547    0.00000000
                                                     2        0.1600000        3.65411806    0.00000000
                                                     2        0.2800000       -7.36479843    0.00000000
                                                     2        0.6000000       17.22091285    0.00000000
                                                     2        1.1000000      -23.50107827    0.00000000
                                                     2        3.0000000       16.29464063    0.00000000
                                      D - G
                                                     0        0.0000010       -0.28693103    0.00000000
                                                     2        0.1200000        0.12273044    0.00000000
                                                     2        0.3000000       -0.43416384    0.00000000
                                                     2        0.7000000        2.23358493    0.00000000
                                      F - G
                                                     0        0.0000010        0.07263570    0.00000000
                                                     2        0.1400000       -0.76152861    0.00000000
                                                     2        0.2200000        1.98045593    0.00000000
                                                     2        0.4000000       -2.42426427    0.00000000
                                                     2        0.7000000        0.52335237    0.00000000
   12          1            1
                                      F and up 
                                                     0        0.0000010        0.00072061    0.00000000
                                                     2        0.1200000        0.03832357    0.00000000
                                                     2        0.1400000       -0.08683256    0.00000000
                                                     2        0.1800000        0.09312970    0.00000000
                                                     2        0.2800000       -0.02532572    0.00000000
                                                     2        0.4000000       -0.09430787    0.00000000
                                                     2        0.7000000        0.42710831    0.00000000
                                                     2        1.2000000       -2.11746981    0.00000000
                                      S - F
                                                     0        0.0000010        0.14449603    0.00000000
                                                     2        0.1200000       -0.56378993    0.00000000
                                                     2        0.1400000        0.63941249    0.00000000
                                                     2        0.2600000       -0.58461015    0.00000000
                                                     2        0.5000000        1.00157293    0.00000000
                                                     2        1.8000000       -0.14135838    0.00000000
                                      P - F
                                                     0        0.0000010       -0.09353646    0.00000000
                                                     2        0.1200000        0.31768975    0.00000000
                                                     2        0.2000000       -0.71747951    0.00000000
                                                     2        0.4000000        0.65752308    0.00000000
                                                     2        1.7000000        2.94052587    0.00000000
                                      D - F
                                                     0        0.0000010       -0.04491202    0.00000000
                                                     2        0.1200000       -0.02862031    0.00000000
                                                     2        0.1800000       -0.21515263    0.00000000
                                                     2        0.3000000        0.80560647    0.00000000
                                                     2        0.4000000        0.47351754    0.00000000
                                                     2        0.7000000       -4.57051794    0.00000000
                                                     2        1.6000000       18.53737826    0.00000000
   13          1            1
                                      F and up 
                                                     0        0.0000010        0.00072061    0.00000000
                                                     2        0.1200000        0.03832357    0.00000000
                                                     2        0.1400000       -0.08683256    0.00000000
                                                     2        0.1800000        0.09312970    0.00000000
                                                     2        0.2800000       -0.02532572    0.00000000
                                                     2        0.4000000       -0.09430787    0.00000000
                                                     2        0.7000000        0.42710831    0.00000000
                                                     2        1.2000000       -2.11746981    0.00000000
                                      S - F
                                                     0        0.0000010        0.14449603    0.00000000
                                                     2        0.1200000       -0.56378993    0.00000000
                                                     2        0.1400000        0.63941249    0.00000000
                                                     2        0.2600000       -0.58461015    0.00000000
                                                     2        0.5000000        1.00157293    0.00000000
                                                     2        1.8000000       -0.14135838    0.00000000
                                      P - F
                                                     0        0.0000010       -0.09353646    0.00000000
                                                     2        0.1200000        0.31768975    0.00000000
                                                     2        0.2000000       -0.71747951    0.00000000
                                                     2        0.4000000        0.65752308    0.00000000
                                                     2        1.7000000        2.94052587    0.00000000
                                      D - F
                                                     0        0.0000010       -0.04491202    0.00000000
                                                     2        0.1200000       -0.02862031    0.00000000
                                                     2        0.1800000       -0.21515263    0.00000000
                                                     2        0.3000000        0.80560647    0.00000000
                                                     2        0.4000000        0.47351754    0.00000000
                                                     2        0.7000000       -4.57051794    0.00000000
                                                     2        1.6000000       18.53737826    0.00000000
   14          9            9
                                      G and up 
                                                     0        0.0000010       -0.00152163    0.00000000
                                                     2        0.1200000       -0.09043016    0.00000000
                                                     2        0.1400000        0.25628512    0.00000000
                                                     2        0.2000000       -0.31987377    0.00000000
                                                     2        0.3000000        0.48912429    0.00000000
                                                     2        0.4000000        0.12183688    0.00000000
                                                     2        0.6000000       -0.79963093    0.00000000
                                                     2        1.3000000        1.98943307    0.00000000
                                      S - G
                                                     0        0.0000010       -0.05404402    0.00000000
                                                     2        0.1200000        1.31674577    0.00000000
                                                     2        0.2400000       -4.28550771    0.00000000
                                                     2        0.8000000        7.13027769    0.00000000
                                      P - G
                                                     0        0.0000010       -0.03280113    0.00000000
                                                     2        0.1200000       -0.11684768    0.00000000
                                                     2        0.2200000       -0.54710751    0.00000000
                                                     2        0.6000000        1.00412264    0.00000000
                                      D - G
                                                     0        0.0000010       -0.09872413    0.00000000
                                                     2        0.1600000        0.32020158    0.00000000
                                                     2        0.5000000       -3.54424892    0.00000000
                                      F - G
                                                     0        0.0000010        0.17152509    0.00000000
                                                     2        0.1200000       -0.51731546    0.00000000
                                                     2        0.4000000        2.52461867    0.00000000
 ======================================================================================================
   196 basis functions,   314 primitive gaussians,   206 cartesian basis functions
    21 alpha electrons       21 beta electrons
       nuclear repulsion energy       186.4488311104 Hartrees.
 NAtoms=   14 NActive=   14 NUniq=   14 SFac= 1.00D+00 NAtFMM=   60 NAOKFM=F Big=F
   1 Symmetry operations used in ECPInt.
 ECPInt:  NShTT=    4095 NPrTT=   16183 LenC2=    4091 LenP2D=   13511.
 LDataN:  DoStor=T MaxTD1= 6 Len=  172
 Initial guess from the checkpoint file:  "DCONF_8_40_mol1.chk"
 B after Tr=     0.007772    1.370449   -0.270523
         Rot=   -0.177816    0.968746    0.172698    0.009362 Ang= 200.49 deg.
 >>>>>>>>>> Convergence criterion not met.
 SCF Done:  E(RHF) =  -257.336991732     A.U. after    2 cycles
            NFock=  1  Conv=0.35D+00     -V/T= 2.0462

 **********************************************************************

            Population analysis using the SCF Density.

 **********************************************************************

 Orbital symmetries:
       Occupied  (A) (A) (A) (A) (A) (A) (A) (A) (A) (A) (A) (A)
                 (A) (A) (A) (A) (A) (A) (A) (A) (A)
       Virtual   (A) (A) (A) (A) (A) (A) (A) (A) (A) (A) (A) (A)
                 (A) (A) (A) (A) (A) (A) (A) (A) (A) (A) (A) (A)
                 (A) (A) (A) (A) (A) (A) (A) (A) (A) (A) (A) (A)
                 (A) (A) (A) (A) (A) (A) (A) (A) (A) (A) (A) (A)
                 (A) (A) (A) (A) (A) (A) (A) (A) (A) (A) (A) (A)
                 (A) (A) (A) (A) (A) (A) (A) (A) (A) (A) (A) (A)
                 (A) (A) (A) (A) (A) (A) (A) (A) (A) (A) (A) (A)
                 (A) (A) (A) (A) (A) (A) (A) (A) (A) (A) (A) (A)
                 (A) (A) (A) (A) (A) (A) (A) (A) (A) (A) (A) (A)
                 (A) (A) (A) (A) (A) (A) (A) (A) (A) (A) (A) (A)
                 (A) (A) (A) (A) (A) (A) (A) (A) (A) (A) (A) (A)
                 (A) (A) (A) (A) (A) (A) (A) (A) (A) (A) (A) (A)
                 (A) (A) (A) (A) (A) (A) (A) (A) (A) (A) (A) (A)
                 (A) (A) (A) (A) (A) (A) (A) (A) (A) (A) (A) (A)
                 (A) (A) (A) (A) (A) (A) (A)
 The electronic state is 1-A.
 Alpha  occ. eigenvalues --  -29.23946 -11.45213 -11.41003 -11.38108 -11.34809
 Alpha  occ. eigenvalues --   -1.26958  -1.11761  -0.95475  -0.84556  -0.68737
 Alpha  occ. eigenvalues --   -0.65403  -0.60758  -0.60250  -0.54721  -0.51788
 Alpha  occ. eigenvalues --   -0.47278  -0.46355  -0.44144  -0.35023  -0.24095
 Alpha  occ. eigenvalues --   -0.23775
 Alpha virt. eigenvalues --    0.04175   0.05090   0.05697   0.05779   0.06099
 Alpha virt. eigenvalues --    0.06443   0.06803   0.07841   0.09118   0.11045
 Alpha virt. eigenvalues --    0.13015   0.13878   0.14349   0.15394   0.16606
 Alpha virt. eigenvalues --    0.16688   0.17728   0.18661   0.19466   0.19547
 Alpha virt. eigenvalues --    0.20119   0.20397   0.22603   0.22736   0.23410
 Alpha virt. eigenvalues --    0.27257   0.29532   0.30209   0.30510   0.32489
 Alpha virt. eigenvalues --    0.33883   0.35560   0.36125   0.37118   0.37794
 Alpha virt. eigenvalues --    0.38839   0.40652   0.41499   0.42694   0.43452
 Alpha virt. eigenvalues --    0.43681   0.44857   0.46756   0.47262   0.47583
 Alpha virt. eigenvalues --    0.48233   0.48788   0.49441   0.49842   0.50992
 Alpha virt. eigenvalues --    0.51858   0.52315   0.54632   0.55936   0.56808
 Alpha virt. eigenvalues --    0.58082   0.59205   0.59700   0.60888   0.62246
 Alpha virt. eigenvalues --    0.62666   0.64428   0.65256   0.66955   0.68358
 Alpha virt. eigenvalues --    0.68874   0.69980   0.71358   0.72249   0.73012
 Alpha virt. eigenvalues --    0.75227   0.76189   0.77202   0.77609   0.79108
 Alpha virt. eigenvalues --    0.80684   0.82024   0.82423   0.83829   0.85416
 Alpha virt. eigenvalues --    0.87158   0.88622   0.89158   0.92592   0.93520
 Alpha virt. eigenvalues --    0.96161   0.96243   0.99636   1.02024   1.04188
 Alpha virt. eigenvalues --    1.06196   1.09461   1.10174   1.17251   1.24476
 Alpha virt. eigenvalues --    1.26206   1.29167   1.30336   1.36651   1.39684
 Alpha virt. eigenvalues --    1.40199   1.43860   1.44615   1.56095   1.59317
 Alpha virt. eigenvalues --    1.64820   1.71210   1.73229   1.75042   1.78551
 Alpha virt. eigenvalues --    1.82269   1.85789   1.88253   1.93033   1.96576
 Alpha virt. eigenvalues --    1.97575   2.01379   2.03178   2.03554   2.06521
 Alpha virt. eigenvalues --    2.07917   2.10472   2.12066   2.14216   2.17357
 Alpha virt. eigenvalues --    2.21646   2.23317   2.24847   2.27948   2.30597
 Alpha virt. eigenvalues --    2.32546   2.37249   2.43814   2.45929   2.51828
 Alpha virt. eigenvalues --    2.51944   2.56299   2.57891   2.59945   2.60636
 Alpha virt. eigenvalues --    2.63030   2.65191   2.68002   2.69507   2.74576
 Alpha virt. eigenvalues --    2.76774   2.77494   2.82749   2.85121   2.89136
 Alpha virt. eigenvalues --    2.94089   2.97992   2.98088   3.03893   3.06070
 Alpha virt. eigenvalues --    3.10267   3.12781   3.13476   3.24408   3.30205
 Alpha virt. eigenvalues --    3.33095   3.40842   3.46630   3.54571   3.58470
 Alpha virt. eigenvalues --    3.72653   3.74871   3.79257   3.83218   3.84586
 Alpha virt. eigenvalues --    3.92363   3.94233   3.98538   4.05493   4.93266
          Condensed to atoms (all electrons):
 Mulliken charges:
               1
     1  C   -3.117972
     2  H    1.419319
     3  H    1.396554
     4  C   -2.860733
     5  H    1.445926
     6  H    1.489014
     7  C   -3.828122
     8  H    1.302496
     9  H    1.098236
    10  H    1.255839
    11  C   -2.541222
    12  H    1.339072
    13  H    1.378367
    14  F    0.223226
 Sum of Mulliken charges =  -0.00000
 Mulliken charges with hydrogens summed into heavy atoms:
               1
     1  C   -0.302099
     4  C    0.074206
     7  C   -0.171550
    11  C    0.176217
    14  F    0.223226
 Electronic spatial extent (au):  <R**2>=            602.4121
 Charge=              0.0000 electrons
 Dipole moment (field-independent basis, Debye):
    X=              0.2650    Y=             -0.9389    Z=             -0.2083  Tot=              0.9975

 Test job not archived.
 1\1\GINC-SE074\SP\RHF\Aug-CC-pVDZ\C4H9F1\OHZDE\09-Apr-2025\0\\#t hf au
 g-cc-pvdz iop(5/13=1,5/36=2,99/5=2) pseudo=read geom=check guess=(read
 ,tcheck) scf=(maxcycle=1)\\title\\0,1\C,0,0.0266,-0.035,-0.006\H,0,0.0
 445,-0.6356,0.912\H,0,0.0068,-0.739,-0.8476\C,0,-1.2388,0.8241,0.0007\
 H,0,-1.2188,1.4804,0.8743\H,0,-1.2422,1.4762,-0.8818\C,0,-2.5057,-0.03
 11,0.0158\H,0,-2.5242,-0.68,0.8976\H,0,-3.4044,0.5918,0.0375\H,0,-2.55
 84,-0.6696,-0.8722\C,0,1.3087,0.7771,-0.1056\H,0,2.1813,0.2119,0.2314\
 H,0,1.4732,1.1166,-1.1334\F,0,1.2202,1.9318,0.6781\\Version=ES64L-G16R
 evC.01\State=1-A\HF=-257.3369917\RMSD=3.457e-01\Dipole=-0.0232402,0.33
 00277,0.2111174\Quadrupole=-0.7829629,0.1542817,0.6286813,0.0764561,0.
 4282269,-0.0087573\PG=C01 [X(C4H9F1)]\\@


 EVERYTHING'S GOT A MORAL, IF ONLY YOU CAN FIND IT.

                                    -- LEWIS CARROL, ALICE IN WONDERLAND
 Job cpu time:       0 days  0 hours  0 minutes 39.6 seconds.
 Elapsed time:       0 days  0 hours  0 minutes  3.3 seconds.
 File lengths (MBytes):  RWF=     10 Int=      0 D2E=      0 Chk=      6 Scr=      1
 Normal termination of Gaussian 16 at Wed Apr  9 02:31:28 2025.
