 Entering Gaussian System, Link 0=g16
 Input=DCONF_42_-150_mol1.gjf
 Output=DCONF_42_-150_mol1.log
 Initial command:
 /arc/software/Gaussian/g16.c01/l1.exe "/tmp/slurm/4857409/Gau-408584.inp" -scrdir="/tmp/slurm/4857409/"
 Entering Link 1 = /arc/software/Gaussian/g16.c01/l1.exe PID=    408585.
  
 Copyright (c) 1988-2019, Gaussian, Inc.  All Rights Reserved.
  
 This is part of the Gaussian(R) 16 program.  It is based on
 the Gaussian(R) 09 system (copyright 2009, Gaussian, Inc.),
 the Gaussian(R) 03 system (copyright 2003, Gaussian, Inc.),
 the Gaussian(R) 98 system (copyright 1998, Gaussian, Inc.),
 the Gaussian(R) 94 system (copyright 1995, Gaussian, Inc.),
 the Gaussian 92(TM) system (copyright 1992, Gaussian, Inc.),
 the Gaussian 90(TM) system (copyright 1990, Gaussian, Inc.),
 the Gaussian 88(TM) system (copyright 1988, Gaussian, Inc.),
 the Gaussian 86(TM) system (copyright 1986, Carnegie Mellon
 University), and the Gaussian 82(TM) system (copyright 1983,
 Carnegie Mellon University). Gaussian is a federally registered
 trademark of Gaussian, Inc.
  
 This software contains proprietary and confidential information,
 including trade secrets, belonging to Gaussian, Inc.
  
 This software is provided under written license and may be
 used, copied, transmitted, or stored only in accord with that
 written license.
  
 The following legend is applicable only to US Government
 contracts under FAR:
  
                    RESTRICTED RIGHTS LEGEND
  
 Use, reproduction and disclosure by the US Government is
 subject to restrictions as set forth in subparagraphs (a)
 and (c) of the Commercial Computer Software - Restricted
 Rights clause in FAR 52.227-19.
  
 Gaussian, Inc.
 340 Quinnipiac St., Bldg. 40, Wallingford CT 06492
  
  
 ---------------------------------------------------------------
 Warning -- This program may not be used in any manner that
 competes with the business of Gaussian, Inc. or will provide
 assistance to any competitor of Gaussian, Inc.  The licensee
 of this program is prohibited from giving any competitor of
 Gaussian, Inc. access to this program.  By using this program,
 the user acknowledges that Gaussian, Inc. is engaged in the
 business of creating and licensing software in the field of
 computational chemistry and represents and warrants to the
 licensee that it is not a competitor of Gaussian, Inc. and that
 it will not use this program in any manner prohibited above.
 ---------------------------------------------------------------
  

 Cite this work as:
 Gaussian 16, Revision C.01,
 M. J. Frisch, G. W. Trucks, H. B. Schlegel, G. E. Scuseria, 
 M. A. Robb, J. R. Cheeseman, G. Scalmani, V. Barone, 
 G. A. Petersson, H. Nakatsuji, X. Li, M. Caricato, A. V. Marenich, 
 J. Bloino, B. G. Janesko, R. Gomperts, B. Mennucci, H. P. Hratchian, 
 J. V. Ortiz, A. F. Izmaylov, J. L. Sonnenberg, D. Williams-Young, 
 F. Ding, F. Lipparini, F. Egidi, J. Goings, B. Peng, A. Petrone, 
 T. Henderson, D. Ranasinghe, V. G. Zakrzewski, J. Gao, N. Rega, 
 G. Zheng, W. Liang, M. Hada, M. Ehara, K. Toyota, R. Fukuda, 
 J. Hasegawa, M. Ishida, T. Nakajima, Y. Honda, O. Kitao, H. Nakai, 
 T. Vreven, K. Throssell, J. A. Montgomery, Jr., J. E. Peralta, 
 F. Ogliaro, M. J. Bearpark, J. J. Heyd, E. N. Brothers, K. N. Kudin, 
 V. N. Staroverov, T. A. Keith, R. Kobayashi, J. Normand, 
 K. Raghavachari, A. P. Rendell, J. C. Burant, S. S. Iyengar, 
 J. Tomasi, M. Cossi, J. M. Millam, M. Klene, C. Adamo, R. Cammi, 
 J. W. Ochterski, R. L. Martin, K. Morokuma, O. Farkas, 
 J. B. Foresman, and D. J. Fox, Gaussian, Inc., Wallingford CT, 2019.
 
 ******************************************
 Gaussian 16:  ES64L-G16RevC.01  3-Jul-2019
                 9-Apr-2025 
 ******************************************
 %nprocs=16
 Will use up to   16 processors via shared memory.
 %mem=30GB
 %chk=DCONF_42_-150_mol1.chk
 ----------------------------------------------------------------------
 #t hf aug-cc-pvdz symm=none int=(grid=ultrafine) guess=(read,tcheck) s
 table=(opt,rrhf)
 ----------------------------------------------------------------------
 -----
 title
 -----
 Symbolic Z-matrix:
 Charge =  0 Multiplicity = 1
 C                     28.9895  -15.6633  -0.5552 
 N                     29.3066  -16.8862   0.0175 
 H                     28.5758  -17.5848   0.0881 
 N                     30.7355  -18.7581  -0.011 
 C                     32.0733  -19.0644   0.0074 
 H                     32.3792  -20.1036   0.0021 
 C                     32.9281  -17.9868   0.0115 
 H                     34.0095  -17.9865  -0.0101 
 S                     32.037   -16.5171  -0.0138 
 C                     30.5839  -17.4503  -0.0116 
 O                     29.8489  -14.8479  -0.8511 
 C                     27.5081  -15.4376  -0.7577 
 H                     26.9077  -15.948   -0.0007 
 H                     27.2245  -15.8177  -1.7442 
 H                     27.3087  -14.3665  -0.7278 
 
                    Distance matrix (angstroms):
                    1          2          3          4          5
     1  C    0.000000
     2  N    1.387091   0.000000
     3  H    2.068126   1.013457   0.000000
     4  N    3.594782   2.355117   2.459829   0.000000
     5  C    4.625346   3.521262   3.798452   1.372540   0.000000
     6  H    5.613993   4.448907   4.562631   2.124216   1.083300
     7  C    4.607860   3.785052   4.371497   2.324415   1.375471
     8  H    5.558308   4.829978   5.449413   3.363695   2.216088
     9  S    3.210817   2.755413   3.623572   2.591523   2.547647
    10  C    2.455806   1.396621   2.015067   1.316558   2.196359
    11  O    1.221066   2.281057   3.161250   4.096522   4.843950
    12  C    1.512115   2.435976   2.542799   4.690351   5.880485
    13  H    2.173112   2.575902   2.338708   4.748560   6.032863
    14  H    2.133726   2.929235   2.882009   4.896637   6.092621
    15  H    2.129922   3.300904   3.553687   5.616308   6.731433
                    6          7          8          9         10
     6  H    0.000000
     7  C    2.186829   0.000000
     8  H    2.672104   1.081616   0.000000
     9  S    3.602823   1.718929   2.459656   0.000000
    10  C    3.203637   2.404920   3.467311   1.726953   0.000000
    11  O    5.895146   4.480875   5.279080   2.876644   2.831514
    12  C    6.787965   6.038749   7.023105   4.714832   3.750756
    13  H    6.870686   6.356262   7.388581   5.160791   3.971331
    14  H    6.927441   6.349687   7.331236   5.161744   4.117384
    15  H    7.691361   6.725384   7.649851   5.243253   4.555184
                   11         12         13         14         15
    11  O    0.000000
    12  C    2.415743   0.000000
    13  H    3.253315   1.092720   0.000000
    14  H    2.936940   1.094572   1.776832   0.000000
    15  H    2.588352   1.089913   1.786230   1.773736   0.000000
 Symmetry turned off by external request.
 Rotational constants (GHZ):           3.6327411           0.9438995           0.7636039
   265 basis functions,   491 primitive gaussians,   283 cartesian basis functions
    37 alpha electrons       37 beta electrons
       nuclear repulsion energy       508.4369736831 Hartrees.
 NAtoms=   15 NActive=   15 NUniq=   15 SFac= 1.00D+00 NAtFMM=   60 NAOKFM=F Big=F
 ExpMin= 2.97D-02 ExpMax= 1.11D+05 ExpMxC= 1.07D+03 IAcc=3 IRadAn=         5 AccDes= 0.00D+00
 Harris functional with IExCor=  205 and IRadAn=       5 diagonalized for initial guess.
 HarFok:  IExCor=  205 AccDes= 0.00D+00 IRadAn=         5 IDoV= 1 UseB2=F ITyADJ=14
 ICtDFT=  3500011 ScaDFX=  1.000000  1.000000  1.000000  1.000000
 FoFCou: FMM=F IPFlag=           0 FMFlag=      100000 FMFlg1=           0
         NFxFlg=           0 DoJE=T BraDBF=F KetDBF=T FulRan=T
         wScrn=  0.000000 ICntrl=       500 IOpCl=  0 I1Cent=   200000004 NGrid=           0
         NMat0=    1 NMatS0=      1 NMatT0=    0 NMatD0=    1 NMtDS0=    0 NMtDT0=    0
 Symmetry not used in FoFCou.
 SCF Done:  E(RHF) =  -774.181372742     A.U. after   16 cycles
            NFock= 16  Conv=0.38D-08     -V/T= 2.0008

 **********************************************************************

            Population analysis using the SCF Density.

 **********************************************************************

 Alpha  occ. eigenvalues --  -91.99872 -20.55779 -15.63073 -15.57630 -11.38803
 Alpha  occ. eigenvalues --  -11.36123 -11.27746 -11.26359 -11.26354  -9.00087
 Alpha  occ. eigenvalues --   -6.68227  -6.68139  -6.67945  -1.41302  -1.31326
 Alpha  occ. eigenvalues --   -1.23822  -1.07094  -1.04159  -0.98103  -0.85254
 Alpha  occ. eigenvalues --   -0.79957  -0.77255  -0.69929  -0.69168  -0.64613
 Alpha  occ. eigenvalues --   -0.63762  -0.60942  -0.58706  -0.57595  -0.56489
 Alpha  occ. eigenvalues --   -0.53145  -0.50777  -0.45860  -0.44648  -0.44233
 Alpha  occ. eigenvalues --   -0.38723  -0.31721
 Alpha virt. eigenvalues --    0.02941   0.03844   0.04829   0.05147   0.05563
 Alpha virt. eigenvalues --    0.07077   0.08947   0.09729   0.09980   0.11240
 Alpha virt. eigenvalues --    0.11400   0.12263   0.12968   0.13286   0.13526
 Alpha virt. eigenvalues --    0.13897   0.14192   0.15202   0.15617   0.16054
 Alpha virt. eigenvalues --    0.16563   0.16996   0.17847   0.17909   0.19564
 Alpha virt. eigenvalues --    0.20028   0.20490   0.21206   0.21745   0.23123
 Alpha virt. eigenvalues --    0.23923   0.24470   0.25236   0.26136   0.26408
 Alpha virt. eigenvalues --    0.27119   0.28297   0.29645   0.30653   0.30760
 Alpha virt. eigenvalues --    0.31060   0.32598   0.32966   0.33904   0.34760
 Alpha virt. eigenvalues --    0.35623   0.36477   0.36741   0.39100   0.39407
 Alpha virt. eigenvalues --    0.39519   0.40854   0.41529   0.41954   0.42426
 Alpha virt. eigenvalues --    0.43378   0.44683   0.45254   0.46320   0.47454
 Alpha virt. eigenvalues --    0.48239   0.49064   0.50127   0.51196   0.52420
 Alpha virt. eigenvalues --    0.52838   0.53438   0.54614   0.56157   0.57059
 Alpha virt. eigenvalues --    0.57462   0.58528   0.60146   0.60596   0.61635
 Alpha virt. eigenvalues --    0.62441   0.62795   0.63120   0.63634   0.65201
 Alpha virt. eigenvalues --    0.66019   0.67139   0.67769   0.68002   0.68557
 Alpha virt. eigenvalues --    0.69405   0.70850   0.71266   0.72371   0.73341
 Alpha virt. eigenvalues --    0.75719   0.76081   0.76700   0.77540   0.78652
 Alpha virt. eigenvalues --    0.79076   0.80299   0.80770   0.82070   0.83720
 Alpha virt. eigenvalues --    0.85498   0.87032   0.88532   0.88741   0.90683
 Alpha virt. eigenvalues --    0.92330   0.92606   0.92938   0.94134   0.95246
 Alpha virt. eigenvalues --    0.96750   0.97653   0.99900   1.01272   1.02520
 Alpha virt. eigenvalues --    1.03409   1.05134   1.07019   1.07825   1.10727
 Alpha virt. eigenvalues --    1.11407   1.12423   1.13839   1.15029   1.16638
 Alpha virt. eigenvalues --    1.17089   1.20022   1.21155   1.23457   1.24121
 Alpha virt. eigenvalues --    1.26760   1.27713   1.29157   1.30673   1.32361
 Alpha virt. eigenvalues --    1.33401   1.37651   1.37895   1.39900   1.42873
 Alpha virt. eigenvalues --    1.44902   1.45543   1.48893   1.49999   1.52465
 Alpha virt. eigenvalues --    1.55947   1.57493   1.58984   1.60117   1.61806
 Alpha virt. eigenvalues --    1.63149   1.65068   1.65671   1.68494   1.70651
 Alpha virt. eigenvalues --    1.71210   1.75215   1.76586   1.77568   1.80666
 Alpha virt. eigenvalues --    1.81422   1.83189   1.84563   1.85683   1.87234
 Alpha virt. eigenvalues --    1.88687   1.89078   1.91858   1.96165   1.97958
 Alpha virt. eigenvalues --    2.01819   2.02994   2.05588   2.06727   2.10465
 Alpha virt. eigenvalues --    2.11442   2.13817   2.14556   2.17490   2.19967
 Alpha virt. eigenvalues --    2.21396   2.22329   2.22434   2.28335   2.29441
 Alpha virt. eigenvalues --    2.32092   2.34976   2.36837   2.40039   2.41534
 Alpha virt. eigenvalues --    2.42494   2.43425   2.44978   2.48225   2.51106
 Alpha virt. eigenvalues --    2.54936   2.57642   2.61504   2.66788   2.68378
 Alpha virt. eigenvalues --    2.69863   2.73052   2.75979   2.78599   2.81038
 Alpha virt. eigenvalues --    2.83662   2.86470   2.88480   2.90450   2.95581
 Alpha virt. eigenvalues --    2.96478   2.98638   2.99432   3.01787   3.09837
 Alpha virt. eigenvalues --    3.12077   3.21824   3.33344   3.37618   3.45054
 Alpha virt. eigenvalues --    3.60259   3.67146   3.78335   3.80532   3.82268
 Alpha virt. eigenvalues --    3.93721   4.02534   4.15410
          Condensed to atoms (all electrons):
 Mulliken charges:
               1
     1  C    0.539139
     2  N   -0.654832
     3  H   -0.048361
     4  N   -0.605212
     5  C    0.697894
     6  H   -0.249625
     7  C    0.184098
     8  H   -0.377977
     9  S    0.576767
    10  C    0.301028
    11  O   -0.748571
    12  C    0.367979
    13  H   -0.053327
    14  H    0.072220
    15  H   -0.001221
 Sum of Mulliken charges =  -0.00000
 Mulliken charges with hydrogens summed into heavy atoms:
               1
     1  C    0.539139
     2  N   -0.703193
     4  N   -0.605212
     5  C    0.448269
     7  C   -0.193879
     9  S    0.576767
    10  C    0.301028
    11  O   -0.748571
    12  C    0.385651
 Electronic spatial extent (au):  <R**2>=         323312.2255
 Charge=             -0.0000 electrons
 Dipole moment (field-independent basis, Debye):
    X=             -2.1519    Y=             -1.0385    Z=              0.2916  Tot=              2.4071
 NROrb=    265 NOA=    37 NOB=    37 NVA=   228 NVB=   228

 **** Warning!!: The largest alpha MO coefficient is  0.49999652D+02

    12 initial guesses have been made.
 Iteration     1 Dimension    12 NMult     0 NNew     12
 New state      1 was old state      2
 Iteration     2 Dimension    24 NMult    12 NNew     12
 New state      1 was old state      9
 Iteration     3 Dimension    27 NMult    24 NNew      3
 Iteration     4 Dimension    30 NMult    27 NNew      3
 Iteration     5 Dimension    33 NMult    30 NNew      3
 Iteration     6 Dimension    36 NMult    33 NNew      3
 Iteration     7 Dimension    39 NMult    36 NNew      3
 Iteration     8 Dimension    42 NMult    39 NNew      3
 Iteration     9 Dimension    45 NMult    42 NNew      3
 ***********************************************************************
 Stability analysis using <AA,BB:AA,BB> singles matrix:
 ***********************************************************************
 Ground to excited state transition densities written to RWF  633

 Eigenvectors of the stability matrix:
 
 Excited state symmetry could not be determined.
 Eigenvector   1:      Singlet-?Sym  Eigenvalue= 0.1884219  <S**2>=0.000
      36 -> 64         0.10181
      37 -> 44        -0.21317
      37 -> 46         0.46217
      37 -> 47         0.13994
      37 -> 48        -0.26116
 The wavefunction is stable under the perturbations considered.
 The wavefunction is already stable.

 **********************************************************************

            Population analysis using the SCF Density.

 **********************************************************************

 Alpha  occ. eigenvalues --  -91.99872 -20.55779 -15.63073 -15.57630 -11.38803
 Alpha  occ. eigenvalues --  -11.36123 -11.27746 -11.26359 -11.26354  -9.00087
 Alpha  occ. eigenvalues --   -6.68227  -6.68139  -6.67945  -1.41302  -1.31326
 Alpha  occ. eigenvalues --   -1.23822  -1.07094  -1.04159  -0.98103  -0.85254
 Alpha  occ. eigenvalues --   -0.79957  -0.77255  -0.69929  -0.69168  -0.64613
 Alpha  occ. eigenvalues --   -0.63762  -0.60942  -0.58706  -0.57595  -0.56489
 Alpha  occ. eigenvalues --   -0.53145  -0.50777  -0.45860  -0.44648  -0.44233
 Alpha  occ. eigenvalues --   -0.38723  -0.31721
 Alpha virt. eigenvalues --    0.02941   0.03844   0.04829   0.05147   0.05563
 Alpha virt. eigenvalues --    0.07077   0.08947   0.09729   0.09980   0.11240
 Alpha virt. eigenvalues --    0.11400   0.12263   0.12968   0.13286   0.13526
 Alpha virt. eigenvalues --    0.13897   0.14192   0.15202   0.15617   0.16054
 Alpha virt. eigenvalues --    0.16563   0.16996   0.17847   0.17909   0.19564
 Alpha virt. eigenvalues --    0.20028   0.20490   0.21206   0.21745   0.23123
 Alpha virt. eigenvalues --    0.23923   0.24470   0.25236   0.26136   0.26408
 Alpha virt. eigenvalues --    0.27119   0.28297   0.29645   0.30653   0.30760
 Alpha virt. eigenvalues --    0.31060   0.32598   0.32966   0.33904   0.34760
 Alpha virt. eigenvalues --    0.35623   0.36477   0.36741   0.39100   0.39407
 Alpha virt. eigenvalues --    0.39519   0.40854   0.41529   0.41954   0.42426
 Alpha virt. eigenvalues --    0.43378   0.44683   0.45254   0.46320   0.47454
 Alpha virt. eigenvalues --    0.48239   0.49064   0.50127   0.51196   0.52420
 Alpha virt. eigenvalues --    0.52838   0.53438   0.54614   0.56157   0.57059
 Alpha virt. eigenvalues --    0.57462   0.58528   0.60146   0.60596   0.61635
 Alpha virt. eigenvalues --    0.62441   0.62795   0.63120   0.63634   0.65201
 Alpha virt. eigenvalues --    0.66019   0.67139   0.67769   0.68002   0.68557
 Alpha virt. eigenvalues --    0.69405   0.70850   0.71266   0.72371   0.73341
 Alpha virt. eigenvalues --    0.75719   0.76081   0.76700   0.77540   0.78652
 Alpha virt. eigenvalues --    0.79076   0.80299   0.80770   0.82070   0.83720
 Alpha virt. eigenvalues --    0.85498   0.87032   0.88532   0.88741   0.90683
 Alpha virt. eigenvalues --    0.92330   0.92606   0.92938   0.94134   0.95246
 Alpha virt. eigenvalues --    0.96750   0.97653   0.99900   1.01272   1.02520
 Alpha virt. eigenvalues --    1.03409   1.05134   1.07019   1.07825   1.10727
 Alpha virt. eigenvalues --    1.11407   1.12423   1.13839   1.15029   1.16638
 Alpha virt. eigenvalues --    1.17089   1.20022   1.21155   1.23457   1.24121
 Alpha virt. eigenvalues --    1.26760   1.27713   1.29157   1.30673   1.32361
 Alpha virt. eigenvalues --    1.33401   1.37651   1.37895   1.39900   1.42873
 Alpha virt. eigenvalues --    1.44902   1.45543   1.48893   1.49999   1.52465
 Alpha virt. eigenvalues --    1.55947   1.57493   1.58984   1.60117   1.61806
 Alpha virt. eigenvalues --    1.63149   1.65068   1.65671   1.68494   1.70651
 Alpha virt. eigenvalues --    1.71210   1.75215   1.76586   1.77568   1.80666
 Alpha virt. eigenvalues --    1.81422   1.83189   1.84563   1.85683   1.87234
 Alpha virt. eigenvalues --    1.88687   1.89078   1.91858   1.96165   1.97958
 Alpha virt. eigenvalues --    2.01819   2.02994   2.05588   2.06727   2.10465
 Alpha virt. eigenvalues --    2.11442   2.13817   2.14556   2.17490   2.19967
 Alpha virt. eigenvalues --    2.21396   2.22329   2.22434   2.28335   2.29441
 Alpha virt. eigenvalues --    2.32092   2.34976   2.36837   2.40039   2.41534
 Alpha virt. eigenvalues --    2.42494   2.43425   2.44978   2.48225   2.51106
 Alpha virt. eigenvalues --    2.54936   2.57642   2.61504   2.66788   2.68378
 Alpha virt. eigenvalues --    2.69863   2.73052   2.75979   2.78599   2.81038
 Alpha virt. eigenvalues --    2.83662   2.86470   2.88480   2.90450   2.95581
 Alpha virt. eigenvalues --    2.96478   2.98638   2.99432   3.01787   3.09837
 Alpha virt. eigenvalues --    3.12077   3.21824   3.33344   3.37618   3.45054
 Alpha virt. eigenvalues --    3.60259   3.67146   3.78335   3.80532   3.82268
 Alpha virt. eigenvalues --    3.93721   4.02534   4.15410
          Condensed to atoms (all electrons):
 Mulliken charges:
               1
     1  C    0.539139
     2  N   -0.654832
     3  H   -0.048361
     4  N   -0.605212
     5  C    0.697894
     6  H   -0.249625
     7  C    0.184098
     8  H   -0.377977
     9  S    0.576767
    10  C    0.301028
    11  O   -0.748571
    12  C    0.367979
    13  H   -0.053327
    14  H    0.072220
    15  H   -0.001221
 Sum of Mulliken charges =  -0.00000
 Mulliken charges with hydrogens summed into heavy atoms:
               1
     1  C    0.539139
     2  N   -0.703193
     4  N   -0.605212
     5  C    0.448269
     7  C   -0.193879
     9  S    0.576767
    10  C    0.301028
    11  O   -0.748571
    12  C    0.385651
 Electronic spatial extent (au):  <R**2>=         323312.2255
 Charge=             -0.0000 electrons
 Dipole moment (field-independent basis, Debye):
    X=             -2.1519    Y=             -1.0385    Z=              0.2916  Tot=              2.4071
 Unable to Open any file for archive entry.
 1\1\GINC-SE454\Stability\RHF\Aug-CC-pVDZ\C5H6N2O1S1\OHZDE\09-Apr-2025\
 0\\#t hf aug-cc-pvdz symm=none int=(grid=ultrafine) guess=(read,tcheck
 ) stable=(opt,rrhf)\\title\\0,1\C,0,28.9895,-15.6633,-0.5552\N,0,29.30
 66,-16.8862,0.0175\H,0,28.5758,-17.5848,0.0881\N,0,30.7355,-18.7581,-0
 .011\C,0,32.0733,-19.0644,0.0074\H,0,32.3792,-20.1036,0.0021\C,0,32.92
 81,-17.9868,0.0115\H,0,34.0095,-17.9865,-0.0101\S,0,32.037,-16.5171,-0
 .0138\C,0,30.5839,-17.4503,-0.0116\O,0,29.8489,-14.8479,-0.8511\C,0,27
 .5081,-15.4376,-0.7577\H,0,26.9077,-15.948,-0.0007\H,0,27.2245,-15.817
 7,-1.7442\H,0,27.3087,-14.3665,-0.7278\\Version=ES64L-G16RevC.01\HF=-7
 74.1813727\RMSD=3.839e-09\Dipole=-0.8466148,-0.4085698,0.1147426\Quadr
 upole=-62.9545201,43.15782,19.7967001,-0.1462739,7.8583614,-2.1322499\
 PG=Unknown\\@
 The archive entry for this job was punched.


 Boundary, n.  In political geography, an imaginary
 line between two nations, separating the imaginary
 rights of one from the imaginary rights of another.
                               -- Ambrose Bierce
 Job cpu time:       0 days  0 hours 13 minutes 35.7 seconds.
 Elapsed time:       0 days  0 hours  0 minutes 56.4 seconds.
 File lengths (MBytes):  RWF=    359 Int=      0 D2E=      0 Chk=     10 Scr=      1
 Normal termination of Gaussian 16 at Wed Apr  9 02:27:31 2025.
 Initial command:
 /arc/software/Gaussian/g16.c01/l1.exe "/tmp/slurm/4857409/Gau-408584.inp" -scrdir="/tmp/slurm/4857409/"
 Entering Link 1 = /arc/software/Gaussian/g16.c01/l1.exe PID=    408813.
  
 Copyright (c) 1988-2019, Gaussian, Inc.  All Rights Reserved.
  
 This is part of the Gaussian(R) 16 program.  It is based on
 the Gaussian(R) 09 system (copyright 2009, Gaussian, Inc.),
 the Gaussian(R) 03 system (copyright 2003, Gaussian, Inc.),
 the Gaussian(R) 98 system (copyright 1998, Gaussian, Inc.),
 the Gaussian(R) 94 system (copyright 1995, Gaussian, Inc.),
 the Gaussian 92(TM) system (copyright 1992, Gaussian, Inc.),
 the Gaussian 90(TM) system (copyright 1990, Gaussian, Inc.),
 the Gaussian 88(TM) system (copyright 1988, Gaussian, Inc.),
 the Gaussian 86(TM) system (copyright 1986, Carnegie Mellon
 University), and the Gaussian 82(TM) system (copyright 1983,
 Carnegie Mellon University). Gaussian is a federally registered
 trademark of Gaussian, Inc.
  
 This software contains proprietary and confidential information,
 including trade secrets, belonging to Gaussian, Inc.
  
 This software is provided under written license and may be
 used, copied, transmitted, or stored only in accord with that
 written license.
  
 The following legend is applicable only to US Government
 contracts under FAR:
  
                    RESTRICTED RIGHTS LEGEND
  
 Use, reproduction and disclosure by the US Government is
 subject to restrictions as set forth in subparagraphs (a)
 and (c) of the Commercial Computer Software - Restricted
 Rights clause in FAR 52.227-19.
  
 Gaussian, Inc.
 340 Quinnipiac St., Bldg. 40, Wallingford CT 06492
  
  
 ---------------------------------------------------------------
 Warning -- This program may not be used in any manner that
 competes with the business of Gaussian, Inc. or will provide
 assistance to any competitor of Gaussian, Inc.  The licensee
 of this program is prohibited from giving any competitor of
 Gaussian, Inc. access to this program.  By using this program,
 the user acknowledges that Gaussian, Inc. is engaged in the
 business of creating and licensing software in the field of
 computational chemistry and represents and warrants to the
 licensee that it is not a competitor of Gaussian, Inc. and that
 it will not use this program in any manner prohibited above.
 ---------------------------------------------------------------
  

 Cite this work as:
 Gaussian 16, Revision C.01,
 M. J. Frisch, G. W. Trucks, H. B. Schlegel, G. E. Scuseria, 
 M. A. Robb, J. R. Cheeseman, G. Scalmani, V. Barone, 
 G. A. Petersson, H. Nakatsuji, X. Li, M. Caricato, A. V. Marenich, 
 J. Bloino, B. G. Janesko, R. Gomperts, B. Mennucci, H. P. Hratchian, 
 J. V. Ortiz, A. F. Izmaylov, J. L. Sonnenberg, D. Williams-Young, 
 F. Ding, F. Lipparini, F. Egidi, J. Goings, B. Peng, A. Petrone, 
 T. Henderson, D. Ranasinghe, V. G. Zakrzewski, J. Gao, N. Rega, 
 G. Zheng, W. Liang, M. Hada, M. Ehara, K. Toyota, R. Fukuda, 
 J. Hasegawa, M. Ishida, T. Nakajima, Y. Honda, O. Kitao, H. Nakai, 
 T. Vreven, K. Throssell, J. A. Montgomery, Jr., J. E. Peralta, 
 F. Ogliaro, M. J. Bearpark, J. J. Heyd, E. N. Brothers, K. N. Kudin, 
 V. N. Staroverov, T. A. Keith, R. Kobayashi, J. Normand, 
 K. Raghavachari, A. P. Rendell, J. C. Burant, S. S. Iyengar, 
 J. Tomasi, M. Cossi, J. M. Millam, M. Klene, C. Adamo, R. Cammi, 
 J. W. Ochterski, R. L. Martin, K. Morokuma, O. Farkas, 
 J. B. Foresman, and D. J. Fox, Gaussian, Inc., Wallingford CT, 2019.
 
 ******************************************
 Gaussian 16:  ES64L-G16RevC.01  3-Jul-2019
                 9-Apr-2025 
 ******************************************
 %nprocs=16
 Will use up to   16 processors via shared memory.
 %mem=30GB
 %chk=DCONF_42_-150_mol1.chk
 ----------------------------------------------------------------------
 #t hf aug-cc-pvdz iop(5/13=1,5/36=2,99/5=2) pseudo=read geom=check gue
 ss=(read,tcheck) scf=(maxcycle=1)
 ----------------------------------------------------------------------
 -----
 title
 -----
 Structure from the checkpoint file:  "DCONF_42_-150_mol1.chk"
 Charge =  0 Multiplicity = 1
 Z-Matrix found in chk file.
 C,0,28.9895,-15.6633,-0.5552
 N,0,29.3066,-16.8862,0.0175
 H,0,28.5758,-17.5848,0.0881
 N,0,30.7355,-18.7581,-0.011
 C,0,32.0733,-19.0644,0.0074
 H,0,32.3792,-20.1036,0.0021
 C,0,32.9281,-17.9868,0.0115
 H,0,34.0095,-17.9865,-0.0101
 S,0,32.037,-16.5171,-0.0138
 C,0,30.5839,-17.4503,-0.0116
 O,0,29.8489,-14.8479,-0.8511
 C,0,27.5081,-15.4376,-0.7577
 H,0,26.9077,-15.948,-0.0007
 H,0,27.2245,-15.8177,-1.7442
 H,0,27.3087,-14.3665,-0.7278
 Recover connectivity data from disk.
                    Distance matrix (angstroms):
                    1          2          3          4          5
     1  C    0.000000
     2  N    1.387091   0.000000
     3  H    2.068126   1.013457   0.000000
     4  N    3.594782   2.355117   2.459829   0.000000
     5  C    4.625346   3.521262   3.798452   1.372540   0.000000
     6  H    5.613993   4.448907   4.562631   2.124216   1.083300
     7  C    4.607860   3.785052   4.371497   2.324415   1.375471
     8  H    5.558308   4.829978   5.449413   3.363695   2.216088
     9  S    3.210817   2.755413   3.623572   2.591523   2.547647
    10  C    2.455806   1.396621   2.015067   1.316558   2.196359
    11  O    1.221066   2.281057   3.161250   4.096522   4.843950
    12  C    1.512115   2.435976   2.542799   4.690351   5.880485
    13  H    2.173112   2.575902   2.338708   4.748560   6.032863
    14  H    2.133726   2.929235   2.882009   4.896637   6.092621
    15  H    2.129922   3.300904   3.553687   5.616308   6.731433
                    6          7          8          9         10
     6  H    0.000000
     7  C    2.186829   0.000000
     8  H    2.672104   1.081616   0.000000
     9  S    3.602823   1.718929   2.459656   0.000000
    10  C    3.203637   2.404920   3.467311   1.726953   0.000000
    11  O    5.895146   4.480875   5.279080   2.876644   2.831514
    12  C    6.787965   6.038749   7.023105   4.714832   3.750756
    13  H    6.870686   6.356262   7.388581   5.160791   3.971331
    14  H    6.927441   6.349687   7.331236   5.161744   4.117384
    15  H    7.691361   6.725384   7.649851   5.243253   4.555184
                   11         12         13         14         15
    11  O    0.000000
    12  C    2.415743   0.000000
    13  H    3.253315   1.092720   0.000000
    14  H    2.936940   1.094572   1.776832   0.000000
    15  H    2.588352   1.089913   1.786230   1.773736   0.000000
 Framework group  C1[X(C5H6N2OS)]
 Deg. of freedom    39
                         Standard orientation:                         
 ---------------------------------------------------------------------
 Center     Atomic      Atomic             Coordinates (Angstroms)
 Number     Number       Type             X           Y           Z
 ---------------------------------------------------------------------
      1          6           0       -1.990541   -0.121110    0.026073
      2          7           0       -0.968717    0.745422   -0.333121
      3          1           0       -1.168629    1.738801   -0.351201
      4          7           0        1.237407    1.460071    0.077822
      5          6           0        2.505610    0.950086    0.202089
      6          1           0        3.332844    1.625290    0.384637
      7          6           0        2.607185   -0.417739    0.098857
      8          1           0        3.489299   -1.035710    0.198249
      9         16           0        1.057154   -1.114205   -0.160099
     10          6           0        0.386379    0.476829   -0.127877
     11          8           0       -1.782731   -1.301764    0.258177
     12          6           0       -3.358064    0.521462    0.085016
     13          1           0       -3.456849    1.343032   -0.628638
     14          1           0       -3.521239    0.912824    1.094124
     15          1           0       -4.112284   -0.238470   -0.118859
 ---------------------------------------------------------------------
 Rotational constants (GHZ):           3.6327411           0.9438995           0.7636039
 ======================================================================================================
                                       Pseudopotential Parameters
 ======================================================================================================
  Center     Atomic      Valence      Angular      Power
  Number     Number     Electrons     Momentum     of R      Exponent        Coefficient   SO-Coeffient
 ======================================================================================================
    1          6            6
                                      G and up 
                                                     0        0.0000010       -0.00286759    0.00000000
                                                     2        0.1200000        0.03193960    0.00000000
                                                     2        0.1600000       -0.04027782    0.00000000
                                                     2        0.2600000        0.24782456    0.00000000
                                                     2        0.4000000       -0.62266671    0.00000000
                                                     2        0.7000000        0.35695227    0.00000000
                                      S - G
                                                     0        0.0000010       -0.06602313    0.00000000
                                                     2        0.1200000        1.47277455    0.00000000
                                                     2        0.1600000       -4.06924166    0.00000000
                                                     2        0.3000000        5.02952802    0.00000000
                                                     2        0.7000000       -5.65856978    0.00000000
                                                     2        1.7000000        8.57604414    0.00000000
                                      P - G
                                                     0        0.0000010        0.49434425    0.00000000
                                                     2        0.1200000       -1.37391547    0.00000000
                                                     2        0.1600000        3.65411806    0.00000000
                                                     2        0.2800000       -7.36479843    0.00000000
                                                     2        0.6000000       17.22091285    0.00000000
                                                     2        1.1000000      -23.50107827    0.00000000
                                                     2        3.0000000       16.29464063    0.00000000
                                      D - G
                                                     0        0.0000010       -0.28693103    0.00000000
                                                     2        0.1200000        0.12273044    0.00000000
                                                     2        0.3000000       -0.43416384    0.00000000
                                                     2        0.7000000        2.23358493    0.00000000
                                      F - G
                                                     0        0.0000010        0.07263570    0.00000000
                                                     2        0.1400000       -0.76152861    0.00000000
                                                     2        0.2200000        1.98045593    0.00000000
                                                     2        0.4000000       -2.42426427    0.00000000
                                                     2        0.7000000        0.52335237    0.00000000
    2          7            7
                                      G and up 
                                                     0        0.0000010        0.00420138    0.00000000
                                                     2        0.1200000        0.05872431    0.00000000
                                                     2        0.1400000       -0.08436978    0.00000000
                                                     2        0.2000000        0.05409159    0.00000000
                                                     2        0.2600000        0.14199713    0.00000000
                                                     2        0.6000000       -0.79062770    0.00000000
                                                     2        0.7000000       -0.14441060    0.00000000
                                                     2        1.5000000        0.73772979    0.00000000
                                      S - G
                                                     0        0.0000010       -0.03094411    0.00000000
                                                     2        0.1200000        0.65332522    0.00000000
                                                     2        0.1800000       -1.38149133    0.00000000
                                                     2        1.3000000        3.29267299    0.00000000
                                      P - G
                                                     0        0.0000010        0.07303105    0.00000000
                                                     2        0.1200000        0.23145115    0.00000000
                                                     2        0.2000000       -1.20679699    0.00000000
                                                     2        0.4000000        1.75088447    0.00000000
                                                     2        1.2000000       -0.67486559    0.00000000
                                      D - G
                                                     0        0.0000010        0.07560739    0.00000000
                                                     2        0.3000000       -0.68679114    0.00000000
                                                     2        0.9000000        3.60133241    0.00000000
                                      F - G
                                                     0        0.0000010       -0.18221184    0.00000000
                                                     2        0.1200000       -0.39369067    0.00000000
                                                     2        0.1800000        0.72091725    0.00000000
                                                     2        0.6000000        0.15946111    0.00000000
    3          1            1
                                      F and up 
                                                     0        0.0000010        0.00072061    0.00000000
                                                     2        0.1200000        0.03832357    0.00000000
                                                     2        0.1400000       -0.08683256    0.00000000
                                                     2        0.1800000        0.09312970    0.00000000
                                                     2        0.2800000       -0.02532572    0.00000000
                                                     2        0.4000000       -0.09430787    0.00000000
                                                     2        0.7000000        0.42710831    0.00000000
                                                     2        1.2000000       -2.11746981    0.00000000
                                      S - F
                                                     0        0.0000010        0.14449603    0.00000000
                                                     2        0.1200000       -0.56378993    0.00000000
                                                     2        0.1400000        0.63941249    0.00000000
                                                     2        0.2600000       -0.58461015    0.00000000
                                                     2        0.5000000        1.00157293    0.00000000
                                                     2        1.8000000       -0.14135838    0.00000000
                                      P - F
                                                     0        0.0000010       -0.09353646    0.00000000
                                                     2        0.1200000        0.31768975    0.00000000
                                                     2        0.2000000       -0.71747951    0.00000000
                                                     2        0.4000000        0.65752308    0.00000000
                                                     2        1.7000000        2.94052587    0.00000000
                                      D - F
                                                     0        0.0000010       -0.04491202    0.00000000
                                                     2        0.1200000       -0.02862031    0.00000000
                                                     2        0.1800000       -0.21515263    0.00000000
                                                     2        0.3000000        0.80560647    0.00000000
                                                     2        0.4000000        0.47351754    0.00000000
                                                     2        0.7000000       -4.57051794    0.00000000
                                                     2        1.6000000       18.53737826    0.00000000
    4          7            7
                                      G and up 
                                                     0        0.0000010        0.00420138    0.00000000
                                                     2        0.1200000        0.05872431    0.00000000
                                                     2        0.1400000       -0.08436978    0.00000000
                                                     2        0.2000000        0.05409159    0.00000000
                                                     2        0.2600000        0.14199713    0.00000000
                                                     2        0.6000000       -0.79062770    0.00000000
                                                     2        0.7000000       -0.14441060    0.00000000
                                                     2        1.5000000        0.73772979    0.00000000
                                      S - G
                                                     0        0.0000010       -0.03094411    0.00000000
                                                     2        0.1200000        0.65332522    0.00000000
                                                     2        0.1800000       -1.38149133    0.00000000
                                                     2        1.3000000        3.29267299    0.00000000
                                      P - G
                                                     0        0.0000010        0.07303105    0.00000000
                                                     2        0.1200000        0.23145115    0.00000000
                                                     2        0.2000000       -1.20679699    0.00000000
                                                     2        0.4000000        1.75088447    0.00000000
                                                     2        1.2000000       -0.67486559    0.00000000
                                      D - G
                                                     0        0.0000010        0.07560739    0.00000000
                                                     2        0.3000000       -0.68679114    0.00000000
                                                     2        0.9000000        3.60133241    0.00000000
                                      F - G
                                                     0        0.0000010       -0.18221184    0.00000000
                                                     2        0.1200000       -0.39369067    0.00000000
                                                     2        0.1800000        0.72091725    0.00000000
                                                     2        0.6000000        0.15946111    0.00000000
    5          6            6
                                      G and up 
                                                     0        0.0000010       -0.00286759    0.00000000
                                                     2        0.1200000        0.03193960    0.00000000
                                                     2        0.1600000       -0.04027782    0.00000000
                                                     2        0.2600000        0.24782456    0.00000000
                                                     2        0.4000000       -0.62266671    0.00000000
                                                     2        0.7000000        0.35695227    0.00000000
                                      S - G
                                                     0        0.0000010       -0.06602313    0.00000000
                                                     2        0.1200000        1.47277455    0.00000000
                                                     2        0.1600000       -4.06924166    0.00000000
                                                     2        0.3000000        5.02952802    0.00000000
                                                     2        0.7000000       -5.65856978    0.00000000
                                                     2        1.7000000        8.57604414    0.00000000
                                      P - G
                                                     0        0.0000010        0.49434425    0.00000000
                                                     2        0.1200000       -1.37391547    0.00000000
                                                     2        0.1600000        3.65411806    0.00000000
                                                     2        0.2800000       -7.36479843    0.00000000
                                                     2        0.6000000       17.22091285    0.00000000
                                                     2        1.1000000      -23.50107827    0.00000000
                                                     2        3.0000000       16.29464063    0.00000000
                                      D - G
                                                     0        0.0000010       -0.28693103    0.00000000
                                                     2        0.1200000        0.12273044    0.00000000
                                                     2        0.3000000       -0.43416384    0.00000000
                                                     2        0.7000000        2.23358493    0.00000000
                                      F - G
                                                     0        0.0000010        0.07263570    0.00000000
                                                     2        0.1400000       -0.76152861    0.00000000
                                                     2        0.2200000        1.98045593    0.00000000
                                                     2        0.4000000       -2.42426427    0.00000000
                                                     2        0.7000000        0.52335237    0.00000000
    6          1            1
                                      F and up 
                                                     0        0.0000010        0.00072061    0.00000000
                                                     2        0.1200000        0.03832357    0.00000000
                                                     2        0.1400000       -0.08683256    0.00000000
                                                     2        0.1800000        0.09312970    0.00000000
                                                     2        0.2800000       -0.02532572    0.00000000
                                                     2        0.4000000       -0.09430787    0.00000000
                                                     2        0.7000000        0.42710831    0.00000000
                                                     2        1.2000000       -2.11746981    0.00000000
                                      S - F
                                                     0        0.0000010        0.14449603    0.00000000
                                                     2        0.1200000       -0.56378993    0.00000000
                                                     2        0.1400000        0.63941249    0.00000000
                                                     2        0.2600000       -0.58461015    0.00000000
                                                     2        0.5000000        1.00157293    0.00000000
                                                     2        1.8000000       -0.14135838    0.00000000
                                      P - F
                                                     0        0.0000010       -0.09353646    0.00000000
                                                     2        0.1200000        0.31768975    0.00000000
                                                     2        0.2000000       -0.71747951    0.00000000
                                                     2        0.4000000        0.65752308    0.00000000
                                                     2        1.7000000        2.94052587    0.00000000
                                      D - F
                                                     0        0.0000010       -0.04491202    0.00000000
                                                     2        0.1200000       -0.02862031    0.00000000
                                                     2        0.1800000       -0.21515263    0.00000000
                                                     2        0.3000000        0.80560647    0.00000000
                                                     2        0.4000000        0.47351754    0.00000000
                                                     2        0.7000000       -4.57051794    0.00000000
                                                     2        1.6000000       18.53737826    0.00000000
    7          6            6
                                      G and up 
                                                     0        0.0000010       -0.00286759    0.00000000
                                                     2        0.1200000        0.03193960    0.00000000
                                                     2        0.1600000       -0.04027782    0.00000000
                                                     2        0.2600000        0.24782456    0.00000000
                                                     2        0.4000000       -0.62266671    0.00000000
                                                     2        0.7000000        0.35695227    0.00000000
                                      S - G
                                                     0        0.0000010       -0.06602313    0.00000000
                                                     2        0.1200000        1.47277455    0.00000000
                                                     2        0.1600000       -4.06924166    0.00000000
                                                     2        0.3000000        5.02952802    0.00000000
                                                     2        0.7000000       -5.65856978    0.00000000
                                                     2        1.7000000        8.57604414    0.00000000
                                      P - G
                                                     0        0.0000010        0.49434425    0.00000000
                                                     2        0.1200000       -1.37391547    0.00000000
                                                     2        0.1600000        3.65411806    0.00000000
                                                     2        0.2800000       -7.36479843    0.00000000
                                                     2        0.6000000       17.22091285    0.00000000
                                                     2        1.1000000      -23.50107827    0.00000000
                                                     2        3.0000000       16.29464063    0.00000000
                                      D - G
                                                     0        0.0000010       -0.28693103    0.00000000
                                                     2        0.1200000        0.12273044    0.00000000
                                                     2        0.3000000       -0.43416384    0.00000000
                                                     2        0.7000000        2.23358493    0.00000000
                                      F - G
                                                     0        0.0000010        0.07263570    0.00000000
                                                     2        0.1400000       -0.76152861    0.00000000
                                                     2        0.2200000        1.98045593    0.00000000
                                                     2        0.4000000       -2.42426427    0.00000000
                                                     2        0.7000000        0.52335237    0.00000000
    8          1            1
                                      F and up 
                                                     0        0.0000010        0.00072061    0.00000000
                                                     2        0.1200000        0.03832357    0.00000000
                                                     2        0.1400000       -0.08683256    0.00000000
                                                     2        0.1800000        0.09312970    0.00000000
                                                     2        0.2800000       -0.02532572    0.00000000
                                                     2        0.4000000       -0.09430787    0.00000000
                                                     2        0.7000000        0.42710831    0.00000000
                                                     2        1.2000000       -2.11746981    0.00000000
                                      S - F
                                                     0        0.0000010        0.14449603    0.00000000
                                                     2        0.1200000       -0.56378993    0.00000000
                                                     2        0.1400000        0.63941249    0.00000000
                                                     2        0.2600000       -0.58461015    0.00000000
                                                     2        0.5000000        1.00157293    0.00000000
                                                     2        1.8000000       -0.14135838    0.00000000
                                      P - F
                                                     0        0.0000010       -0.09353646    0.00000000
                                                     2        0.1200000        0.31768975    0.00000000
                                                     2        0.2000000       -0.71747951    0.00000000
                                                     2        0.4000000        0.65752308    0.00000000
                                                     2        1.7000000        2.94052587    0.00000000
                                      D - F
                                                     0        0.0000010       -0.04491202    0.00000000
                                                     2        0.1200000       -0.02862031    0.00000000
                                                     2        0.1800000       -0.21515263    0.00000000
                                                     2        0.3000000        0.80560647    0.00000000
                                                     2        0.4000000        0.47351754    0.00000000
                                                     2        0.7000000       -4.57051794    0.00000000
                                                     2        1.6000000       18.53737826    0.00000000
    9         16           16
                                      G and up 
                                                     0        0.0000010       -0.00444167    0.00000000
                                                     2        0.1200000        0.11677988    0.00000000
                                                     2        0.1400000       -0.22050378    0.00000000
                                                     2        0.1800000        0.26452031    0.00000000
                                                     2        0.2800000       -0.04353316    0.00000000
                                                     2        0.5000000       -1.18567514    0.00000000
                                      S - G
                                                     0        0.0000010        0.03992419    0.00000000
                                                     2        0.1200000       -0.56926432    0.00000000
                                                     2        0.3000000        0.88393965    0.00000000
                                      P - G
                                                     0        0.0000010       -0.92181603    0.00000000
                                                     2        0.1200000        1.30681810    0.00000000
                                                     2        0.2000000       -1.50828653    0.00000000
                                                     2        0.2400000       -2.25148793    0.00000000
                                                     2        0.6000000       10.10218731    0.00000000
                                      D - G
                                                     0        0.0000010        0.72039481    0.00000000
                                                     2        0.1200000       -0.56105075    0.00000000
                                                     2        0.2000000        0.42910414    0.00000000
                                                     2        0.8000000        0.44203418    0.00000000
                                      F - G
                                                     2        0.1200000       -0.62623060    0.00000000
                                                     2        0.1800000        0.89777932    0.00000000
                                                     2        0.5000000       -1.32991832    0.00000000
   10          6            6
                                      G and up 
                                                     0        0.0000010       -0.00286759    0.00000000
                                                     2        0.1200000        0.03193960    0.00000000
                                                     2        0.1600000       -0.04027782    0.00000000
                                                     2        0.2600000        0.24782456    0.00000000
                                                     2        0.4000000       -0.62266671    0.00000000
                                                     2        0.7000000        0.35695227    0.00000000
                                      S - G
                                                     0        0.0000010       -0.06602313    0.00000000
                                                     2        0.1200000        1.47277455    0.00000000
                                                     2        0.1600000       -4.06924166    0.00000000
                                                     2        0.3000000        5.02952802    0.00000000
                                                     2        0.7000000       -5.65856978    0.00000000
                                                     2        1.7000000        8.57604414    0.00000000
                                      P - G
                                                     0        0.0000010        0.49434425    0.00000000
                                                     2        0.1200000       -1.37391547    0.00000000
                                                     2        0.1600000        3.65411806    0.00000000
                                                     2        0.2800000       -7.36479843    0.00000000
                                                     2        0.6000000       17.22091285    0.00000000
                                                     2        1.1000000      -23.50107827    0.00000000
                                                     2        3.0000000       16.29464063    0.00000000
                                      D - G
                                                     0        0.0000010       -0.28693103    0.00000000
                                                     2        0.1200000        0.12273044    0.00000000
                                                     2        0.3000000       -0.43416384    0.00000000
                                                     2        0.7000000        2.23358493    0.00000000
                                      F - G
                                                     0        0.0000010        0.07263570    0.00000000
                                                     2        0.1400000       -0.76152861    0.00000000
                                                     2        0.2200000        1.98045593    0.00000000
                                                     2        0.4000000       -2.42426427    0.00000000
                                                     2        0.7000000        0.52335237    0.00000000
   11          8            8
                                      G and up 
                                                     0        0.0000010       -0.00165251    0.00000000
                                                     2        0.1200000       -0.10937202    0.00000000
                                                     2        0.1400000        0.35668905    0.00000000
                                                     2        0.1800000       -0.51696033    0.00000000
                                                     2        0.2400000        0.52446472    0.00000000
                                                     2        0.4000000       -0.07754493    0.00000000
                                                     2        0.8000000       -1.90560988    0.00000000
                                                     2        1.7000000        0.19857963    0.00000000
                                      S - G
                                                     0        0.0000010       -0.03845181    0.00000000
                                                     2        0.1400000        0.42024558    0.00000000
                                                     2        0.4000000       -4.10467779    0.00000000
                                                     2        1.3000000        9.99571838    0.00000000
                                      P - G
                                                     0        0.0000010        0.33206183    0.00000000
                                                     2        0.1200000       -0.18708141    0.00000000
                                                     2        0.2800000       -0.18179081    0.00000000
                                                     2        0.7000000        1.18820394    0.00000000
                                      D - G
                                                     0        0.0000010       -0.57891674    0.00000000
                                                     2        0.1200000        0.60487490    0.00000000
                                                     2        0.2400000       -0.24931464    0.00000000
                                                     2        0.3000000       -2.75054612    0.00000000
                                                     2        1.0000000       15.96776040    0.00000000
                                      F - G
                                                     0        0.0000010        0.37449041    0.00000000
                                                     2        0.1200000       -0.63373642    0.00000000
                                                     2        0.1400000       -0.08412804    0.00000000
                                                     2        0.2800000        2.62321406    0.00000000
                                                     2        0.6000000       -2.68223623    0.00000000
   12          6            6
                                      G and up 
                                                     0        0.0000010       -0.00286759    0.00000000
                                                     2        0.1200000        0.03193960    0.00000000
                                                     2        0.1600000       -0.04027782    0.00000000
                                                     2        0.2600000        0.24782456    0.00000000
                                                     2        0.4000000       -0.62266671    0.00000000
                                                     2        0.7000000        0.35695227    0.00000000
                                      S - G
                                                     0        0.0000010       -0.06602313    0.00000000
                                                     2        0.1200000        1.47277455    0.00000000
                                                     2        0.1600000       -4.06924166    0.00000000
                                                     2        0.3000000        5.02952802    0.00000000
                                                     2        0.7000000       -5.65856978    0.00000000
                                                     2        1.7000000        8.57604414    0.00000000
                                      P - G
                                                     0        0.0000010        0.49434425    0.00000000
                                                     2        0.1200000       -1.37391547    0.00000000
                                                     2        0.1600000        3.65411806    0.00000000
                                                     2        0.2800000       -7.36479843    0.00000000
                                                     2        0.6000000       17.22091285    0.00000000
                                                     2        1.1000000      -23.50107827    0.00000000
                                                     2        3.0000000       16.29464063    0.00000000
                                      D - G
                                                     0        0.0000010       -0.28693103    0.00000000
                                                     2        0.1200000        0.12273044    0.00000000
                                                     2        0.3000000       -0.43416384    0.00000000
                                                     2        0.7000000        2.23358493    0.00000000
                                      F - G
                                                     0        0.0000010        0.07263570    0.00000000
                                                     2        0.1400000       -0.76152861    0.00000000
                                                     2        0.2200000        1.98045593    0.00000000
                                                     2        0.4000000       -2.42426427    0.00000000
                                                     2        0.7000000        0.52335237    0.00000000
   13          1            1
                                      F and up 
                                                     0        0.0000010        0.00072061    0.00000000
                                                     2        0.1200000        0.03832357    0.00000000
                                                     2        0.1400000       -0.08683256    0.00000000
                                                     2        0.1800000        0.09312970    0.00000000
                                                     2        0.2800000       -0.02532572    0.00000000
                                                     2        0.4000000       -0.09430787    0.00000000
                                                     2        0.7000000        0.42710831    0.00000000
                                                     2        1.2000000       -2.11746981    0.00000000
                                      S - F
                                                     0        0.0000010        0.14449603    0.00000000
                                                     2        0.1200000       -0.56378993    0.00000000
                                                     2        0.1400000        0.63941249    0.00000000
                                                     2        0.2600000       -0.58461015    0.00000000
                                                     2        0.5000000        1.00157293    0.00000000
                                                     2        1.8000000       -0.14135838    0.00000000
                                      P - F
                                                     0        0.0000010       -0.09353646    0.00000000
                                                     2        0.1200000        0.31768975    0.00000000
                                                     2        0.2000000       -0.71747951    0.00000000
                                                     2        0.4000000        0.65752308    0.00000000
                                                     2        1.7000000        2.94052587    0.00000000
                                      D - F
                                                     0        0.0000010       -0.04491202    0.00000000
                                                     2        0.1200000       -0.02862031    0.00000000
                                                     2        0.1800000       -0.21515263    0.00000000
                                                     2        0.3000000        0.80560647    0.00000000
                                                     2        0.4000000        0.47351754    0.00000000
                                                     2        0.7000000       -4.57051794    0.00000000
                                                     2        1.6000000       18.53737826    0.00000000
   14          1            1
                                      F and up 
                                                     0        0.0000010        0.00072061    0.00000000
                                                     2        0.1200000        0.03832357    0.00000000
                                                     2        0.1400000       -0.08683256    0.00000000
                                                     2        0.1800000        0.09312970    0.00000000
                                                     2        0.2800000       -0.02532572    0.00000000
                                                     2        0.4000000       -0.09430787    0.00000000
                                                     2        0.7000000        0.42710831    0.00000000
                                                     2        1.2000000       -2.11746981    0.00000000
                                      S - F
                                                     0        0.0000010        0.14449603    0.00000000
                                                     2        0.1200000       -0.56378993    0.00000000
                                                     2        0.1400000        0.63941249    0.00000000
                                                     2        0.2600000       -0.58461015    0.00000000
                                                     2        0.5000000        1.00157293    0.00000000
                                                     2        1.8000000       -0.14135838    0.00000000
                                      P - F
                                                     0        0.0000010       -0.09353646    0.00000000
                                                     2        0.1200000        0.31768975    0.00000000
                                                     2        0.2000000       -0.71747951    0.00000000
                                                     2        0.4000000        0.65752308    0.00000000
                                                     2        1.7000000        2.94052587    0.00000000
                                      D - F
                                                     0        0.0000010       -0.04491202    0.00000000
                                                     2        0.1200000       -0.02862031    0.00000000
                                                     2        0.1800000       -0.21515263    0.00000000
                                                     2        0.3000000        0.80560647    0.00000000
                                                     2        0.4000000        0.47351754    0.00000000
                                                     2        0.7000000       -4.57051794    0.00000000
                                                     2        1.6000000       18.53737826    0.00000000
   15          1            1
                                      F and up 
                                                     0        0.0000010        0.00072061    0.00000000
                                                     2        0.1200000        0.03832357    0.00000000
                                                     2        0.1400000       -0.08683256    0.00000000
                                                     2        0.1800000        0.09312970    0.00000000
                                                     2        0.2800000       -0.02532572    0.00000000
                                                     2        0.4000000       -0.09430787    0.00000000
                                                     2        0.7000000        0.42710831    0.00000000
                                                     2        1.2000000       -2.11746981    0.00000000
                                      S - F
                                                     0        0.0000010        0.14449603    0.00000000
                                                     2        0.1200000       -0.56378993    0.00000000
                                                     2        0.1400000        0.63941249    0.00000000
                                                     2        0.2600000       -0.58461015    0.00000000
                                                     2        0.5000000        1.00157293    0.00000000
                                                     2        1.8000000       -0.14135838    0.00000000
                                      P - F
                                                     0        0.0000010       -0.09353646    0.00000000
                                                     2        0.1200000        0.31768975    0.00000000
                                                     2        0.2000000       -0.71747951    0.00000000
                                                     2        0.4000000        0.65752308    0.00000000
                                                     2        1.7000000        2.94052587    0.00000000
                                      D - F
                                                     0        0.0000010       -0.04491202    0.00000000
                                                     2        0.1200000       -0.02862031    0.00000000
                                                     2        0.1800000       -0.21515263    0.00000000
                                                     2        0.3000000        0.80560647    0.00000000
                                                     2        0.4000000        0.47351754    0.00000000
                                                     2        0.7000000       -4.57051794    0.00000000
                                                     2        1.6000000       18.53737826    0.00000000
 ======================================================================================================
   265 basis functions,   491 primitive gaussians,   283 cartesian basis functions
    37 alpha electrons       37 beta electrons
       nuclear repulsion energy       508.4369736831 Hartrees.
 NAtoms=   15 NActive=   15 NUniq=   15 SFac= 1.00D+00 NAtFMM=   60 NAOKFM=F Big=F
   1 Symmetry operations used in ECPInt.
 ECPInt:  NShTT=    6441 NPrTT=   36815 LenC2=    6383 LenP2D=   25769.
 LDataN:  DoStor=T MaxTD1= 6 Len=  172
 Initial guess from the checkpoint file:  "DCONF_42_-150_mol1.chk"
 B after Tr=   -64.913260    6.853668   -9.364697
         Rot=    0.060813    0.951670   -0.295623    0.056853 Ang= 173.03 deg.
 >>>>>>>>>> Convergence criterion not met.
 SCF Done:  E(RHF) =  -776.113109545     A.U. after    2 cycles
            NFock=  1  Conv=0.36D+00     -V/T= 2.0021

 **********************************************************************

            Population analysis using the SCF Density.

 **********************************************************************

 Orbital symmetries:
       Occupied  (A) (A) (A) (A) (A) (A) (A) (A) (A) (A) (A) (A)
                 (A) (A) (A) (A) (A) (A) (A) (A) (A) (A) (A) (A)
                 (A) (A) (A) (A) (A) (A) (A) (A) (A) (A) (A) (A)
                 (A)
       Virtual   (A) (A) (A) (A) (A) (A) (A) (A) (A) (A) (A) (A)
                 (A) (A) (A) (A) (A) (A) (A) (A) (A) (A) (A) (A)
                 (A) (A) (A) (A) (A) (A) (A) (A) (A) (A) (A) (A)
                 (A) (A) (A) (A) (A) (A) (A) (A) (A) (A) (A) (A)
                 (A) (A) (A) (A) (A) (A) (A) (A) (A) (A) (A) (A)
                 (A) (A) (A) (A) (A) (A) (A) (A) (A) (A) (A) (A)
                 (A) (A) (A) (A) (A) (A) (A) (A) (A) (A) (A) (A)
                 (A) (A) (A) (A) (A) (A) (A) (A) (A) (A) (A) (A)
                 (A) (A) (A) (A) (A) (A) (A) (A) (A) (A) (A) (A)
                 (A) (A) (A) (A) (A) (A) (A) (A) (A) (A) (A) (A)
                 (A) (A) (A) (A) (A) (A) (A) (A) (A) (A) (A) (A)
                 (A) (A) (A) (A) (A) (A) (A) (A) (A) (A) (A) (A)
                 (A) (A) (A) (A) (A) (A) (A) (A) (A) (A) (A) (A)
                 (A) (A) (A) (A) (A) (A) (A) (A) (A) (A) (A) (A)
                 (A) (A) (A) (A) (A) (A) (A) (A) (A) (A) (A) (A)
                 (A) (A) (A) (A) (A) (A) (A) (A) (A) (A) (A) (A)
                 (A) (A) (A) (A) (A) (A) (A) (A) (A) (A) (A) (A)
                 (A) (A) (A) (A) (A) (A) (A) (A) (A) (A) (A) (A)
                 (A) (A) (A) (A) (A) (A) (A) (A) (A) (A) (A) (A)
 The electronic state is 1-A.
 Alpha  occ. eigenvalues --  -75.72241 -21.04793 -15.79875 -15.73808 -13.18667
 Alpha  occ. eigenvalues --  -13.16758 -13.04254 -11.52342 -11.47401 -11.44379
 Alpha  occ. eigenvalues --  -11.40736 -11.38964  -8.06808  -1.72711  -1.51191
 Alpha  occ. eigenvalues --   -1.37842  -1.18735  -1.12862  -1.04809  -0.86942
 Alpha  occ. eigenvalues --   -0.80910  -0.78280  -0.69592  -0.66428  -0.63797
 Alpha  occ. eigenvalues --   -0.60883  -0.58093  -0.54103  -0.52711  -0.49806
 Alpha  occ. eigenvalues --   -0.49263  -0.43156  -0.38691  -0.36610  -0.32139
 Alpha  occ. eigenvalues --   -0.29849  -0.27051
 Alpha virt. eigenvalues --    0.02947   0.04041   0.05541   0.05729   0.06042
 Alpha virt. eigenvalues --    0.07141   0.08909   0.08961   0.10567   0.11127
 Alpha virt. eigenvalues --    0.12335   0.12468   0.12825   0.13599   0.13720
 Alpha virt. eigenvalues --    0.13852   0.14582   0.15208   0.15308   0.16512
 Alpha virt. eigenvalues --    0.17271   0.17343   0.17899   0.18572   0.19747
 Alpha virt. eigenvalues --    0.20146   0.20905   0.21604   0.22318   0.23051
 Alpha virt. eigenvalues --    0.23692   0.24465   0.24917   0.26025   0.26328
 Alpha virt. eigenvalues --    0.27330   0.27858   0.29484   0.30282   0.30729
 Alpha virt. eigenvalues --    0.31136   0.32547   0.33202   0.35028   0.35288
 Alpha virt. eigenvalues --    0.36294   0.36819   0.37586   0.38283   0.39127
 Alpha virt. eigenvalues --    0.39594   0.40787   0.41155   0.42382   0.43042
 Alpha virt. eigenvalues --    0.43526   0.44475   0.45488   0.45930   0.47061
 Alpha virt. eigenvalues --    0.48080   0.49548   0.50082   0.50820   0.51444
 Alpha virt. eigenvalues --    0.52780   0.53961   0.55212   0.55546   0.57526
 Alpha virt. eigenvalues --    0.58026   0.58700   0.59467   0.60055   0.60861
 Alpha virt. eigenvalues --    0.62907   0.63319   0.64460   0.65440   0.65791
 Alpha virt. eigenvalues --    0.66449   0.67258   0.68142   0.68610   0.70264
 Alpha virt. eigenvalues --    0.70976   0.72311   0.73184   0.73845   0.74235
 Alpha virt. eigenvalues --    0.75764   0.77611   0.78118   0.79766   0.80520
 Alpha virt. eigenvalues --    0.81018   0.81437   0.83381   0.84306   0.85758
 Alpha virt. eigenvalues --    0.86313   0.89099   0.89252   0.91920   0.92172
 Alpha virt. eigenvalues --    0.94646   0.95201   0.96671   0.98021   0.99175
 Alpha virt. eigenvalues --    1.01474   1.02525   1.04454   1.05784   1.07307
 Alpha virt. eigenvalues --    1.08759   1.13172   1.14077   1.16535   1.18313
 Alpha virt. eigenvalues --    1.19270   1.20767   1.21181   1.21893   1.24554
 Alpha virt. eigenvalues --    1.26055   1.27737   1.29113   1.31571   1.34144
 Alpha virt. eigenvalues --    1.35732   1.37995   1.41254   1.42299   1.43191
 Alpha virt. eigenvalues --    1.44194   1.46664   1.49815   1.50651   1.55727
 Alpha virt. eigenvalues --    1.55754   1.60778   1.62452   1.65656   1.70165
 Alpha virt. eigenvalues --    1.73592   1.75305   1.76478   1.78073   1.80339
 Alpha virt. eigenvalues --    1.82054   1.82936   1.84119   1.86652   1.89338
 Alpha virt. eigenvalues --    1.92656   1.94682   1.95047   1.97411   1.97764
 Alpha virt. eigenvalues --    1.98393   2.00938   2.02144   2.02912   2.06510
 Alpha virt. eigenvalues --    2.09765   2.11373   2.14562   2.15928   2.21073
 Alpha virt. eigenvalues --    2.22121   2.24996   2.25695   2.27023   2.30110
 Alpha virt. eigenvalues --    2.32244   2.34819   2.37615   2.41489   2.43116
 Alpha virt. eigenvalues --    2.43837   2.47598   2.49259   2.53411   2.56003
 Alpha virt. eigenvalues --    2.60789   2.62942   2.64135   2.66305   2.68183
 Alpha virt. eigenvalues --    2.69440   2.73134   2.78192   2.79866   2.81485
 Alpha virt. eigenvalues --    2.85417   2.88250   2.92220   2.95456   2.96676
 Alpha virt. eigenvalues --    3.02846   3.09012   3.13370   3.14545   3.17718
 Alpha virt. eigenvalues --    3.20500   3.24987   3.25281   3.32556   3.33791
 Alpha virt. eigenvalues --    3.36645   3.39402   3.45608   3.50866   3.61549
 Alpha virt. eigenvalues --    3.68006   3.72065   3.78364   3.92754   4.00580
 Alpha virt. eigenvalues --    4.05930   4.26457   4.35299   6.06685   6.08887
 Alpha virt. eigenvalues --    6.17188   6.25524   6.45258
          Condensed to atoms (all electrons):
 Mulliken charges:
               1
     1  C    4.295854
     2  N   -3.363312
     3  H    0.857015
     4  N   -3.146397
     5  C    0.540747
     6  H    1.553012
     7  C   -2.705653
     8  H    1.208679
     9  S    1.943400
    10  C    2.489556
    11  O   -3.018304
    12  C   -4.460423
    13  H    1.325602
    14  H    1.297649
    15  H    1.182574
 Sum of Mulliken charges =   0.00000
 Mulliken charges with hydrogens summed into heavy atoms:
               1
     1  C    4.295854
     2  N   -2.506297
     4  N   -3.146397
     5  C    2.093759
     7  C   -1.496974
     9  S    1.943400
    10  C    2.489556
    11  O   -3.018304
    12  C   -0.654597
 Electronic spatial extent (au):  <R**2>=           1489.7910
 Charge=              0.0000 electrons
 Dipole moment (field-independent basis, Debye):
    X=             -1.5859    Y=             -1.7190    Z=             -0.2510  Tot=              2.3522

 Test job not archived.
 1\1\GINC-SE454\SP\RHF\Aug-CC-pVDZ\C5H6N2O1S1\OHZDE\09-Apr-2025\0\\#t h
 f aug-cc-pvdz iop(5/13=1,5/36=2,99/5=2) pseudo=read geom=check guess=(
 read,tcheck) scf=(maxcycle=1)\\title\\0,1\C,0,28.9895,-15.6633,-0.5552
 \N,0,29.3066,-16.8862,0.0175\H,0,28.5758,-17.5848,0.0881\N,0,30.7355,-
 18.7581,-0.011\C,0,32.0733,-19.0644,0.0074\H,0,32.3792,-20.1036,0.0021
 \C,0,32.9281,-17.9868,0.0115\H,0,34.0095,-17.9865,-0.0101\S,0,32.037,-
 16.5171,-0.0138\C,0,30.5839,-17.4503,-0.0116\O,0,29.8489,-14.8479,-0.8
 511\C,0,27.5081,-15.4376,-0.7577\H,0,26.9077,-15.948,-0.0007\H,0,27.22
 45,-15.8177,-1.7442\H,0,27.3087,-14.3665,-0.7278\\Version=ES64L-G16Rev
 C.01\State=1-A\HF=-776.1131095\RMSD=3.643e-01\Dipole=-0.1327559,0.9146
 029,-0.0481347\Quadrupole=7.9829028,-4.3394333,-3.6434695,-0.000773,0.
 5958153,1.0939824\PG=C01 [X(C5H6N2O1S1)]\\@


 LEARN FROM YESTERDAY,
 LIVE FOR TODAY,
 LOOK TO TOMORROW,
 REST THIS AFTERNOON.

           -- SNOOPY
 Job cpu time:       0 days  0 hours  1 minutes 26.0 seconds.
 Elapsed time:       0 days  0 hours  0 minutes  6.3 seconds.
 File lengths (MBytes):  RWF=     14 Int=      0 D2E=      0 Chk=     10 Scr=      1
 Normal termination of Gaussian 16 at Wed Apr  9 02:27:37 2025.
