 Entering Gaussian System, Link 0=g16
 Input=E2SN2_110_mol1.gjf
 Output=E2SN2_110_mol1.log
 Initial command:
 /arc/software/Gaussian/g16.c01/l1.exe "/tmp/slurm/4858207/Gau-3896791.inp" -scrdir="/tmp/slurm/4858207/"
 Entering Link 1 = /arc/software/Gaussian/g16.c01/l1.exe PID=   3896809.
  
 Copyright (c) 1988-2019, Gaussian, Inc.  All Rights Reserved.
  
 This is part of the Gaussian(R) 16 program.  It is based on
 the Gaussian(R) 09 system (copyright 2009, Gaussian, Inc.),
 the Gaussian(R) 03 system (copyright 2003, Gaussian, Inc.),
 the Gaussian(R) 98 system (copyright 1998, Gaussian, Inc.),
 the Gaussian(R) 94 system (copyright 1995, Gaussian, Inc.),
 the Gaussian 92(TM) system (copyright 1992, Gaussian, Inc.),
 the Gaussian 90(TM) system (copyright 1990, Gaussian, Inc.),
 the Gaussian 88(TM) system (copyright 1988, Gaussian, Inc.),
 the Gaussian 86(TM) system (copyright 1986, Carnegie Mellon
 University), and the Gaussian 82(TM) system (copyright 1983,
 Carnegie Mellon University). Gaussian is a federally registered
 trademark of Gaussian, Inc.
  
 This software contains proprietary and confidential information,
 including trade secrets, belonging to Gaussian, Inc.
  
 This software is provided under written license and may be
 used, copied, transmitted, or stored only in accord with that
 written license.
  
 The following legend is applicable only to US Government
 contracts under FAR:
  
                    RESTRICTED RIGHTS LEGEND
  
 Use, reproduction and disclosure by the US Government is
 subject to restrictions as set forth in subparagraphs (a)
 and (c) of the Commercial Computer Software - Restricted
 Rights clause in FAR 52.227-19.
  
 Gaussian, Inc.
 340 Quinnipiac St., Bldg. 40, Wallingford CT 06492
  
  
 ---------------------------------------------------------------
 Warning -- This program may not be used in any manner that
 competes with the business of Gaussian, Inc. or will provide
 assistance to any competitor of Gaussian, Inc.  The licensee
 of this program is prohibited from giving any competitor of
 Gaussian, Inc. access to this program.  By using this program,
 the user acknowledges that Gaussian, Inc. is engaged in the
 business of creating and licensing software in the field of
 computational chemistry and represents and warrants to the
 licensee that it is not a competitor of Gaussian, Inc. and that
 it will not use this program in any manner prohibited above.
 ---------------------------------------------------------------
  

 Cite this work as:
 Gaussian 16, Revision C.01,
 M. J. Frisch, G. W. Trucks, H. B. Schlegel, G. E. Scuseria, 
 M. A. Robb, J. R. Cheeseman, G. Scalmani, V. Barone, 
 G. A. Petersson, H. Nakatsuji, X. Li, M. Caricato, A. V. Marenich, 
 J. Bloino, B. G. Janesko, R. Gomperts, B. Mennucci, H. P. Hratchian, 
 J. V. Ortiz, A. F. Izmaylov, J. L. Sonnenberg, D. Williams-Young, 
 F. Ding, F. Lipparini, F. Egidi, J. Goings, B. Peng, A. Petrone, 
 T. Henderson, D. Ranasinghe, V. G. Zakrzewski, J. Gao, N. Rega, 
 G. Zheng, W. Liang, M. Hada, M. Ehara, K. Toyota, R. Fukuda, 
 J. Hasegawa, M. Ishida, T. Nakajima, Y. Honda, O. Kitao, H. Nakai, 
 T. Vreven, K. Throssell, J. A. Montgomery, Jr., J. E. Peralta, 
 F. Ogliaro, M. J. Bearpark, J. J. Heyd, E. N. Brothers, K. N. Kudin, 
 V. N. Staroverov, T. A. Keith, R. Kobayashi, J. Normand, 
 K. Raghavachari, A. P. Rendell, J. C. Burant, S. S. Iyengar, 
 J. Tomasi, M. Cossi, J. M. Millam, M. Klene, C. Adamo, R. Cammi, 
 J. W. Ochterski, R. L. Martin, K. Morokuma, O. Farkas, 
 J. B. Foresman, and D. J. Fox, Gaussian, Inc., Wallingford CT, 2019.
 
 ******************************************
 Gaussian 16:  ES64L-G16RevC.01  3-Jul-2019
                 9-Apr-2025 
 ******************************************
 %nprocs=16
 Will use up to   16 processors via shared memory.
 %mem=30GB
 %chk=E2SN2_110_mol1.chk
 ----------------------------------------------------------------------
 #t hf aug-cc-pvdz symm=none int=(grid=ultrafine) guess=(read,tcheck) s
 table=(opt,rrhf)
 ----------------------------------------------------------------------
 -----
 title
 -----
 Symbolic Z-matrix:
 Charge = -1 Multiplicity = 1
 C                    -0.36477   0.00047  -0.26619 
 C                    -0.18199  -0.06327   1.10953 
 Cl                    1.86565  -0.22618  -1.14618 
 Cl                   -3.11585  -0.20775   1.90048 
 H                    -1.7763   -0.08328   1.43516 
 C                    -0.9114   -1.20736  -0.96949 
 H                    -0.4672   -2.12034  -0.58362 
 H                    -1.99554  -1.24405  -0.79181 
 H                    -0.72539  -1.13643  -2.04021 
 C                    -0.69507   1.32571  -0.88717 
 H                    -0.52982   1.28411  -1.96329 
 H                    -1.75258   1.55576  -0.69678 
 H                    -0.0808    2.12608  -0.47516 
 N                     0.21716  -1.3257    1.67156 
 H                     0.10834  -1.31574   2.67784 
 H                     1.19966  -1.466     1.44133 
 C                     0.23706   1.12333   1.80533 
 N                     0.53882   2.0639    2.44896 
 
                    Distance matrix (angstroms):
                    1          2          3          4          5
     1  C    0.000000
     2  C    1.389275   0.000000
     3  Cl   2.408421   3.050828   0.000000
     4  Cl   3.508030   3.042040   5.839328   0.000000
     5  H    2.212245   1.627346   4.466259   1.423521   0.000000
     6  C    1.500759   2.482600   2.950577   3.754408   2.791767
     7  H    2.146875   2.679478   3.057201   4.104155   3.152589
     8  H    2.117662   2.880671   4.008787   3.094743   2.520879
     9  H    2.137690   3.371619   2.888130   4.701685   3.780444
    10  C    1.500327   2.485827   3.005445   3.997838   2.923616
    11  H    2.134271   3.373224   2.947355   4.882820   3.869485
    12  H    2.128465   2.889772   4.058181   3.422609   2.689271
    13  H    2.154655   2.704580   3.126025   4.505773   3.377175
    14  N    2.419138   1.438370   3.444716   3.522943   2.360794
    15  H    3.259380   2.027944   4.347224   3.496754   2.571977
    16  H    2.741101   1.996676   2.945487   4.518590   3.281511
    17  C    2.431918   1.437973   3.631093   3.608715   2.376245
    18  N    3.527932   2.615053   4.464294   4.337953   3.316315
                    6          7          8          9         10
     6  C    0.000000
     7  H    1.086163   0.000000
     8  H    1.099217   1.773993   0.000000
     9  H    1.089070   1.776634   1.784206   0.000000
    10  C    2.543625   3.466893   2.881666   2.718925   0.000000
    11  H    2.709361   3.673920   3.148377   2.429638   1.089529
    12  H    2.901172   3.895991   2.811939   3.179280   1.098867
    13  H    3.470746   4.265343   3.888993   3.675436   1.089800
    14  N    2.874505   2.487085   3.312225   3.834246   3.795946
    15  H    3.788750   3.408180   4.058307   4.794502   4.509104
    16  H    3.214894   2.703142   3.904544   3.991939   4.099464
    17  C    3.801408   4.089550   4.163422   4.563002   2.856461
    18  N    4.948748   5.264640   5.279023   5.656236   3.632796
                   11         12         13         14         15
    11  H    0.000000
    12  H    1.781289   0.000000
    13  H    1.767786   1.780234   0.000000
    14  N    4.536648   4.218020   4.075776   0.000000
    15  H    5.357848   4.805891   4.671544   1.012197   0.000000
    16  H    4.705920   4.734801   4.267975   1.018827   1.656055
    17  C    3.849214   3.225867   2.511411   2.452759   2.593628
    18  N    4.606310   3.924851   2.989704   3.492444   3.414620
                   16         17         18
    16  H    0.000000
    17  C    2.786351   0.000000
    18  N    3.729909   1.178979   0.000000
 Symmetry turned off by external request.
 Rotational constants (GHZ):           1.4020499           0.6855840           0.5919625
   296 basis functions,   562 primitive gaussians,   314 cartesian basis functions
    44 alpha electrons       44 beta electrons
       nuclear repulsion energy       591.8666747121 Hartrees.
 NAtoms=   18 NActive=   18 NUniq=   18 SFac= 1.00D+00 NAtFMM=   60 NAOKFM=F Big=F
 ExpMin= 2.97D-02 ExpMax= 1.28D+05 ExpMxC= 1.24D+03 IAcc=3 IRadAn=         5 AccDes= 0.00D+00
 Harris functional with IExCor=  205 and IRadAn=       5 diagonalized for initial guess.
 HarFok:  IExCor=  205 AccDes= 0.00D+00 IRadAn=         5 IDoV= 1 UseB2=F ITyADJ=14
 ICtDFT=  3500011 ScaDFX=  1.000000  1.000000  1.000000  1.000000
 FoFCou: FMM=F IPFlag=           0 FMFlag=      100000 FMFlg1=           0
         NFxFlg=           0 DoJE=T BraDBF=F KetDBF=T FulRan=T
         wScrn=  0.000000 ICntrl=       500 IOpCl=  0 I1Cent=   200000004 NGrid=           0
         NMat0=    1 NMatS0=      1 NMatT0=    0 NMatD0=    1 NMtDS0=    0 NMtDT0=    0
 Symmetry not used in FoFCou.
 SCF Done:  E(RHF) =  -1222.55519289     A.U. after   16 cycles
            NFock= 16  Conv=0.70D-08     -V/T= 2.0003

 **********************************************************************

            Population analysis using the SCF Density.

 **********************************************************************

 Alpha  occ. eigenvalues -- -104.67242-104.58868 -15.44968 -15.44583 -11.20058
 Alpha  occ. eigenvalues --  -11.15950 -11.14637 -11.12264 -11.11603 -10.39871
 Alpha  occ. eigenvalues --  -10.31369  -7.86601  -7.86385  -7.86378  -7.78013
 Alpha  occ. eigenvalues --   -7.77931  -7.77924  -1.10673  -1.06651  -0.98567
 Alpha  occ. eigenvalues --   -0.93447  -0.84646  -0.82807  -0.82524  -0.67010
 Alpha  occ. eigenvalues --   -0.56840  -0.55831  -0.52073  -0.49098  -0.45192
 Alpha  occ. eigenvalues --   -0.44937  -0.43788  -0.42769  -0.41089  -0.39596
 Alpha  occ. eigenvalues --   -0.36420  -0.33836  -0.31376  -0.31207  -0.30089
 Alpha  occ. eigenvalues --   -0.26960  -0.23638  -0.23417  -0.17779
 Alpha virt. eigenvalues --    0.12730   0.13158   0.14011   0.15041   0.15901
 Alpha virt. eigenvalues --    0.16366   0.16848   0.17085   0.18092   0.19561
 Alpha virt. eigenvalues --    0.21723   0.22855   0.23059   0.23272   0.23625
 Alpha virt. eigenvalues --    0.25157   0.25339   0.25790   0.26705   0.27599
 Alpha virt. eigenvalues --    0.28018   0.28727   0.29224   0.29696   0.30438
 Alpha virt. eigenvalues --    0.30988   0.31855   0.31869   0.32157   0.32388
 Alpha virt. eigenvalues --    0.33516   0.33699   0.34081   0.34249   0.35036
 Alpha virt. eigenvalues --    0.35367   0.36533   0.37006   0.37721   0.39699
 Alpha virt. eigenvalues --    0.41068   0.41760   0.42401   0.42710   0.44231
 Alpha virt. eigenvalues --    0.44601   0.46286   0.47013   0.47138   0.48666
 Alpha virt. eigenvalues --    0.50512   0.50660   0.51421   0.51815   0.52857
 Alpha virt. eigenvalues --    0.53925   0.54989   0.55465   0.55998   0.57185
 Alpha virt. eigenvalues --    0.57813   0.58751   0.59344   0.59949   0.61155
 Alpha virt. eigenvalues --    0.61590   0.62183   0.62694   0.63020   0.64233
 Alpha virt. eigenvalues --    0.64962   0.66253   0.66667   0.67237   0.68415
 Alpha virt. eigenvalues --    0.70243   0.70517   0.71651   0.72177   0.72608
 Alpha virt. eigenvalues --    0.73469   0.73992   0.74382   0.75715   0.76006
 Alpha virt. eigenvalues --    0.76685   0.77157   0.77898   0.79798   0.80098
 Alpha virt. eigenvalues --    0.81051   0.81425   0.82426   0.83792   0.84056
 Alpha virt. eigenvalues --    0.86142   0.86505   0.86839   0.87235   0.87843
 Alpha virt. eigenvalues --    0.88597   0.89731   0.91697   0.91984   0.93082
 Alpha virt. eigenvalues --    0.93844   0.94513   0.95832   0.96241   0.97887
 Alpha virt. eigenvalues --    0.98718   0.99821   1.00448   1.01559   1.01809
 Alpha virt. eigenvalues --    1.03178   1.04721   1.05274   1.05601   1.06215
 Alpha virt. eigenvalues --    1.09817   1.11031   1.11688   1.13415   1.13913
 Alpha virt. eigenvalues --    1.14597   1.17302   1.18400   1.19639   1.21545
 Alpha virt. eigenvalues --    1.22543   1.23472   1.24683   1.26125   1.27616
 Alpha virt. eigenvalues --    1.29454   1.29614   1.30910   1.32270   1.33673
 Alpha virt. eigenvalues --    1.35206   1.36969   1.38114   1.40651   1.42294
 Alpha virt. eigenvalues --    1.42379   1.45365   1.46323   1.46708   1.49724
 Alpha virt. eigenvalues --    1.51157   1.51473   1.54873   1.55938   1.57673
 Alpha virt. eigenvalues --    1.60445   1.61192   1.64206   1.65857   1.66267
 Alpha virt. eigenvalues --    1.69138   1.69880   1.70241   1.71925   1.73574
 Alpha virt. eigenvalues --    1.75286   1.75743   1.77632   1.79256   1.81118
 Alpha virt. eigenvalues --    1.82534   1.84512   1.85820   1.86794   1.88999
 Alpha virt. eigenvalues --    1.90375   1.91738   1.93820   1.94299   1.95903
 Alpha virt. eigenvalues --    1.98070   2.00186   2.02152   2.02870   2.05235
 Alpha virt. eigenvalues --    2.06165   2.07087   2.08941   2.09343   2.10601
 Alpha virt. eigenvalues --    2.11972   2.16342   2.17665   2.20696   2.22752
 Alpha virt. eigenvalues --    2.25536   2.27093   2.29694   2.33674   2.35051
 Alpha virt. eigenvalues --    2.35611   2.37272   2.38258   2.38945   2.43045
 Alpha virt. eigenvalues --    2.44668   2.46187   2.48128   2.49426   2.51644
 Alpha virt. eigenvalues --    2.52235   2.54453   2.55801   2.57862   2.59174
 Alpha virt. eigenvalues --    2.59759   2.64370   2.66927   2.67582   2.72569
 Alpha virt. eigenvalues --    2.73156   2.75577   2.76434   2.78396   2.80197
 Alpha virt. eigenvalues --    2.81775   2.83911   2.86073   2.87090   2.92508
 Alpha virt. eigenvalues --    2.96113   3.00152   3.02060   3.03625   3.05348
 Alpha virt. eigenvalues --    3.09139   3.10916   3.13009   3.13698   3.20429
 Alpha virt. eigenvalues --    3.23516   3.26030   3.31509   3.33554   3.40065
 Alpha virt. eigenvalues --    3.51833   3.54336   3.60726   3.62639   3.73884
 Alpha virt. eigenvalues --    3.88925   4.53745
          Condensed to atoms (all electrons):
 Mulliken charges:
               1
     1  C   -1.663328
     2  C    1.023437
     3  Cl  -0.803894
     4  Cl  -0.512196
     5  H    0.802139
     6  C    0.886044
     7  H    0.017509
     8  H    0.033263
     9  H   -0.029265
    10  C    0.745123
    11  H   -0.012537
    12  H    0.056608
    13  H    0.037023
    14  N   -0.534808
    15  H   -0.048132
    16  H    0.028846
    17  C   -0.594868
    18  N   -0.430964
 Sum of Mulliken charges =  -1.00000
 Mulliken charges with hydrogens summed into heavy atoms:
               1
     1  C   -1.663328
     2  C    1.023437
     3  Cl  -0.803894
     4  Cl   0.289943
     6  C    0.907551
    10  C    0.826217
    14  N   -0.554094
    17  C   -0.594868
    18  N   -0.430964
 Electronic spatial extent (au):  <R**2>=           2148.5548
 Charge=             -1.0000 electrons
 Dipole moment (field-independent basis, Debye):
    X=             -1.7035    Y=             -1.8987    Z=             -3.2699  Tot=              4.1472
 NROrb=    296 NOA=    44 NOB=    44 NVA=   252 NVB=   252

 **** Warning!!: The largest alpha MO coefficient is  0.10990356D+03

    12 initial guesses have been made.
 Iteration     1 Dimension    12 NMult     0 NNew     12
 New state      1 was old state      2
 Iteration     2 Dimension    24 NMult    12 NNew     12
 Iteration     3 Dimension    27 NMult    24 NNew      3
 Iteration     4 Dimension    30 NMult    27 NNew      3
 Iteration     5 Dimension    33 NMult    30 NNew      3
 Iteration     6 Dimension    36 NMult    33 NNew      3
 Iteration     7 Dimension    39 NMult    36 NNew      3
 Iteration     8 Dimension    42 NMult    39 NNew      3
 Iteration     9 Dimension    45 NMult    42 NNew      3
 Iteration    10 Dimension    48 NMult    45 NNew      3
 ***********************************************************************
 Stability analysis using <AA,BB:AA,BB> singles matrix:
 ***********************************************************************
 Ground to excited state transition densities written to RWF  633

 Eigenvectors of the stability matrix:
 
 Excited state symmetry could not be determined.
 Eigenvector   1:      Singlet-?Sym  Eigenvalue= 0.1831837  <S**2>=0.000
      44 -> 45         0.11099
      44 -> 48         0.12562
      44 -> 53        -0.10953
      44 -> 55         0.36912
      44 -> 56        -0.14522
      44 -> 59         0.30020
      44 -> 60         0.12129
      44 -> 67         0.11726
 The wavefunction is stable under the perturbations considered.
 The wavefunction is already stable.

 **********************************************************************

            Population analysis using the SCF Density.

 **********************************************************************

 Alpha  occ. eigenvalues -- -104.67242-104.58868 -15.44968 -15.44583 -11.20058
 Alpha  occ. eigenvalues --  -11.15950 -11.14637 -11.12264 -11.11603 -10.39871
 Alpha  occ. eigenvalues --  -10.31369  -7.86601  -7.86385  -7.86378  -7.78013
 Alpha  occ. eigenvalues --   -7.77931  -7.77924  -1.10673  -1.06651  -0.98567
 Alpha  occ. eigenvalues --   -0.93447  -0.84646  -0.82807  -0.82524  -0.67010
 Alpha  occ. eigenvalues --   -0.56840  -0.55831  -0.52073  -0.49098  -0.45192
 Alpha  occ. eigenvalues --   -0.44937  -0.43788  -0.42769  -0.41089  -0.39596
 Alpha  occ. eigenvalues --   -0.36420  -0.33836  -0.31376  -0.31207  -0.30089
 Alpha  occ. eigenvalues --   -0.26960  -0.23638  -0.23417  -0.17779
 Alpha virt. eigenvalues --    0.12730   0.13158   0.14011   0.15041   0.15901
 Alpha virt. eigenvalues --    0.16366   0.16848   0.17085   0.18092   0.19561
 Alpha virt. eigenvalues --    0.21723   0.22855   0.23059   0.23272   0.23625
 Alpha virt. eigenvalues --    0.25157   0.25339   0.25790   0.26705   0.27599
 Alpha virt. eigenvalues --    0.28018   0.28727   0.29224   0.29696   0.30438
 Alpha virt. eigenvalues --    0.30988   0.31855   0.31869   0.32157   0.32388
 Alpha virt. eigenvalues --    0.33516   0.33699   0.34081   0.34249   0.35036
 Alpha virt. eigenvalues --    0.35367   0.36533   0.37006   0.37721   0.39699
 Alpha virt. eigenvalues --    0.41068   0.41760   0.42401   0.42710   0.44231
 Alpha virt. eigenvalues --    0.44601   0.46286   0.47013   0.47138   0.48666
 Alpha virt. eigenvalues --    0.50512   0.50660   0.51421   0.51815   0.52857
 Alpha virt. eigenvalues --    0.53925   0.54989   0.55465   0.55998   0.57185
 Alpha virt. eigenvalues --    0.57813   0.58751   0.59344   0.59949   0.61155
 Alpha virt. eigenvalues --    0.61590   0.62183   0.62694   0.63020   0.64233
 Alpha virt. eigenvalues --    0.64962   0.66253   0.66667   0.67237   0.68415
 Alpha virt. eigenvalues --    0.70243   0.70517   0.71651   0.72177   0.72608
 Alpha virt. eigenvalues --    0.73469   0.73992   0.74382   0.75715   0.76006
 Alpha virt. eigenvalues --    0.76685   0.77157   0.77898   0.79798   0.80098
 Alpha virt. eigenvalues --    0.81051   0.81425   0.82426   0.83792   0.84056
 Alpha virt. eigenvalues --    0.86142   0.86505   0.86839   0.87235   0.87843
 Alpha virt. eigenvalues --    0.88597   0.89731   0.91697   0.91984   0.93082
 Alpha virt. eigenvalues --    0.93844   0.94513   0.95832   0.96241   0.97887
 Alpha virt. eigenvalues --    0.98718   0.99821   1.00448   1.01559   1.01809
 Alpha virt. eigenvalues --    1.03178   1.04721   1.05274   1.05601   1.06215
 Alpha virt. eigenvalues --    1.09817   1.11031   1.11688   1.13415   1.13913
 Alpha virt. eigenvalues --    1.14597   1.17302   1.18400   1.19639   1.21545
 Alpha virt. eigenvalues --    1.22543   1.23472   1.24683   1.26125   1.27616
 Alpha virt. eigenvalues --    1.29454   1.29614   1.30910   1.32270   1.33673
 Alpha virt. eigenvalues --    1.35206   1.36969   1.38114   1.40651   1.42294
 Alpha virt. eigenvalues --    1.42379   1.45365   1.46323   1.46708   1.49724
 Alpha virt. eigenvalues --    1.51157   1.51473   1.54873   1.55938   1.57673
 Alpha virt. eigenvalues --    1.60445   1.61192   1.64206   1.65857   1.66267
 Alpha virt. eigenvalues --    1.69138   1.69880   1.70241   1.71925   1.73574
 Alpha virt. eigenvalues --    1.75286   1.75743   1.77632   1.79256   1.81118
 Alpha virt. eigenvalues --    1.82534   1.84512   1.85820   1.86794   1.88999
 Alpha virt. eigenvalues --    1.90375   1.91738   1.93820   1.94299   1.95903
 Alpha virt. eigenvalues --    1.98070   2.00186   2.02152   2.02870   2.05235
 Alpha virt. eigenvalues --    2.06165   2.07087   2.08941   2.09343   2.10601
 Alpha virt. eigenvalues --    2.11972   2.16342   2.17665   2.20696   2.22752
 Alpha virt. eigenvalues --    2.25536   2.27093   2.29694   2.33674   2.35051
 Alpha virt. eigenvalues --    2.35611   2.37272   2.38258   2.38945   2.43045
 Alpha virt. eigenvalues --    2.44668   2.46187   2.48128   2.49426   2.51644
 Alpha virt. eigenvalues --    2.52235   2.54453   2.55801   2.57862   2.59174
 Alpha virt. eigenvalues --    2.59759   2.64370   2.66927   2.67582   2.72569
 Alpha virt. eigenvalues --    2.73156   2.75577   2.76434   2.78396   2.80197
 Alpha virt. eigenvalues --    2.81775   2.83911   2.86073   2.87090   2.92508
 Alpha virt. eigenvalues --    2.96113   3.00152   3.02060   3.03625   3.05348
 Alpha virt. eigenvalues --    3.09139   3.10916   3.13009   3.13698   3.20429
 Alpha virt. eigenvalues --    3.23516   3.26030   3.31509   3.33554   3.40065
 Alpha virt. eigenvalues --    3.51833   3.54336   3.60726   3.62639   3.73884
 Alpha virt. eigenvalues --    3.88925   4.53745
          Condensed to atoms (all electrons):
 Mulliken charges:
               1
     1  C   -1.663328
     2  C    1.023437
     3  Cl  -0.803894
     4  Cl  -0.512196
     5  H    0.802139
     6  C    0.886044
     7  H    0.017509
     8  H    0.033263
     9  H   -0.029265
    10  C    0.745123
    11  H   -0.012537
    12  H    0.056608
    13  H    0.037023
    14  N   -0.534808
    15  H   -0.048132
    16  H    0.028846
    17  C   -0.594868
    18  N   -0.430964
 Sum of Mulliken charges =  -1.00000
 Mulliken charges with hydrogens summed into heavy atoms:
               1
     1  C   -1.663328
     2  C    1.023437
     3  Cl  -0.803894
     4  Cl   0.289943
     6  C    0.907551
    10  C    0.826217
    14  N   -0.554094
    17  C   -0.594868
    18  N   -0.430964
 Electronic spatial extent (au):  <R**2>=           2148.5548
 Charge=             -1.0000 electrons
 Dipole moment (field-independent basis, Debye):
    X=             -1.7035    Y=             -1.8987    Z=             -3.2699  Tot=              4.1472
 Unable to Open any file for archive entry.
 1\1\GINC-SE462\Stability\RHF\Aug-CC-pVDZ\C5H9Cl2N2\OHZDE\09-Apr-2025\0
 \\#t hf aug-cc-pvdz symm=none int=(grid=ultrafine) guess=(read,tcheck)
  stable=(opt,rrhf)\\title\\-1,1\C,0,-0.36477077,0.00046803,-0.26619493
 \C,0,-0.18199001,-0.06327198,1.10952761\Cl,0,1.86564528,-0.2261767,-1.
 14617696\Cl,0,-3.11584736,-0.20775254,1.90048348\H,0,-1.77629793,-0.08
 327844,1.43515889\C,0,-0.91139759,-1.20735945,-0.96949385\H,0,-0.46719
 604,-2.12033986,-0.58361528\H,0,-1.99553711,-1.24405076,-0.79180654\H,
 0,-0.72538539,-1.13642676,-2.04021409\C,0,-0.69506829,1.32571244,-0.88
 717165\H,0,-0.52982341,1.28410634,-1.96329296\H,0,-1.75258311,1.555760
 87,-0.6967811\H,0,-0.08080156,2.1260812,-0.47516451\N,0,0.2171575,-1.3
 2569612,1.67155527\H,0,0.10833898,-1.31573927,2.67783669\H,0,1.1996634
 4,-1.46600346,1.44132948\C,0,0.23705962,1.12333103,1.80532665\N,0,0.53
 882375,2.06389543,2.4489638\\Version=ES64L-G16RevC.01\HF=-1222.5551929
 \RMSD=6.978e-09\Dipole=-1.3973858,-0.6934794,-0.2998447\Quadrupole=-8.
 037954,6.8553975,1.1825565,-2.8594886,13.1907558,-8.2733095\PG=Unknown
 \\@
 The archive entry for this job was punched.


 EDUCATION DOESN'T COST 
           ... IT PAYS!

 -- POSTMARK, UNIV. OF MISSISSIPPI, DEC 78
 Job cpu time:       0 days  0 hours 23 minutes  2.0 seconds.
 Elapsed time:       0 days  0 hours  1 minutes 34.3 seconds.
 File lengths (MBytes):  RWF=    463 Int=      0 D2E=      0 Chk=     13 Scr=      1
 Normal termination of Gaussian 16 at Wed Apr  9 02:33:41 2025.
 Initial command:
 /arc/software/Gaussian/g16.c01/l1.exe "/tmp/slurm/4858207/Gau-3896791.inp" -scrdir="/tmp/slurm/4858207/"
 Entering Link 1 = /arc/software/Gaussian/g16.c01/l1.exe PID=   3897557.
  
 Copyright (c) 1988-2019, Gaussian, Inc.  All Rights Reserved.
  
 This is part of the Gaussian(R) 16 program.  It is based on
 the Gaussian(R) 09 system (copyright 2009, Gaussian, Inc.),
 the Gaussian(R) 03 system (copyright 2003, Gaussian, Inc.),
 the Gaussian(R) 98 system (copyright 1998, Gaussian, Inc.),
 the Gaussian(R) 94 system (copyright 1995, Gaussian, Inc.),
 the Gaussian 92(TM) system (copyright 1992, Gaussian, Inc.),
 the Gaussian 90(TM) system (copyright 1990, Gaussian, Inc.),
 the Gaussian 88(TM) system (copyright 1988, Gaussian, Inc.),
 the Gaussian 86(TM) system (copyright 1986, Carnegie Mellon
 University), and the Gaussian 82(TM) system (copyright 1983,
 Carnegie Mellon University). Gaussian is a federally registered
 trademark of Gaussian, Inc.
  
 This software contains proprietary and confidential information,
 including trade secrets, belonging to Gaussian, Inc.
  
 This software is provided under written license and may be
 used, copied, transmitted, or stored only in accord with that
 written license.
  
 The following legend is applicable only to US Government
 contracts under FAR:
  
                    RESTRICTED RIGHTS LEGEND
  
 Use, reproduction and disclosure by the US Government is
 subject to restrictions as set forth in subparagraphs (a)
 and (c) of the Commercial Computer Software - Restricted
 Rights clause in FAR 52.227-19.
  
 Gaussian, Inc.
 340 Quinnipiac St., Bldg. 40, Wallingford CT 06492
  
  
 ---------------------------------------------------------------
 Warning -- This program may not be used in any manner that
 competes with the business of Gaussian, Inc. or will provide
 assistance to any competitor of Gaussian, Inc.  The licensee
 of this program is prohibited from giving any competitor of
 Gaussian, Inc. access to this program.  By using this program,
 the user acknowledges that Gaussian, Inc. is engaged in the
 business of creating and licensing software in the field of
 computational chemistry and represents and warrants to the
 licensee that it is not a competitor of Gaussian, Inc. and that
 it will not use this program in any manner prohibited above.
 ---------------------------------------------------------------
  

 Cite this work as:
 Gaussian 16, Revision C.01,
 M. J. Frisch, G. W. Trucks, H. B. Schlegel, G. E. Scuseria, 
 M. A. Robb, J. R. Cheeseman, G. Scalmani, V. Barone, 
 G. A. Petersson, H. Nakatsuji, X. Li, M. Caricato, A. V. Marenich, 
 J. Bloino, B. G. Janesko, R. Gomperts, B. Mennucci, H. P. Hratchian, 
 J. V. Ortiz, A. F. Izmaylov, J. L. Sonnenberg, D. Williams-Young, 
 F. Ding, F. Lipparini, F. Egidi, J. Goings, B. Peng, A. Petrone, 
 T. Henderson, D. Ranasinghe, V. G. Zakrzewski, J. Gao, N. Rega, 
 G. Zheng, W. Liang, M. Hada, M. Ehara, K. Toyota, R. Fukuda, 
 J. Hasegawa, M. Ishida, T. Nakajima, Y. Honda, O. Kitao, H. Nakai, 
 T. Vreven, K. Throssell, J. A. Montgomery, Jr., J. E. Peralta, 
 F. Ogliaro, M. J. Bearpark, J. J. Heyd, E. N. Brothers, K. N. Kudin, 
 V. N. Staroverov, T. A. Keith, R. Kobayashi, J. Normand, 
 K. Raghavachari, A. P. Rendell, J. C. Burant, S. S. Iyengar, 
 J. Tomasi, M. Cossi, J. M. Millam, M. Klene, C. Adamo, R. Cammi, 
 J. W. Ochterski, R. L. Martin, K. Morokuma, O. Farkas, 
 J. B. Foresman, and D. J. Fox, Gaussian, Inc., Wallingford CT, 2019.
 
 ******************************************
 Gaussian 16:  ES64L-G16RevC.01  3-Jul-2019
                 9-Apr-2025 
 ******************************************
 %nprocs=16
 Will use up to   16 processors via shared memory.
 %mem=30GB
 %chk=E2SN2_110_mol1.chk
 ----------------------------------------------------------------------
 #t hf aug-cc-pvdz iop(5/13=1,5/36=2,99/5=2) pseudo=read geom=check gue
 ss=(read,tcheck) scf=(maxcycle=1)
 ----------------------------------------------------------------------
 -----
 title
 -----
 Structure from the checkpoint file:  "E2SN2_110_mol1.chk"
 Charge = -1 Multiplicity = 1
 Z-Matrix found in chk file.
 C,0,-0.36477077,0.00046803,-0.26619493
 C,0,-0.18199001,-0.06327198,1.10952761
 Cl,0,1.86564528,-0.2261767,-1.14617696
 Cl,0,-3.11584736,-0.20775254,1.90048348
 H,0,-1.77629793,-0.08327844,1.43515889
 C,0,-0.91139759,-1.20735945,-0.96949385
 H,0,-0.46719604,-2.12033986,-0.58361528
 H,0,-1.99553711,-1.24405076,-0.79180654
 H,0,-0.72538539,-1.13642676,-2.04021409
 C,0,-0.69506829,1.32571244,-0.88717165
 H,0,-0.52982341,1.28410634,-1.96329296
 H,0,-1.75258311,1.55576087,-0.6967811
 H,0,-0.08080156,2.1260812,-0.47516451
 N,0,0.2171575,-1.32569612,1.67155527
 H,0,0.10833898,-1.31573927,2.67783669
 H,0,1.19966344,-1.46600346,1.44132948
 C,0,0.23705962,1.12333103,1.80532665
 N,0,0.53882375,2.06389543,2.4489638
 Recover connectivity data from disk.
                    Distance matrix (angstroms):
                    1          2          3          4          5
     1  C    0.000000
     2  C    1.389275   0.000000
     3  Cl   2.408421   3.050828   0.000000
     4  Cl   3.508030   3.042040   5.839328   0.000000
     5  H    2.212245   1.627346   4.466259   1.423521   0.000000
     6  C    1.500759   2.482600   2.950577   3.754408   2.791767
     7  H    2.146875   2.679478   3.057201   4.104155   3.152589
     8  H    2.117662   2.880671   4.008787   3.094743   2.520879
     9  H    2.137690   3.371619   2.888130   4.701685   3.780444
    10  C    1.500327   2.485827   3.005445   3.997838   2.923616
    11  H    2.134271   3.373224   2.947355   4.882820   3.869485
    12  H    2.128465   2.889772   4.058181   3.422609   2.689271
    13  H    2.154655   2.704580   3.126025   4.505773   3.377175
    14  N    2.419138   1.438370   3.444716   3.522943   2.360794
    15  H    3.259380   2.027944   4.347224   3.496754   2.571977
    16  H    2.741101   1.996676   2.945487   4.518590   3.281511
    17  C    2.431918   1.437973   3.631093   3.608715   2.376245
    18  N    3.527932   2.615053   4.464294   4.337953   3.316315
                    6          7          8          9         10
     6  C    0.000000
     7  H    1.086163   0.000000
     8  H    1.099217   1.773993   0.000000
     9  H    1.089070   1.776634   1.784206   0.000000
    10  C    2.543625   3.466893   2.881666   2.718925   0.000000
    11  H    2.709361   3.673920   3.148377   2.429638   1.089529
    12  H    2.901172   3.895991   2.811939   3.179280   1.098867
    13  H    3.470746   4.265343   3.888993   3.675436   1.089800
    14  N    2.874505   2.487085   3.312225   3.834246   3.795946
    15  H    3.788750   3.408180   4.058307   4.794502   4.509104
    16  H    3.214894   2.703142   3.904544   3.991939   4.099464
    17  C    3.801408   4.089550   4.163422   4.563002   2.856461
    18  N    4.948748   5.264640   5.279023   5.656236   3.632796
                   11         12         13         14         15
    11  H    0.000000
    12  H    1.781289   0.000000
    13  H    1.767786   1.780234   0.000000
    14  N    4.536648   4.218020   4.075776   0.000000
    15  H    5.357848   4.805891   4.671544   1.012197   0.000000
    16  H    4.705920   4.734801   4.267975   1.018827   1.656055
    17  C    3.849214   3.225867   2.511411   2.452759   2.593628
    18  N    4.606310   3.924851   2.989704   3.492444   3.414620
                   16         17         18
    16  H    0.000000
    17  C    2.786351   0.000000
    18  N    3.729909   1.178979   0.000000
 Framework group  C1[X(C5H9Cl2N2)]
 Deg. of freedom    48
                         Standard orientation:                         
 ---------------------------------------------------------------------
 Center     Atomic      Atomic             Coordinates (Angstroms)
 Number     Number       Type             X           Y           Z
 ---------------------------------------------------------------------
      1          6           0       -0.487888   -0.529387    0.322945
      2          6           0        0.187276    0.443396   -0.403645
      3         17           0       -2.805084   -0.107359   -0.180032
      4         17           0        3.008970   -0.598073    0.051756
      5          1           0        1.659270   -0.159790   -0.060640
      6          6           0       -0.489830   -1.936329   -0.199345
      7          1           0       -0.629720   -1.954642   -1.276306
      8          1           0        0.484606   -2.388244    0.034159
      9          1           0       -1.278023   -2.515225    0.279932
     10          6           0       -0.573231   -0.383736    1.813745
     11          1           0       -1.349821   -1.038430    2.207901
     12          1           0        0.391755   -0.667525    2.256209
     13          1           0       -0.806230    0.640500    2.104113
     14          7           0        0.183206    0.327891   -1.837364
     15          1           0        0.872307    0.947416   -2.244638
     16          1           0       -0.744050    0.596311   -2.163180
     17          6           0        0.286626    1.768999    0.144690
     18          7           0        0.444815    2.865584    0.547765
 ---------------------------------------------------------------------
 Rotational constants (GHZ):           1.4020499           0.6855840           0.5919625
 ======================================================================================================
                                       Pseudopotential Parameters
 ======================================================================================================
  Center     Atomic      Valence      Angular      Power
  Number     Number     Electrons     Momentum     of R      Exponent        Coefficient   SO-Coeffient
 ======================================================================================================
    1          6            6
                                      G and up 
                                                     0        0.0000010       -0.00286759    0.00000000
                                                     2        0.1200000        0.03193960    0.00000000
                                                     2        0.1600000       -0.04027782    0.00000000
                                                     2        0.2600000        0.24782456    0.00000000
                                                     2        0.4000000       -0.62266671    0.00000000
                                                     2        0.7000000        0.35695227    0.00000000
                                      S - G
                                                     0        0.0000010       -0.06602313    0.00000000
                                                     2        0.1200000        1.47277455    0.00000000
                                                     2        0.1600000       -4.06924166    0.00000000
                                                     2        0.3000000        5.02952802    0.00000000
                                                     2        0.7000000       -5.65856978    0.00000000
                                                     2        1.7000000        8.57604414    0.00000000
                                      P - G
                                                     0        0.0000010        0.49434425    0.00000000
                                                     2        0.1200000       -1.37391547    0.00000000
                                                     2        0.1600000        3.65411806    0.00000000
                                                     2        0.2800000       -7.36479843    0.00000000
                                                     2        0.6000000       17.22091285    0.00000000
                                                     2        1.1000000      -23.50107827    0.00000000
                                                     2        3.0000000       16.29464063    0.00000000
                                      D - G
                                                     0        0.0000010       -0.28693103    0.00000000
                                                     2        0.1200000        0.12273044    0.00000000
                                                     2        0.3000000       -0.43416384    0.00000000
                                                     2        0.7000000        2.23358493    0.00000000
                                      F - G
                                                     0        0.0000010        0.07263570    0.00000000
                                                     2        0.1400000       -0.76152861    0.00000000
                                                     2        0.2200000        1.98045593    0.00000000
                                                     2        0.4000000       -2.42426427    0.00000000
                                                     2        0.7000000        0.52335237    0.00000000
    2          6            6
                                      G and up 
                                                     0        0.0000010       -0.00286759    0.00000000
                                                     2        0.1200000        0.03193960    0.00000000
                                                     2        0.1600000       -0.04027782    0.00000000
                                                     2        0.2600000        0.24782456    0.00000000
                                                     2        0.4000000       -0.62266671    0.00000000
                                                     2        0.7000000        0.35695227    0.00000000
                                      S - G
                                                     0        0.0000010       -0.06602313    0.00000000
                                                     2        0.1200000        1.47277455    0.00000000
                                                     2        0.1600000       -4.06924166    0.00000000
                                                     2        0.3000000        5.02952802    0.00000000
                                                     2        0.7000000       -5.65856978    0.00000000
                                                     2        1.7000000        8.57604414    0.00000000
                                      P - G
                                                     0        0.0000010        0.49434425    0.00000000
                                                     2        0.1200000       -1.37391547    0.00000000
                                                     2        0.1600000        3.65411806    0.00000000
                                                     2        0.2800000       -7.36479843    0.00000000
                                                     2        0.6000000       17.22091285    0.00000000
                                                     2        1.1000000      -23.50107827    0.00000000
                                                     2        3.0000000       16.29464063    0.00000000
                                      D - G
                                                     0        0.0000010       -0.28693103    0.00000000
                                                     2        0.1200000        0.12273044    0.00000000
                                                     2        0.3000000       -0.43416384    0.00000000
                                                     2        0.7000000        2.23358493    0.00000000
                                      F - G
                                                     0        0.0000010        0.07263570    0.00000000
                                                     2        0.1400000       -0.76152861    0.00000000
                                                     2        0.2200000        1.98045593    0.00000000
                                                     2        0.4000000       -2.42426427    0.00000000
                                                     2        0.7000000        0.52335237    0.00000000
    3         17           17
                                      G and up 
                                                     0        0.0000010        0.00409650    0.00000000
                                                     2        0.1200000        0.06945192    0.00000000
                                                     2        0.1400000       -0.06660574    0.00000000
                                                     2        0.2200000        0.15305308    0.00000000
                                      S - G
                                                     0        0.0000010        0.00555482    0.00000000
                                                     2        0.2000000       -0.53060378    0.00000000
                                      P - G
                                                     0        0.0000010       -0.16962542    0.00000000
                                                     2        0.1200000        0.15585357    0.00000000
                                                     2        0.1800000       -0.79460714    0.00000000
                                                     2        0.5000000        1.36495881    0.00000000
                                      D - G
                                                     0        0.0000010        0.91266089    0.00000000
                                                     2        0.2400000       -1.50552862    0.00000000
                                      F - G
                                                     0        0.0000010       -0.76620800    0.00000000
                                                     2        0.1200000       -0.23737626    0.00000000
                                                     2        0.1800000        0.28531204    0.00000000
    4         17           17
                                      G and up 
                                                     0        0.0000010        0.00409650    0.00000000
                                                     2        0.1200000        0.06945192    0.00000000
                                                     2        0.1400000       -0.06660574    0.00000000
                                                     2        0.2200000        0.15305308    0.00000000
                                      S - G
                                                     0        0.0000010        0.00555482    0.00000000
                                                     2        0.2000000       -0.53060378    0.00000000
                                      P - G
                                                     0        0.0000010       -0.16962542    0.00000000
                                                     2        0.1200000        0.15585357    0.00000000
                                                     2        0.1800000       -0.79460714    0.00000000
                                                     2        0.5000000        1.36495881    0.00000000
                                      D - G
                                                     0        0.0000010        0.91266089    0.00000000
                                                     2        0.2400000       -1.50552862    0.00000000
                                      F - G
                                                     0        0.0000010       -0.76620800    0.00000000
                                                     2        0.1200000       -0.23737626    0.00000000
                                                     2        0.1800000        0.28531204    0.00000000
    5          1            1
                                      F and up 
                                                     0        0.0000010        0.00072061    0.00000000
                                                     2        0.1200000        0.03832357    0.00000000
                                                     2        0.1400000       -0.08683256    0.00000000
                                                     2        0.1800000        0.09312970    0.00000000
                                                     2        0.2800000       -0.02532572    0.00000000
                                                     2        0.4000000       -0.09430787    0.00000000
                                                     2        0.7000000        0.42710831    0.00000000
                                                     2        1.2000000       -2.11746981    0.00000000
                                      S - F
                                                     0        0.0000010        0.14449603    0.00000000
                                                     2        0.1200000       -0.56378993    0.00000000
                                                     2        0.1400000        0.63941249    0.00000000
                                                     2        0.2600000       -0.58461015    0.00000000
                                                     2        0.5000000        1.00157293    0.00000000
                                                     2        1.8000000       -0.14135838    0.00000000
                                      P - F
                                                     0        0.0000010       -0.09353646    0.00000000
                                                     2        0.1200000        0.31768975    0.00000000
                                                     2        0.2000000       -0.71747951    0.00000000
                                                     2        0.4000000        0.65752308    0.00000000
                                                     2        1.7000000        2.94052587    0.00000000
                                      D - F
                                                     0        0.0000010       -0.04491202    0.00000000
                                                     2        0.1200000       -0.02862031    0.00000000
                                                     2        0.1800000       -0.21515263    0.00000000
                                                     2        0.3000000        0.80560647    0.00000000
                                                     2        0.4000000        0.47351754    0.00000000
                                                     2        0.7000000       -4.57051794    0.00000000
                                                     2        1.6000000       18.53737826    0.00000000
    6          6            6
                                      G and up 
                                                     0        0.0000010       -0.00286759    0.00000000
                                                     2        0.1200000        0.03193960    0.00000000
                                                     2        0.1600000       -0.04027782    0.00000000
                                                     2        0.2600000        0.24782456    0.00000000
                                                     2        0.4000000       -0.62266671    0.00000000
                                                     2        0.7000000        0.35695227    0.00000000
                                      S - G
                                                     0        0.0000010       -0.06602313    0.00000000
                                                     2        0.1200000        1.47277455    0.00000000
                                                     2        0.1600000       -4.06924166    0.00000000
                                                     2        0.3000000        5.02952802    0.00000000
                                                     2        0.7000000       -5.65856978    0.00000000
                                                     2        1.7000000        8.57604414    0.00000000
                                      P - G
                                                     0        0.0000010        0.49434425    0.00000000
                                                     2        0.1200000       -1.37391547    0.00000000
                                                     2        0.1600000        3.65411806    0.00000000
                                                     2        0.2800000       -7.36479843    0.00000000
                                                     2        0.6000000       17.22091285    0.00000000
                                                     2        1.1000000      -23.50107827    0.00000000
                                                     2        3.0000000       16.29464063    0.00000000
                                      D - G
                                                     0        0.0000010       -0.28693103    0.00000000
                                                     2        0.1200000        0.12273044    0.00000000
                                                     2        0.3000000       -0.43416384    0.00000000
                                                     2        0.7000000        2.23358493    0.00000000
                                      F - G
                                                     0        0.0000010        0.07263570    0.00000000
                                                     2        0.1400000       -0.76152861    0.00000000
                                                     2        0.2200000        1.98045593    0.00000000
                                                     2        0.4000000       -2.42426427    0.00000000
                                                     2        0.7000000        0.52335237    0.00000000
    7          1            1
                                      F and up 
                                                     0        0.0000010        0.00072061    0.00000000
                                                     2        0.1200000        0.03832357    0.00000000
                                                     2        0.1400000       -0.08683256    0.00000000
                                                     2        0.1800000        0.09312970    0.00000000
                                                     2        0.2800000       -0.02532572    0.00000000
                                                     2        0.4000000       -0.09430787    0.00000000
                                                     2        0.7000000        0.42710831    0.00000000
                                                     2        1.2000000       -2.11746981    0.00000000
                                      S - F
                                                     0        0.0000010        0.14449603    0.00000000
                                                     2        0.1200000       -0.56378993    0.00000000
                                                     2        0.1400000        0.63941249    0.00000000
                                                     2        0.2600000       -0.58461015    0.00000000
                                                     2        0.5000000        1.00157293    0.00000000
                                                     2        1.8000000       -0.14135838    0.00000000
                                      P - F
                                                     0        0.0000010       -0.09353646    0.00000000
                                                     2        0.1200000        0.31768975    0.00000000
                                                     2        0.2000000       -0.71747951    0.00000000
                                                     2        0.4000000        0.65752308    0.00000000
                                                     2        1.7000000        2.94052587    0.00000000
                                      D - F
                                                     0        0.0000010       -0.04491202    0.00000000
                                                     2        0.1200000       -0.02862031    0.00000000
                                                     2        0.1800000       -0.21515263    0.00000000
                                                     2        0.3000000        0.80560647    0.00000000
                                                     2        0.4000000        0.47351754    0.00000000
                                                     2        0.7000000       -4.57051794    0.00000000
                                                     2        1.6000000       18.53737826    0.00000000
    8          1            1
                                      F and up 
                                                     0        0.0000010        0.00072061    0.00000000
                                                     2        0.1200000        0.03832357    0.00000000
                                                     2        0.1400000       -0.08683256    0.00000000
                                                     2        0.1800000        0.09312970    0.00000000
                                                     2        0.2800000       -0.02532572    0.00000000
                                                     2        0.4000000       -0.09430787    0.00000000
                                                     2        0.7000000        0.42710831    0.00000000
                                                     2        1.2000000       -2.11746981    0.00000000
                                      S - F
                                                     0        0.0000010        0.14449603    0.00000000
                                                     2        0.1200000       -0.56378993    0.00000000
                                                     2        0.1400000        0.63941249    0.00000000
                                                     2        0.2600000       -0.58461015    0.00000000
                                                     2        0.5000000        1.00157293    0.00000000
                                                     2        1.8000000       -0.14135838    0.00000000
                                      P - F
                                                     0        0.0000010       -0.09353646    0.00000000
                                                     2        0.1200000        0.31768975    0.00000000
                                                     2        0.2000000       -0.71747951    0.00000000
                                                     2        0.4000000        0.65752308    0.00000000
                                                     2        1.7000000        2.94052587    0.00000000
                                      D - F
                                                     0        0.0000010       -0.04491202    0.00000000
                                                     2        0.1200000       -0.02862031    0.00000000
                                                     2        0.1800000       -0.21515263    0.00000000
                                                     2        0.3000000        0.80560647    0.00000000
                                                     2        0.4000000        0.47351754    0.00000000
                                                     2        0.7000000       -4.57051794    0.00000000
                                                     2        1.6000000       18.53737826    0.00000000
    9          1            1
                                      F and up 
                                                     0        0.0000010        0.00072061    0.00000000
                                                     2        0.1200000        0.03832357    0.00000000
                                                     2        0.1400000       -0.08683256    0.00000000
                                                     2        0.1800000        0.09312970    0.00000000
                                                     2        0.2800000       -0.02532572    0.00000000
                                                     2        0.4000000       -0.09430787    0.00000000
                                                     2        0.7000000        0.42710831    0.00000000
                                                     2        1.2000000       -2.11746981    0.00000000
                                      S - F
                                                     0        0.0000010        0.14449603    0.00000000
                                                     2        0.1200000       -0.56378993    0.00000000
                                                     2        0.1400000        0.63941249    0.00000000
                                                     2        0.2600000       -0.58461015    0.00000000
                                                     2        0.5000000        1.00157293    0.00000000
                                                     2        1.8000000       -0.14135838    0.00000000
                                      P - F
                                                     0        0.0000010       -0.09353646    0.00000000
                                                     2        0.1200000        0.31768975    0.00000000
                                                     2        0.2000000       -0.71747951    0.00000000
                                                     2        0.4000000        0.65752308    0.00000000
                                                     2        1.7000000        2.94052587    0.00000000
                                      D - F
                                                     0        0.0000010       -0.04491202    0.00000000
                                                     2        0.1200000       -0.02862031    0.00000000
                                                     2        0.1800000       -0.21515263    0.00000000
                                                     2        0.3000000        0.80560647    0.00000000
                                                     2        0.4000000        0.47351754    0.00000000
                                                     2        0.7000000       -4.57051794    0.00000000
                                                     2        1.6000000       18.53737826    0.00000000
   10          6            6
                                      G and up 
                                                     0        0.0000010       -0.00286759    0.00000000
                                                     2        0.1200000        0.03193960    0.00000000
                                                     2        0.1600000       -0.04027782    0.00000000
                                                     2        0.2600000        0.24782456    0.00000000
                                                     2        0.4000000       -0.62266671    0.00000000
                                                     2        0.7000000        0.35695227    0.00000000
                                      S - G
                                                     0        0.0000010       -0.06602313    0.00000000
                                                     2        0.1200000        1.47277455    0.00000000
                                                     2        0.1600000       -4.06924166    0.00000000
                                                     2        0.3000000        5.02952802    0.00000000
                                                     2        0.7000000       -5.65856978    0.00000000
                                                     2        1.7000000        8.57604414    0.00000000
                                      P - G
                                                     0        0.0000010        0.49434425    0.00000000
                                                     2        0.1200000       -1.37391547    0.00000000
                                                     2        0.1600000        3.65411806    0.00000000
                                                     2        0.2800000       -7.36479843    0.00000000
                                                     2        0.6000000       17.22091285    0.00000000
                                                     2        1.1000000      -23.50107827    0.00000000
                                                     2        3.0000000       16.29464063    0.00000000
                                      D - G
                                                     0        0.0000010       -0.28693103    0.00000000
                                                     2        0.1200000        0.12273044    0.00000000
                                                     2        0.3000000       -0.43416384    0.00000000
                                                     2        0.7000000        2.23358493    0.00000000
                                      F - G
                                                     0        0.0000010        0.07263570    0.00000000
                                                     2        0.1400000       -0.76152861    0.00000000
                                                     2        0.2200000        1.98045593    0.00000000
                                                     2        0.4000000       -2.42426427    0.00000000
                                                     2        0.7000000        0.52335237    0.00000000
   11          1            1
                                      F and up 
                                                     0        0.0000010        0.00072061    0.00000000
                                                     2        0.1200000        0.03832357    0.00000000
                                                     2        0.1400000       -0.08683256    0.00000000
                                                     2        0.1800000        0.09312970    0.00000000
                                                     2        0.2800000       -0.02532572    0.00000000
                                                     2        0.4000000       -0.09430787    0.00000000
                                                     2        0.7000000        0.42710831    0.00000000
                                                     2        1.2000000       -2.11746981    0.00000000
                                      S - F
                                                     0        0.0000010        0.14449603    0.00000000
                                                     2        0.1200000       -0.56378993    0.00000000
                                                     2        0.1400000        0.63941249    0.00000000
                                                     2        0.2600000       -0.58461015    0.00000000
                                                     2        0.5000000        1.00157293    0.00000000
                                                     2        1.8000000       -0.14135838    0.00000000
                                      P - F
                                                     0        0.0000010       -0.09353646    0.00000000
                                                     2        0.1200000        0.31768975    0.00000000
                                                     2        0.2000000       -0.71747951    0.00000000
                                                     2        0.4000000        0.65752308    0.00000000
                                                     2        1.7000000        2.94052587    0.00000000
                                      D - F
                                                     0        0.0000010       -0.04491202    0.00000000
                                                     2        0.1200000       -0.02862031    0.00000000
                                                     2        0.1800000       -0.21515263    0.00000000
                                                     2        0.3000000        0.80560647    0.00000000
                                                     2        0.4000000        0.47351754    0.00000000
                                                     2        0.7000000       -4.57051794    0.00000000
                                                     2        1.6000000       18.53737826    0.00000000
   12          1            1
                                      F and up 
                                                     0        0.0000010        0.00072061    0.00000000
                                                     2        0.1200000        0.03832357    0.00000000
                                                     2        0.1400000       -0.08683256    0.00000000
                                                     2        0.1800000        0.09312970    0.00000000
                                                     2        0.2800000       -0.02532572    0.00000000
                                                     2        0.4000000       -0.09430787    0.00000000
                                                     2        0.7000000        0.42710831    0.00000000
                                                     2        1.2000000       -2.11746981    0.00000000
                                      S - F
                                                     0        0.0000010        0.14449603    0.00000000
                                                     2        0.1200000       -0.56378993    0.00000000
                                                     2        0.1400000        0.63941249    0.00000000
                                                     2        0.2600000       -0.58461015    0.00000000
                                                     2        0.5000000        1.00157293    0.00000000
                                                     2        1.8000000       -0.14135838    0.00000000
                                      P - F
                                                     0        0.0000010       -0.09353646    0.00000000
                                                     2        0.1200000        0.31768975    0.00000000
                                                     2        0.2000000       -0.71747951    0.00000000
                                                     2        0.4000000        0.65752308    0.00000000
                                                     2        1.7000000        2.94052587    0.00000000
                                      D - F
                                                     0        0.0000010       -0.04491202    0.00000000
                                                     2        0.1200000       -0.02862031    0.00000000
                                                     2        0.1800000       -0.21515263    0.00000000
                                                     2        0.3000000        0.80560647    0.00000000
                                                     2        0.4000000        0.47351754    0.00000000
                                                     2        0.7000000       -4.57051794    0.00000000
                                                     2        1.6000000       18.53737826    0.00000000
   13          1            1
                                      F and up 
                                                     0        0.0000010        0.00072061    0.00000000
                                                     2        0.1200000        0.03832357    0.00000000
                                                     2        0.1400000       -0.08683256    0.00000000
                                                     2        0.1800000        0.09312970    0.00000000
                                                     2        0.2800000       -0.02532572    0.00000000
                                                     2        0.4000000       -0.09430787    0.00000000
                                                     2        0.7000000        0.42710831    0.00000000
                                                     2        1.2000000       -2.11746981    0.00000000
                                      S - F
                                                     0        0.0000010        0.14449603    0.00000000
                                                     2        0.1200000       -0.56378993    0.00000000
                                                     2        0.1400000        0.63941249    0.00000000
                                                     2        0.2600000       -0.58461015    0.00000000
                                                     2        0.5000000        1.00157293    0.00000000
                                                     2        1.8000000       -0.14135838    0.00000000
                                      P - F
                                                     0        0.0000010       -0.09353646    0.00000000
                                                     2        0.1200000        0.31768975    0.00000000
                                                     2        0.2000000       -0.71747951    0.00000000
                                                     2        0.4000000        0.65752308    0.00000000
                                                     2        1.7000000        2.94052587    0.00000000
                                      D - F
                                                     0        0.0000010       -0.04491202    0.00000000
                                                     2        0.1200000       -0.02862031    0.00000000
                                                     2        0.1800000       -0.21515263    0.00000000
                                                     2        0.3000000        0.80560647    0.00000000
                                                     2        0.4000000        0.47351754    0.00000000
                                                     2        0.7000000       -4.57051794    0.00000000
                                                     2        1.6000000       18.53737826    0.00000000
   14          7            7
                                      G and up 
                                                     0        0.0000010        0.00420138    0.00000000
                                                     2        0.1200000        0.05872431    0.00000000
                                                     2        0.1400000       -0.08436978    0.00000000
                                                     2        0.2000000        0.05409159    0.00000000
                                                     2        0.2600000        0.14199713    0.00000000
                                                     2        0.6000000       -0.79062770    0.00000000
                                                     2        0.7000000       -0.14441060    0.00000000
                                                     2        1.5000000        0.73772979    0.00000000
                                      S - G
                                                     0        0.0000010       -0.03094411    0.00000000
                                                     2        0.1200000        0.65332522    0.00000000
                                                     2        0.1800000       -1.38149133    0.00000000
                                                     2        1.3000000        3.29267299    0.00000000
                                      P - G
                                                     0        0.0000010        0.07303105    0.00000000
                                                     2        0.1200000        0.23145115    0.00000000
                                                     2        0.2000000       -1.20679699    0.00000000
                                                     2        0.4000000        1.75088447    0.00000000
                                                     2        1.2000000       -0.67486559    0.00000000
                                      D - G
                                                     0        0.0000010        0.07560739    0.00000000
                                                     2        0.3000000       -0.68679114    0.00000000
                                                     2        0.9000000        3.60133241    0.00000000
                                      F - G
                                                     0        0.0000010       -0.18221184    0.00000000
                                                     2        0.1200000       -0.39369067    0.00000000
                                                     2        0.1800000        0.72091725    0.00000000
                                                     2        0.6000000        0.15946111    0.00000000
   15          1            1
                                      F and up 
                                                     0        0.0000010        0.00072061    0.00000000
                                                     2        0.1200000        0.03832357    0.00000000
                                                     2        0.1400000       -0.08683256    0.00000000
                                                     2        0.1800000        0.09312970    0.00000000
                                                     2        0.2800000       -0.02532572    0.00000000
                                                     2        0.4000000       -0.09430787    0.00000000
                                                     2        0.7000000        0.42710831    0.00000000
                                                     2        1.2000000       -2.11746981    0.00000000
                                      S - F
                                                     0        0.0000010        0.14449603    0.00000000
                                                     2        0.1200000       -0.56378993    0.00000000
                                                     2        0.1400000        0.63941249    0.00000000
                                                     2        0.2600000       -0.58461015    0.00000000
                                                     2        0.5000000        1.00157293    0.00000000
                                                     2        1.8000000       -0.14135838    0.00000000
                                      P - F
                                                     0        0.0000010       -0.09353646    0.00000000
                                                     2        0.1200000        0.31768975    0.00000000
                                                     2        0.2000000       -0.71747951    0.00000000
                                                     2        0.4000000        0.65752308    0.00000000
                                                     2        1.7000000        2.94052587    0.00000000
                                      D - F
                                                     0        0.0000010       -0.04491202    0.00000000
                                                     2        0.1200000       -0.02862031    0.00000000
                                                     2        0.1800000       -0.21515263    0.00000000
                                                     2        0.3000000        0.80560647    0.00000000
                                                     2        0.4000000        0.47351754    0.00000000
                                                     2        0.7000000       -4.57051794    0.00000000
                                                     2        1.6000000       18.53737826    0.00000000
   16          1            1
                                      F and up 
                                                     0        0.0000010        0.00072061    0.00000000
                                                     2        0.1200000        0.03832357    0.00000000
                                                     2        0.1400000       -0.08683256    0.00000000
                                                     2        0.1800000        0.09312970    0.00000000
                                                     2        0.2800000       -0.02532572    0.00000000
                                                     2        0.4000000       -0.09430787    0.00000000
                                                     2        0.7000000        0.42710831    0.00000000
                                                     2        1.2000000       -2.11746981    0.00000000
                                      S - F
                                                     0        0.0000010        0.14449603    0.00000000
                                                     2        0.1200000       -0.56378993    0.00000000
                                                     2        0.1400000        0.63941249    0.00000000
                                                     2        0.2600000       -0.58461015    0.00000000
                                                     2        0.5000000        1.00157293    0.00000000
                                                     2        1.8000000       -0.14135838    0.00000000
                                      P - F
                                                     0        0.0000010       -0.09353646    0.00000000
                                                     2        0.1200000        0.31768975    0.00000000
                                                     2        0.2000000       -0.71747951    0.00000000
                                                     2        0.4000000        0.65752308    0.00000000
                                                     2        1.7000000        2.94052587    0.00000000
                                      D - F
                                                     0        0.0000010       -0.04491202    0.00000000
                                                     2        0.1200000       -0.02862031    0.00000000
                                                     2        0.1800000       -0.21515263    0.00000000
                                                     2        0.3000000        0.80560647    0.00000000
                                                     2        0.4000000        0.47351754    0.00000000
                                                     2        0.7000000       -4.57051794    0.00000000
                                                     2        1.6000000       18.53737826    0.00000000
   17          6            6
                                      G and up 
                                                     0        0.0000010       -0.00286759    0.00000000
                                                     2        0.1200000        0.03193960    0.00000000
                                                     2        0.1600000       -0.04027782    0.00000000
                                                     2        0.2600000        0.24782456    0.00000000
                                                     2        0.4000000       -0.62266671    0.00000000
                                                     2        0.7000000        0.35695227    0.00000000
                                      S - G
                                                     0        0.0000010       -0.06602313    0.00000000
                                                     2        0.1200000        1.47277455    0.00000000
                                                     2        0.1600000       -4.06924166    0.00000000
                                                     2        0.3000000        5.02952802    0.00000000
                                                     2        0.7000000       -5.65856978    0.00000000
                                                     2        1.7000000        8.57604414    0.00000000
                                      P - G
                                                     0        0.0000010        0.49434425    0.00000000
                                                     2        0.1200000       -1.37391547    0.00000000
                                                     2        0.1600000        3.65411806    0.00000000
                                                     2        0.2800000       -7.36479843    0.00000000
                                                     2        0.6000000       17.22091285    0.00000000
                                                     2        1.1000000      -23.50107827    0.00000000
                                                     2        3.0000000       16.29464063    0.00000000
                                      D - G
                                                     0        0.0000010       -0.28693103    0.00000000
                                                     2        0.1200000        0.12273044    0.00000000
                                                     2        0.3000000       -0.43416384    0.00000000
                                                     2        0.7000000        2.23358493    0.00000000
                                      F - G
                                                     0        0.0000010        0.07263570    0.00000000
                                                     2        0.1400000       -0.76152861    0.00000000
                                                     2        0.2200000        1.98045593    0.00000000
                                                     2        0.4000000       -2.42426427    0.00000000
                                                     2        0.7000000        0.52335237    0.00000000
   18          7            7
                                      G and up 
                                                     0        0.0000010        0.00420138    0.00000000
                                                     2        0.1200000        0.05872431    0.00000000
                                                     2        0.1400000       -0.08436978    0.00000000
                                                     2        0.2000000        0.05409159    0.00000000
                                                     2        0.2600000        0.14199713    0.00000000
                                                     2        0.6000000       -0.79062770    0.00000000
                                                     2        0.7000000       -0.14441060    0.00000000
                                                     2        1.5000000        0.73772979    0.00000000
                                      S - G
                                                     0        0.0000010       -0.03094411    0.00000000
                                                     2        0.1200000        0.65332522    0.00000000
                                                     2        0.1800000       -1.38149133    0.00000000
                                                     2        1.3000000        3.29267299    0.00000000
                                      P - G
                                                     0        0.0000010        0.07303105    0.00000000
                                                     2        0.1200000        0.23145115    0.00000000
                                                     2        0.2000000       -1.20679699    0.00000000
                                                     2        0.4000000        1.75088447    0.00000000
                                                     2        1.2000000       -0.67486559    0.00000000
                                      D - G
                                                     0        0.0000010        0.07560739    0.00000000
                                                     2        0.3000000       -0.68679114    0.00000000
                                                     2        0.9000000        3.60133241    0.00000000
                                      F - G
                                                     0        0.0000010       -0.18221184    0.00000000
                                                     2        0.1200000       -0.39369067    0.00000000
                                                     2        0.1800000        0.72091725    0.00000000
                                                     2        0.6000000        0.15946111    0.00000000
 ======================================================================================================
   296 basis functions,   562 primitive gaussians,   314 cartesian basis functions
    44 alpha electrons       44 beta electrons
       nuclear repulsion energy       591.8666747121 Hartrees.
 NAtoms=   18 NActive=   18 NUniq=   18 SFac= 1.00D+00 NAtFMM=   60 NAOKFM=F Big=F
   1 Symmetry operations used in ECPInt.
 ECPInt:  NShTT=    8515 NPrTT=   48791 LenC2=    8464 LenP2D=   33857.
 LDataN:  DoStor=T MaxTD1= 6 Len=  172
 Initial guess from the checkpoint file:  "E2SN2_110_mol1.chk"
 B after Tr=    -1.173564   -0.316621    0.166027
         Rot=   -0.273567    0.156485    0.836155    0.448908 Ang= 211.75 deg.
 >>>>>>>>>> Convergence criterion not met.
 SCF Done:  E(RHF) =  -1224.54942277     A.U. after    2 cycles
            NFock=  1  Conv=0.12D+01     -V/T= 1.9973

 **********************************************************************

            Population analysis using the SCF Density.

 **********************************************************************

 Orbital symmetries:
       Occupied  (A) (A) (A) (A) (A) (A) (A) (A) (A) (A) (A) (A)
                 (A) (A) (A) (A) (A) (A) (A) (A) (A) (A) (A) (A)
                 (A) (A) (A) (A) (A) (A) (A) (A) (A) (A) (A) (A)
                 (A) (A) (A) (A) (A) (A) (A) (A)
       Virtual   (A) (A) (A) (A) (A) (A) (A) (A) (A) (A) (A) (A)
                 (A) (A) (A) (A) (A) (A) (A) (A) (A) (A) (A) (A)
                 (A) (A) (A) (A) (A) (A) (A) (A) (A) (A) (A) (A)
                 (A) (A) (A) (A) (A) (A) (A) (A) (A) (A) (A) (A)
                 (A) (A) (A) (A) (A) (A) (A) (A) (A) (A) (A) (A)
                 (A) (A) (A) (A) (A) (A) (A) (A) (A) (A) (A) (A)
                 (A) (A) (A) (A) (A) (A) (A) (A) (A) (A) (A) (A)
                 (A) (A) (A) (A) (A) (A) (A) (A) (A) (A) (A) (A)
                 (A) (A) (A) (A) (A) (A) (A) (A) (A) (A) (A) (A)
                 (A) (A) (A) (A) (A) (A) (A) (A) (A) (A) (A) (A)
                 (A) (A) (A) (A) (A) (A) (A) (A) (A) (A) (A) (A)
                 (A) (A) (A) (A) (A) (A) (A) (A) (A) (A) (A) (A)
                 (A) (A) (A) (A) (A) (A) (A) (A) (A) (A) (A) (A)
                 (A) (A) (A) (A) (A) (A) (A) (A) (A) (A) (A) (A)
                 (A) (A) (A) (A) (A) (A) (A) (A) (A) (A) (A) (A)
                 (A) (A) (A) (A) (A) (A) (A) (A) (A) (A) (A) (A)
                 (A) (A) (A) (A) (A) (A) (A) (A) (A) (A) (A) (A)
                 (A) (A) (A) (A) (A) (A) (A) (A) (A) (A) (A) (A)
                 (A) (A) (A) (A) (A) (A) (A) (A) (A) (A) (A) (A)
                 (A) (A) (A) (A) (A) (A) (A) (A) (A) (A) (A) (A)
                 (A) (A) (A) (A) (A) (A) (A) (A) (A) (A) (A) (A)
 The electronic state is 1-A.
 Alpha  occ. eigenvalues --  -99.73191 -99.64820 -15.62453 -15.62341 -11.40068
 Alpha  occ. eigenvalues --  -11.33938 -11.29868 -11.28177 -11.25915 -10.30219
 Alpha  occ. eigenvalues --  -10.21692  -9.50336  -9.49696  -9.49649  -9.41830
 Alpha  occ. eigenvalues --   -9.41327  -9.41286  -1.28109  -1.14619  -1.12425
 Alpha  occ. eigenvalues --   -1.10634  -1.00920  -0.91656  -0.88389  -0.69328
 Alpha  occ. eigenvalues --   -0.58585  -0.56800  -0.51568  -0.49664  -0.48740
 Alpha  occ. eigenvalues --   -0.44469  -0.43688  -0.39575  -0.37925  -0.37087
 Alpha  occ. eigenvalues --   -0.36565  -0.35936  -0.35403  -0.30913  -0.30475
 Alpha  occ. eigenvalues --   -0.28847  -0.28604  -0.25440  -0.17324
 Alpha virt. eigenvalues --    0.13369   0.14288   0.14775   0.14821   0.15412
 Alpha virt. eigenvalues --    0.16074   0.16534   0.16911   0.17910   0.19879
 Alpha virt. eigenvalues --    0.21708   0.22402   0.23147   0.23264   0.23660
 Alpha virt. eigenvalues --    0.24773   0.24975   0.25997   0.26129   0.26680
 Alpha virt. eigenvalues --    0.27636   0.28276   0.28655   0.29597   0.30019
 Alpha virt. eigenvalues --    0.30467   0.31123   0.31616   0.31778   0.32281
 Alpha virt. eigenvalues --    0.32930   0.33160   0.33846   0.34238   0.34405
 Alpha virt. eigenvalues --    0.34757   0.35361   0.35977   0.36755   0.38210
 Alpha virt. eigenvalues --    0.38883   0.40460   0.40757   0.41455   0.42698
 Alpha virt. eigenvalues --    0.43751   0.44376   0.45502   0.46271   0.47406
 Alpha virt. eigenvalues --    0.48515   0.49295   0.49985   0.50543   0.51290
 Alpha virt. eigenvalues --    0.51584   0.52230   0.52738   0.53424   0.54353
 Alpha virt. eigenvalues --    0.55077   0.55705   0.56478   0.57121   0.57800
 Alpha virt. eigenvalues --    0.58055   0.59296   0.59888   0.60791   0.60941
 Alpha virt. eigenvalues --    0.61595   0.63125   0.63904   0.65049   0.65141
 Alpha virt. eigenvalues --    0.65629   0.66998   0.67798   0.69138   0.69736
 Alpha virt. eigenvalues --    0.71367   0.72002   0.72945   0.73438   0.73832
 Alpha virt. eigenvalues --    0.75764   0.75985   0.76095   0.78185   0.78664
 Alpha virt. eigenvalues --    0.79955   0.80215   0.81667   0.81918   0.83429
 Alpha virt. eigenvalues --    0.84216   0.84312   0.85216   0.86206   0.87034
 Alpha virt. eigenvalues --    0.87486   0.87997   0.88577   0.90638   0.91273
 Alpha virt. eigenvalues --    0.91818   0.93467   0.93752   0.94720   0.96034
 Alpha virt. eigenvalues --    0.98323   1.00165   1.01565   1.01987   1.02308
 Alpha virt. eigenvalues --    1.03383   1.04160   1.05491   1.06815   1.07130
 Alpha virt. eigenvalues --    1.10085   1.11281   1.12859   1.14964   1.15036
 Alpha virt. eigenvalues --    1.15992   1.18158   1.19135   1.21442   1.21898
 Alpha virt. eigenvalues --    1.24183   1.25142   1.26267   1.28356   1.30108
 Alpha virt. eigenvalues --    1.31685   1.32318   1.33194   1.34699   1.36247
 Alpha virt. eigenvalues --    1.37941   1.40183   1.42684   1.43873   1.44871
 Alpha virt. eigenvalues --    1.47890   1.48806   1.49020   1.51095   1.52781
 Alpha virt. eigenvalues --    1.54393   1.55210   1.56470   1.57656   1.58790
 Alpha virt. eigenvalues --    1.60246   1.63063   1.64445   1.66732   1.68020
 Alpha virt. eigenvalues --    1.69690   1.71180   1.74481   1.75642   1.79188
 Alpha virt. eigenvalues --    1.86045   1.90112   1.91328   1.93347   1.96517
 Alpha virt. eigenvalues --    1.98188   1.99979   2.03434   2.05506   2.06695
 Alpha virt. eigenvalues --    2.07930   2.08369   2.10125   2.12781   2.13819
 Alpha virt. eigenvalues --    2.13955   2.17627   2.18482   2.19096   2.20177
 Alpha virt. eigenvalues --    2.21655   2.23429   2.24879   2.27374   2.28966
 Alpha virt. eigenvalues --    2.32099   2.32521   2.36117   2.37301   2.40357
 Alpha virt. eigenvalues --    2.42857   2.46309   2.49021   2.50369   2.51093
 Alpha virt. eigenvalues --    2.55287   2.57944   2.59734   2.62150   2.64414
 Alpha virt. eigenvalues --    2.65861   2.68468   2.70574   2.74039   2.76331
 Alpha virt. eigenvalues --    2.77454   2.82267   2.83137   2.84273   2.86417
 Alpha virt. eigenvalues --    2.87417   2.91715   2.94097   2.95751   2.99035
 Alpha virt. eigenvalues --    3.00335   3.03081   3.06286   3.07464   3.12022
 Alpha virt. eigenvalues --    3.13913   3.15926   3.17850   3.18287   3.19941
 Alpha virt. eigenvalues --    3.23169   3.30476   3.32941   3.35246   3.40022
 Alpha virt. eigenvalues --    3.46458   3.48480   3.51117   3.54325   3.60283
 Alpha virt. eigenvalues --    3.71893   3.78274   3.83549   3.90339   3.90898
 Alpha virt. eigenvalues --    3.95825   4.05886   4.09409   4.19153   4.28576
 Alpha virt. eigenvalues --    4.52841   4.71898
          Condensed to atoms (all electrons):
 Mulliken charges:
               1
     1  C    4.140042
     2  C    3.249159
     3  Cl  -0.855971
     4  Cl  -0.961696
     5  H    1.035137
     6  C   -5.298040
     7  H    1.222967
     8  H    1.146190
     9  H    1.237531
    10  C   -5.052973
    11  H    1.280567
    12  H    1.192961
    13  H    1.129902
    14  N   -3.931042
    15  H    0.699224
    16  H    0.571327
    17  C    0.649359
    18  N   -2.454645
 Sum of Mulliken charges =  -1.00000
 Mulliken charges with hydrogens summed into heavy atoms:
               1
     1  C    4.140042
     2  C    3.249159
     3  Cl  -0.855971
     4  Cl   0.073441
     6  C   -1.691352
    10  C   -1.449543
    14  N   -2.660490
    17  C    0.649359
    18  N   -2.454645
 Electronic spatial extent (au):  <R**2>=           2033.3242
 Charge=             -1.0000 electrons
 Dipole moment (field-independent basis, Debye):
    X=              2.0599    Y=             -2.5893    Z=             -0.0855  Tot=              3.3098

 Test job not archived.
 1\1\GINC-SE462\SP\RHF\Aug-CC-pVDZ\C5H9Cl2N2(1-)\OHZDE\09-Apr-2025\0\\#
 t hf aug-cc-pvdz iop(5/13=1,5/36=2,99/5=2) pseudo=read geom=check gues
 s=(read,tcheck) scf=(maxcycle=1)\\title\\-1,1\C,0,-0.36477077,0.000468
 03,-0.26619493\C,0,-0.18199001,-0.06327198,1.10952761\Cl,0,1.86564528,
 -0.2261767,-1.14617696\Cl,0,-3.11584736,-0.20775254,1.90048348\H,0,-1.
 77629793,-0.08327844,1.43515889\C,0,-0.91139759,-1.20735945,-0.9694938
 5\H,0,-0.46719604,-2.12033986,-0.58361528\H,0,-1.99553711,-1.24405076,
 -0.79180654\H,0,-0.72538539,-1.13642676,-2.04021409\C,0,-0.69506829,1.
 32571244,-0.88717165\H,0,-0.52982341,1.28410634,-1.96329296\H,0,-1.752
 58311,1.55576087,-0.6967811\H,0,-0.08080156,2.1260812,-0.47516451\N,0,
 0.2171575,-1.32569612,1.67155527\H,0,0.10833898,-1.31573927,2.67783669
 \H,0,1.19966344,-1.46600346,1.44132948\C,0,0.23705962,1.12333103,1.805
 32665\N,0,0.53882375,2.06389543,2.4489638\\Version=ES64L-G16RevC.01\St
 ate=1-A\HF=-1224.5494228\RMSD=1.194e+00\Dipole=-1.15556,-0.573359,-0.1
 778613\Quadrupole=-9.1239175,6.8316531,2.2922644,-2.8876035,13.1806363
 ,-6.5582196\PG=C01 [X(C5H9Cl2N2)]\\@


 SIC AS THE CAWSE OF EWERY THING IS, SIC WILBE THE EFFECT.
 -- PROVERBS AND REASONS OF THE YEAR 1585
           AS REPRINTED IN PAISLEY MAGAZINE 1828.
 Job cpu time:       0 days  0 hours  2 minutes  9.6 seconds.
 Elapsed time:       0 days  0 hours  0 minutes  9.2 seconds.
 File lengths (MBytes):  RWF=     14 Int=      0 D2E=      0 Chk=     13 Scr=      1
 Normal termination of Gaussian 16 at Wed Apr  9 02:33:50 2025.
