 Entering Gaussian System, Link 0=g16
 Input=E2SN2_154_mol2.gjf
 Output=E2SN2_154_mol2.log
 Initial command:
 /arc/software/Gaussian/g16.c01/l1.exe "/tmp/slurm/4858446/Gau-1876436.inp" -scrdir="/tmp/slurm/4858446/"
 Entering Link 1 = /arc/software/Gaussian/g16.c01/l1.exe PID=   1876437.
  
 Copyright (c) 1988-2019, Gaussian, Inc.  All Rights Reserved.
  
 This is part of the Gaussian(R) 16 program.  It is based on
 the Gaussian(R) 09 system (copyright 2009, Gaussian, Inc.),
 the Gaussian(R) 03 system (copyright 2003, Gaussian, Inc.),
 the Gaussian(R) 98 system (copyright 1998, Gaussian, Inc.),
 the Gaussian(R) 94 system (copyright 1995, Gaussian, Inc.),
 the Gaussian 92(TM) system (copyright 1992, Gaussian, Inc.),
 the Gaussian 90(TM) system (copyright 1990, Gaussian, Inc.),
 the Gaussian 88(TM) system (copyright 1988, Gaussian, Inc.),
 the Gaussian 86(TM) system (copyright 1986, Carnegie Mellon
 University), and the Gaussian 82(TM) system (copyright 1983,
 Carnegie Mellon University). Gaussian is a federally registered
 trademark of Gaussian, Inc.
  
 This software contains proprietary and confidential information,
 including trade secrets, belonging to Gaussian, Inc.
  
 This software is provided under written license and may be
 used, copied, transmitted, or stored only in accord with that
 written license.
  
 The following legend is applicable only to US Government
 contracts under FAR:
  
                    RESTRICTED RIGHTS LEGEND
  
 Use, reproduction and disclosure by the US Government is
 subject to restrictions as set forth in subparagraphs (a)
 and (c) of the Commercial Computer Software - Restricted
 Rights clause in FAR 52.227-19.
  
 Gaussian, Inc.
 340 Quinnipiac St., Bldg. 40, Wallingford CT 06492
  
  
 ---------------------------------------------------------------
 Warning -- This program may not be used in any manner that
 competes with the business of Gaussian, Inc. or will provide
 assistance to any competitor of Gaussian, Inc.  The licensee
 of this program is prohibited from giving any competitor of
 Gaussian, Inc. access to this program.  By using this program,
 the user acknowledges that Gaussian, Inc. is engaged in the
 business of creating and licensing software in the field of
 computational chemistry and represents and warrants to the
 licensee that it is not a competitor of Gaussian, Inc. and that
 it will not use this program in any manner prohibited above.
 ---------------------------------------------------------------
  

 Cite this work as:
 Gaussian 16, Revision C.01,
 M. J. Frisch, G. W. Trucks, H. B. Schlegel, G. E. Scuseria, 
 M. A. Robb, J. R. Cheeseman, G. Scalmani, V. Barone, 
 G. A. Petersson, H. Nakatsuji, X. Li, M. Caricato, A. V. Marenich, 
 J. Bloino, B. G. Janesko, R. Gomperts, B. Mennucci, H. P. Hratchian, 
 J. V. Ortiz, A. F. Izmaylov, J. L. Sonnenberg, D. Williams-Young, 
 F. Ding, F. Lipparini, F. Egidi, J. Goings, B. Peng, A. Petrone, 
 T. Henderson, D. Ranasinghe, V. G. Zakrzewski, J. Gao, N. Rega, 
 G. Zheng, W. Liang, M. Hada, M. Ehara, K. Toyota, R. Fukuda, 
 J. Hasegawa, M. Ishida, T. Nakajima, Y. Honda, O. Kitao, H. Nakai, 
 T. Vreven, K. Throssell, J. A. Montgomery, Jr., J. E. Peralta, 
 F. Ogliaro, M. J. Bearpark, J. J. Heyd, E. N. Brothers, K. N. Kudin, 
 V. N. Staroverov, T. A. Keith, R. Kobayashi, J. Normand, 
 K. Raghavachari, A. P. Rendell, J. C. Burant, S. S. Iyengar, 
 J. Tomasi, M. Cossi, J. M. Millam, M. Klene, C. Adamo, R. Cammi, 
 J. W. Ochterski, R. L. Martin, K. Morokuma, O. Farkas, 
 J. B. Foresman, and D. J. Fox, Gaussian, Inc., Wallingford CT, 2019.
 
 ******************************************
 Gaussian 16:  ES64L-G16RevC.01  3-Jul-2019
                 9-Apr-2025 
 ******************************************
 %nprocs=16
 Will use up to   16 processors via shared memory.
 %mem=30GB
 %chk=E2SN2_154_mol2.chk
 ----------------------------------------------------------------------
 #t hf aug-cc-pvdz symm=none int=(grid=ultrafine) guess=(read,tcheck) s
 table=(opt,rrhf)
 ----------------------------------------------------------------------
 -----
 title
 -----
 Symbolic Z-matrix:
 Charge = -1 Multiplicity = 1
 C                    -0.73848   0.13849  -1.613 
 C                     0.09705   0.07427  -0.35048 
 F                    -0.63388   1.39615  -2.21726 
 H                     1.14394   0.23908  -0.64895 
 H                    -0.36937  -0.6068   -2.32141 
 C                    -2.16546  -0.11832  -1.35097 
 N                    -3.30607  -0.34343  -1.19242 
 N                     0.02883  -1.27134   0.1739 
 H                     0.79833  -1.26972   0.86682 
 H                    -0.82585  -1.31479   0.72535 
 N                    -0.36476   1.05522   0.6197 
 H                     0.31807   0.93429   1.3826 
 H                    -0.21569   1.98644   0.23799 
 H                     1.95222  -0.14353   1.87719 
 
                    Distance matrix (angstroms):
                    1          2          3          4          5
     1  C    0.000000
     2  C    1.515313   0.000000
     3  F    1.399210   2.401351   0.000000
     4  H    2.117307   1.101006   2.637998   0.000000
     5  H    1.092503   2.136810   2.023030   2.408883   0.000000
     6  C    1.473387   2.481333   2.321599   3.401860   2.099119
     7  N    2.646062   3.530520   3.349188   4.520756   3.157243
     8  N    2.401954   1.445793   3.643125   2.049864   2.612799
     9  H    3.239496   1.944205   4.320840   2.166446   3.459449
    10  H    2.754546   1.984609   4.005625   2.860648   3.161068
    11  N    2.442328   1.454914   2.870016   2.133475   3.378231
    12  H    3.274624   1.947317   3.752134   2.300558   4.070282
    13  H    2.667272   2.024961   2.559605   2.385056   3.646782
    14  H    4.415968   2.907163   5.081639   2.679760   4.820020
                    6          7          8          9         10
     6  C    0.000000
     7  N    1.173376   0.000000
     8  N    2.910252   3.721473   0.000000
     9  H    3.876642   4.684503   1.035512   0.000000
    10  H    2.745393   3.282201   1.018069   1.630957   0.000000
    11  N    2.916033   3.727107   2.401366   2.611356   2.416761
    12  H    3.840351   4.625764   2.531688   2.313938   2.607472
    13  H    3.279693   4.126114   3.267571   3.467878   3.392331
    14  H    5.232292   6.091963   2.805814   1.902782   3.227421
                   11         12         13         14
    11  N    0.000000
    12  H    1.030969   0.000000
    13  H    1.017387   1.643786   0.000000
    14  H    2.895973   2.019095   3.453048   0.000000
 Symmetry turned off by external request.
 Rotational constants (GHZ):           3.2329079           2.1483988           1.6791753
   224 basis functions,   378 primitive gaussians,   238 cartesian basis functions
    28 alpha electrons       28 beta electrons
       nuclear repulsion energy       308.9228161510 Hartrees.
 NAtoms=   14 NActive=   14 NUniq=   14 SFac= 1.00D+00 NAtFMM=   60 NAOKFM=F Big=F
 ExpMin= 2.97D-02 ExpMax= 1.47D+04 ExpMxC= 5.03D+02 IAcc=3 IRadAn=         5 AccDes= 0.00D+00
 Harris functional with IExCor=  205 and IRadAn=       5 diagonalized for initial guess.
 HarFok:  IExCor=  205 AccDes= 0.00D+00 IRadAn=         5 IDoV= 1 UseB2=F ITyADJ=14
 ICtDFT=  3500011 ScaDFX=  1.000000  1.000000  1.000000  1.000000
 FoFCou: FMM=F IPFlag=           0 FMFlag=      100000 FMFlg1=           0
         NFxFlg=           0 DoJE=T BraDBF=F KetDBF=T FulRan=T
         wScrn=  0.000000 ICntrl=       500 IOpCl=  0 I1Cent=   200000004 NGrid=           0
         NMat0=    1 NMatS0=      1 NMatT0=    0 NMatD0=    1 NMtDS0=    0 NMtDT0=    0
 Symmetry not used in FoFCou.
 SCF Done:  E(RHF) =  -380.431499448     A.U. after   16 cycles
            NFock= 16  Conv=0.59D-08     -V/T= 2.0016

 **********************************************************************

            Population analysis using the SCF Density.

 **********************************************************************

 Alpha  occ. eigenvalues --  -26.21244 -15.48988 -15.41364 -15.41065 -11.25278
 Alpha  occ. eigenvalues --  -11.19043 -11.17020  -1.51271  -1.12215  -1.10344
 Alpha  occ. eigenvalues --   -0.99162  -0.92034  -0.73349  -0.65111  -0.62119
 Alpha  occ. eigenvalues --   -0.58765  -0.54242  -0.51873  -0.49731  -0.46213
 Alpha  occ. eigenvalues --   -0.44938  -0.42292  -0.40772  -0.36729  -0.34965
 Alpha  occ. eigenvalues --   -0.28716  -0.27496  -0.09269
 Alpha virt. eigenvalues --    0.12786   0.14597   0.15261   0.16584   0.17750
 Alpha virt. eigenvalues --    0.19203   0.19382   0.20190   0.21491   0.22764
 Alpha virt. eigenvalues --    0.23587   0.24873   0.25347   0.25557   0.26345
 Alpha virt. eigenvalues --    0.27761   0.28524   0.29198   0.30790   0.31346
 Alpha virt. eigenvalues --    0.32593   0.32751   0.33496   0.34762   0.35299
 Alpha virt. eigenvalues --    0.36502   0.37604   0.37917   0.39759   0.41859
 Alpha virt. eigenvalues --    0.43081   0.44988   0.45152   0.47106   0.47495
 Alpha virt. eigenvalues --    0.48093   0.48355   0.49218   0.50000   0.51518
 Alpha virt. eigenvalues --    0.51870   0.53295   0.55228   0.56269   0.56792
 Alpha virt. eigenvalues --    0.58748   0.59694   0.60782   0.61442   0.61892
 Alpha virt. eigenvalues --    0.64416   0.65050   0.66511   0.67246   0.67756
 Alpha virt. eigenvalues --    0.68442   0.69054   0.70011   0.71325   0.73105
 Alpha virt. eigenvalues --    0.73468   0.74669   0.76800   0.77941   0.78721
 Alpha virt. eigenvalues --    0.79725   0.81477   0.82528   0.83378   0.85241
 Alpha virt. eigenvalues --    0.85747   0.86172   0.86299   0.87023   0.90638
 Alpha virt. eigenvalues --    0.91862   0.93353   0.94931   0.95159   0.96125
 Alpha virt. eigenvalues --    0.97018   0.99058   1.00914   1.01072   1.02877
 Alpha virt. eigenvalues --    1.05983   1.08102   1.10007   1.10583   1.12111
 Alpha virt. eigenvalues --    1.12909   1.13835   1.15508   1.19111   1.20175
 Alpha virt. eigenvalues --    1.21545   1.22181   1.25665   1.26503   1.29202
 Alpha virt. eigenvalues --    1.31983   1.34788   1.36680   1.37527   1.41933
 Alpha virt. eigenvalues --    1.43057   1.44073   1.48070   1.48376   1.52587
 Alpha virt. eigenvalues --    1.53669   1.57856   1.60164   1.61580   1.67275
 Alpha virt. eigenvalues --    1.68365   1.73631   1.76044   1.77836   1.81678
 Alpha virt. eigenvalues --    1.83548   1.83666   1.86859   1.87602   1.88948
 Alpha virt. eigenvalues --    1.91208   1.93643   1.94381   1.95666   1.98243
 Alpha virt. eigenvalues --    2.01998   2.03939   2.07180   2.11077   2.11942
 Alpha virt. eigenvalues --    2.17826   2.18427   2.19483   2.21084   2.22563
 Alpha virt. eigenvalues --    2.23962   2.25110   2.27778   2.29616   2.33186
 Alpha virt. eigenvalues --    2.34514   2.38336   2.39394   2.44937   2.46281
 Alpha virt. eigenvalues --    2.48316   2.52320   2.52975   2.53852   2.58237
 Alpha virt. eigenvalues --    2.59409   2.62271   2.64450   2.65257   2.67972
 Alpha virt. eigenvalues --    2.69686   2.72492   2.74361   2.76183   2.76885
 Alpha virt. eigenvalues --    2.79505   2.82320   2.85419   2.90166   2.91044
 Alpha virt. eigenvalues --    2.93669   2.99692   3.01469   3.06521   3.07924
 Alpha virt. eigenvalues --    3.14572   3.19506   3.25050   3.27010   3.31352
 Alpha virt. eigenvalues --    3.33204   3.41711   3.47555   3.51109   3.54924
 Alpha virt. eigenvalues --    3.56617   3.61830   3.69926   3.86973   3.91886
 Alpha virt. eigenvalues --    4.02158   5.15927   5.19142   5.23012   5.27261
 Alpha virt. eigenvalues --    5.28225
          Condensed to atoms (all electrons):
 Mulliken charges:
               1
     1  C    1.328813
     2  C    0.613789
     3  F   -0.714607
     4  H   -0.146789
     5  H   -0.074457
     6  C   -0.244411
     7  N   -0.376245
     8  N   -0.453249
     9  H    0.117133
    10  H    0.049881
    11  N   -0.374868
    12  H    0.110866
    13  H   -0.021094
    14  H   -0.814762
 Sum of Mulliken charges =  -1.00000
 Mulliken charges with hydrogens summed into heavy atoms:
               1
     1  C    1.254356
     2  C    0.467000
     3  F   -0.714607
     6  C   -0.244411
     7  N   -0.376245
     8  N   -1.100997
    11  N   -0.285096
 Electronic spatial extent (au):  <R**2>=           1086.6697
 Charge=             -1.0000 electrons
 Dipole moment (field-independent basis, Debye):
    X=             -2.0729    Y=              0.8458    Z=             -5.4496  Tot=              5.8916
 NROrb=    224 NOA=    28 NOB=    28 NVA=   196 NVB=   196

 **** Warning!!: The largest alpha MO coefficient is  0.67531355D+02

    12 initial guesses have been made.
 Iteration     1 Dimension    12 NMult     0 NNew     12
 Iteration     2 Dimension    24 NMult    12 NNew     12
 Iteration     3 Dimension    27 NMult    24 NNew      3
 Iteration     4 Dimension    30 NMult    27 NNew      3
 Iteration     5 Dimension    33 NMult    30 NNew      3
 Iteration     6 Dimension    36 NMult    33 NNew      3
 ***********************************************************************
 Stability analysis using <AA,BB:AA,BB> singles matrix:
 ***********************************************************************
 Ground to excited state transition densities written to RWF  633

 Eigenvectors of the stability matrix:
 
 Excited state symmetry could not be determined.
 Eigenvector   1:      Singlet-?Sym  Eigenvalue= 0.1317597  <S**2>=0.000
      28 -> 29         0.43463
      28 -> 30         0.14862
      28 -> 31         0.46519
      28 -> 32         0.13937
      28 -> 33        -0.16035
 The wavefunction is stable under the perturbations considered.
 The wavefunction is already stable.

 **********************************************************************

            Population analysis using the SCF Density.

 **********************************************************************

 Alpha  occ. eigenvalues --  -26.21244 -15.48988 -15.41364 -15.41065 -11.25278
 Alpha  occ. eigenvalues --  -11.19043 -11.17020  -1.51271  -1.12215  -1.10344
 Alpha  occ. eigenvalues --   -0.99162  -0.92034  -0.73349  -0.65111  -0.62119
 Alpha  occ. eigenvalues --   -0.58765  -0.54242  -0.51873  -0.49731  -0.46213
 Alpha  occ. eigenvalues --   -0.44938  -0.42292  -0.40772  -0.36729  -0.34965
 Alpha  occ. eigenvalues --   -0.28716  -0.27496  -0.09269
 Alpha virt. eigenvalues --    0.12786   0.14597   0.15261   0.16584   0.17750
 Alpha virt. eigenvalues --    0.19203   0.19382   0.20190   0.21491   0.22764
 Alpha virt. eigenvalues --    0.23587   0.24873   0.25347   0.25557   0.26345
 Alpha virt. eigenvalues --    0.27761   0.28524   0.29198   0.30790   0.31346
 Alpha virt. eigenvalues --    0.32593   0.32751   0.33496   0.34762   0.35299
 Alpha virt. eigenvalues --    0.36502   0.37604   0.37917   0.39759   0.41859
 Alpha virt. eigenvalues --    0.43081   0.44988   0.45152   0.47106   0.47495
 Alpha virt. eigenvalues --    0.48093   0.48355   0.49218   0.50000   0.51518
 Alpha virt. eigenvalues --    0.51870   0.53295   0.55228   0.56269   0.56792
 Alpha virt. eigenvalues --    0.58748   0.59694   0.60782   0.61442   0.61892
 Alpha virt. eigenvalues --    0.64416   0.65050   0.66511   0.67246   0.67756
 Alpha virt. eigenvalues --    0.68442   0.69054   0.70011   0.71325   0.73105
 Alpha virt. eigenvalues --    0.73468   0.74669   0.76800   0.77941   0.78721
 Alpha virt. eigenvalues --    0.79725   0.81477   0.82528   0.83378   0.85241
 Alpha virt. eigenvalues --    0.85747   0.86172   0.86299   0.87023   0.90638
 Alpha virt. eigenvalues --    0.91862   0.93353   0.94931   0.95159   0.96125
 Alpha virt. eigenvalues --    0.97018   0.99058   1.00914   1.01072   1.02877
 Alpha virt. eigenvalues --    1.05983   1.08102   1.10007   1.10583   1.12111
 Alpha virt. eigenvalues --    1.12909   1.13835   1.15508   1.19111   1.20175
 Alpha virt. eigenvalues --    1.21545   1.22181   1.25665   1.26503   1.29202
 Alpha virt. eigenvalues --    1.31983   1.34788   1.36680   1.37527   1.41933
 Alpha virt. eigenvalues --    1.43057   1.44073   1.48070   1.48376   1.52587
 Alpha virt. eigenvalues --    1.53669   1.57856   1.60164   1.61580   1.67275
 Alpha virt. eigenvalues --    1.68365   1.73631   1.76044   1.77836   1.81678
 Alpha virt. eigenvalues --    1.83548   1.83666   1.86859   1.87602   1.88948
 Alpha virt. eigenvalues --    1.91208   1.93643   1.94381   1.95666   1.98243
 Alpha virt. eigenvalues --    2.01998   2.03939   2.07180   2.11077   2.11942
 Alpha virt. eigenvalues --    2.17826   2.18427   2.19483   2.21084   2.22563
 Alpha virt. eigenvalues --    2.23962   2.25110   2.27778   2.29616   2.33186
 Alpha virt. eigenvalues --    2.34514   2.38336   2.39394   2.44937   2.46281
 Alpha virt. eigenvalues --    2.48316   2.52320   2.52975   2.53852   2.58237
 Alpha virt. eigenvalues --    2.59409   2.62271   2.64450   2.65257   2.67972
 Alpha virt. eigenvalues --    2.69686   2.72492   2.74361   2.76183   2.76885
 Alpha virt. eigenvalues --    2.79505   2.82320   2.85419   2.90166   2.91044
 Alpha virt. eigenvalues --    2.93669   2.99692   3.01469   3.06521   3.07924
 Alpha virt. eigenvalues --    3.14572   3.19506   3.25050   3.27010   3.31352
 Alpha virt. eigenvalues --    3.33204   3.41711   3.47555   3.51109   3.54924
 Alpha virt. eigenvalues --    3.56617   3.61830   3.69926   3.86973   3.91886
 Alpha virt. eigenvalues --    4.02158   5.15927   5.19142   5.23012   5.27261
 Alpha virt. eigenvalues --    5.28225
          Condensed to atoms (all electrons):
 Mulliken charges:
               1
     1  C    1.328813
     2  C    0.613789
     3  F   -0.714607
     4  H   -0.146789
     5  H   -0.074457
     6  C   -0.244411
     7  N   -0.376245
     8  N   -0.453249
     9  H    0.117133
    10  H    0.049881
    11  N   -0.374868
    12  H    0.110866
    13  H   -0.021094
    14  H   -0.814762
 Sum of Mulliken charges =  -1.00000
 Mulliken charges with hydrogens summed into heavy atoms:
               1
     1  C    1.254356
     2  C    0.467000
     3  F   -0.714607
     6  C   -0.244411
     7  N   -0.376245
     8  N   -1.100997
    11  N   -0.285096
 Electronic spatial extent (au):  <R**2>=           1086.6697
 Charge=             -1.0000 electrons
 Dipole moment (field-independent basis, Debye):
    X=             -2.0729    Y=              0.8458    Z=             -5.4496  Tot=              5.8916
 Unable to Open any file for archive entry.
 1\1\GINC-SE042\Stability\RHF\Aug-CC-pVDZ\C3H7F1N3\OHZDE\09-Apr-2025\0\
 \#t hf aug-cc-pvdz symm=none int=(grid=ultrafine) guess=(read,tcheck) 
 stable=(opt,rrhf)\\title\\-1,1\C,0,-0.738479,0.138494,-1.612995\C,0,0.
 097054,0.074274,-0.350484\F,0,-0.633876,1.396153,-2.217263\H,0,1.14393
 9,0.239081,-0.648954\H,0,-0.369366,-0.606804,-2.321408\C,0,-2.165455,-
 0.118319,-1.350972\N,0,-3.306067,-0.343433,-1.192422\N,0,0.028827,-1.2
 71344,0.173897\H,0,0.798331,-1.269715,0.866823\H,0,-0.825853,-1.31479,
 0.725349\N,0,-0.364755,1.055223,0.619695\H,0,0.318074,0.934291,1.38259
 6\H,0,-0.215686,1.986435,0.237989\H,0,1.952215,-0.143532,1.877191\\Ver
 sion=ES64L-G16RevC.01\HF=-380.4314994\RMSD=5.926e-09\Dipole=-2.3698936
 ,0.6433646,-3.5360487\Quadrupole=-12.6863077,10.9899405,1.6963672,1.19
 15913,-15.1060308,1.5868181\PG=Unknown\\@
 The archive entry for this job was punched.


 IN SO FAR AS QUANTUM MECHANICS IS CORRECT, CHEMICAL 
 QUESTIONS ARE PROBLEMS IN APPLIED MATHEMATICS.

                    -- EYRING, WALTER, & KIMBALL, 1944
 Job cpu time:       0 days  0 hours  7 minutes 10.1 seconds.
 Elapsed time:       0 days  0 hours  0 minutes 30.8 seconds.
 File lengths (MBytes):  RWF=    244 Int=      0 D2E=      0 Chk=      7 Scr=      1
 Normal termination of Gaussian 16 at Wed Apr  9 02:37:41 2025.
 Initial command:
 /arc/software/Gaussian/g16.c01/l1.exe "/tmp/slurm/4858446/Gau-1876436.inp" -scrdir="/tmp/slurm/4858446/"
 Entering Link 1 = /arc/software/Gaussian/g16.c01/l1.exe PID=   1876770.
  
 Copyright (c) 1988-2019, Gaussian, Inc.  All Rights Reserved.
  
 This is part of the Gaussian(R) 16 program.  It is based on
 the Gaussian(R) 09 system (copyright 2009, Gaussian, Inc.),
 the Gaussian(R) 03 system (copyright 2003, Gaussian, Inc.),
 the Gaussian(R) 98 system (copyright 1998, Gaussian, Inc.),
 the Gaussian(R) 94 system (copyright 1995, Gaussian, Inc.),
 the Gaussian 92(TM) system (copyright 1992, Gaussian, Inc.),
 the Gaussian 90(TM) system (copyright 1990, Gaussian, Inc.),
 the Gaussian 88(TM) system (copyright 1988, Gaussian, Inc.),
 the Gaussian 86(TM) system (copyright 1986, Carnegie Mellon
 University), and the Gaussian 82(TM) system (copyright 1983,
 Carnegie Mellon University). Gaussian is a federally registered
 trademark of Gaussian, Inc.
  
 This software contains proprietary and confidential information,
 including trade secrets, belonging to Gaussian, Inc.
  
 This software is provided under written license and may be
 used, copied, transmitted, or stored only in accord with that
 written license.
  
 The following legend is applicable only to US Government
 contracts under FAR:
  
                    RESTRICTED RIGHTS LEGEND
  
 Use, reproduction and disclosure by the US Government is
 subject to restrictions as set forth in subparagraphs (a)
 and (c) of the Commercial Computer Software - Restricted
 Rights clause in FAR 52.227-19.
  
 Gaussian, Inc.
 340 Quinnipiac St., Bldg. 40, Wallingford CT 06492
  
  
 ---------------------------------------------------------------
 Warning -- This program may not be used in any manner that
 competes with the business of Gaussian, Inc. or will provide
 assistance to any competitor of Gaussian, Inc.  The licensee
 of this program is prohibited from giving any competitor of
 Gaussian, Inc. access to this program.  By using this program,
 the user acknowledges that Gaussian, Inc. is engaged in the
 business of creating and licensing software in the field of
 computational chemistry and represents and warrants to the
 licensee that it is not a competitor of Gaussian, Inc. and that
 it will not use this program in any manner prohibited above.
 ---------------------------------------------------------------
  

 Cite this work as:
 Gaussian 16, Revision C.01,
 M. J. Frisch, G. W. Trucks, H. B. Schlegel, G. E. Scuseria, 
 M. A. Robb, J. R. Cheeseman, G. Scalmani, V. Barone, 
 G. A. Petersson, H. Nakatsuji, X. Li, M. Caricato, A. V. Marenich, 
 J. Bloino, B. G. Janesko, R. Gomperts, B. Mennucci, H. P. Hratchian, 
 J. V. Ortiz, A. F. Izmaylov, J. L. Sonnenberg, D. Williams-Young, 
 F. Ding, F. Lipparini, F. Egidi, J. Goings, B. Peng, A. Petrone, 
 T. Henderson, D. Ranasinghe, V. G. Zakrzewski, J. Gao, N. Rega, 
 G. Zheng, W. Liang, M. Hada, M. Ehara, K. Toyota, R. Fukuda, 
 J. Hasegawa, M. Ishida, T. Nakajima, Y. Honda, O. Kitao, H. Nakai, 
 T. Vreven, K. Throssell, J. A. Montgomery, Jr., J. E. Peralta, 
 F. Ogliaro, M. J. Bearpark, J. J. Heyd, E. N. Brothers, K. N. Kudin, 
 V. N. Staroverov, T. A. Keith, R. Kobayashi, J. Normand, 
 K. Raghavachari, A. P. Rendell, J. C. Burant, S. S. Iyengar, 
 J. Tomasi, M. Cossi, J. M. Millam, M. Klene, C. Adamo, R. Cammi, 
 J. W. Ochterski, R. L. Martin, K. Morokuma, O. Farkas, 
 J. B. Foresman, and D. J. Fox, Gaussian, Inc., Wallingford CT, 2019.
 
 ******************************************
 Gaussian 16:  ES64L-G16RevC.01  3-Jul-2019
                 9-Apr-2025 
 ******************************************
 %nprocs=16
 Will use up to   16 processors via shared memory.
 %mem=30GB
 %chk=E2SN2_154_mol2.chk
 ----------------------------------------------------------------------
 #t hf aug-cc-pvdz iop(5/13=1,5/36=2,99/5=2) pseudo=read geom=check gue
 ss=(read,tcheck) scf=(maxcycle=1)
 ----------------------------------------------------------------------
 -----
 title
 -----
 Structure from the checkpoint file:  "E2SN2_154_mol2.chk"
 Charge = -1 Multiplicity = 1
 Z-Matrix found in chk file.
 C,0,-0.738479,0.138494,-1.612995
 C,0,0.097054,0.074274,-0.350484
 F,0,-0.633876,1.396153,-2.217263
 H,0,1.143939,0.239081,-0.648954
 H,0,-0.369366,-0.606804,-2.321408
 C,0,-2.165455,-0.118319,-1.350972
 N,0,-3.306067,-0.343433,-1.192422
 N,0,0.028827,-1.271344,0.173897
 H,0,0.798331,-1.269715,0.866823
 H,0,-0.825853,-1.31479,0.725349
 N,0,-0.364755,1.055223,0.619695
 H,0,0.318074,0.934291,1.382596
 H,0,-0.215686,1.986435,0.237989
 H,0,1.952215,-0.143532,1.877191
 Recover connectivity data from disk.
                    Distance matrix (angstroms):
                    1          2          3          4          5
     1  C    0.000000
     2  C    1.515313   0.000000
     3  F    1.399210   2.401351   0.000000
     4  H    2.117307   1.101006   2.637998   0.000000
     5  H    1.092503   2.136810   2.023030   2.408883   0.000000
     6  C    1.473387   2.481333   2.321599   3.401860   2.099119
     7  N    2.646062   3.530520   3.349188   4.520756   3.157243
     8  N    2.401954   1.445793   3.643125   2.049864   2.612799
     9  H    3.239496   1.944205   4.320840   2.166446   3.459449
    10  H    2.754546   1.984609   4.005625   2.860648   3.161068
    11  N    2.442328   1.454914   2.870016   2.133475   3.378231
    12  H    3.274624   1.947317   3.752134   2.300558   4.070282
    13  H    2.667272   2.024961   2.559605   2.385056   3.646782
    14  H    4.415968   2.907163   5.081639   2.679760   4.820020
                    6          7          8          9         10
     6  C    0.000000
     7  N    1.173376   0.000000
     8  N    2.910252   3.721473   0.000000
     9  H    3.876642   4.684503   1.035512   0.000000
    10  H    2.745393   3.282201   1.018069   1.630957   0.000000
    11  N    2.916033   3.727107   2.401366   2.611356   2.416761
    12  H    3.840351   4.625764   2.531688   2.313938   2.607472
    13  H    3.279693   4.126114   3.267571   3.467878   3.392331
    14  H    5.232292   6.091963   2.805814   1.902782   3.227421
                   11         12         13         14
    11  N    0.000000
    12  H    1.030969   0.000000
    13  H    1.017387   1.643786   0.000000
    14  H    2.895973   2.019095   3.453048   0.000000
 Framework group  C1[X(C3H7FN3)]
 Deg. of freedom    36
                         Standard orientation:                         
 ---------------------------------------------------------------------
 Center     Atomic      Atomic             Coordinates (Angstroms)
 Number     Number       Type             X           Y           Z
 ---------------------------------------------------------------------
      1          6           0       -0.493545    0.422044   -0.595022
      2          6           0        0.957450    0.182803   -0.229575
      3          9           0       -0.903968    1.699591   -0.198518
      4          1           0        1.553687    0.932121   -0.772934
      5          1           0       -0.602084    0.355538   -1.680083
      6          6           0       -1.396117   -0.557155    0.035376
      7          7           0       -2.148433   -1.331484    0.494990
      8          7           0        1.351944   -1.107647   -0.748642
      9          1           0        2.383043   -1.066249   -0.662573
     10          1           0        1.054275   -1.791828   -0.056000
     11          7           0        1.142808    0.264171    1.211187
     12          1           0        2.162498    0.140358    1.299511
     13          1           0        0.935676    1.213285    1.513439
     14          1           0        3.817650   -0.140979    0.177877
 ---------------------------------------------------------------------
 Rotational constants (GHZ):           3.2329079           2.1483988           1.6791753
 ======================================================================================================
                                       Pseudopotential Parameters
 ======================================================================================================
  Center     Atomic      Valence      Angular      Power
  Number     Number     Electrons     Momentum     of R      Exponent        Coefficient   SO-Coeffient
 ======================================================================================================
    1          6            6
                                      G and up 
                                                     0        0.0000010       -0.00286759    0.00000000
                                                     2        0.1200000        0.03193960    0.00000000
                                                     2        0.1600000       -0.04027782    0.00000000
                                                     2        0.2600000        0.24782456    0.00000000
                                                     2        0.4000000       -0.62266671    0.00000000
                                                     2        0.7000000        0.35695227    0.00000000
                                      S - G
                                                     0        0.0000010       -0.06602313    0.00000000
                                                     2        0.1200000        1.47277455    0.00000000
                                                     2        0.1600000       -4.06924166    0.00000000
                                                     2        0.3000000        5.02952802    0.00000000
                                                     2        0.7000000       -5.65856978    0.00000000
                                                     2        1.7000000        8.57604414    0.00000000
                                      P - G
                                                     0        0.0000010        0.49434425    0.00000000
                                                     2        0.1200000       -1.37391547    0.00000000
                                                     2        0.1600000        3.65411806    0.00000000
                                                     2        0.2800000       -7.36479843    0.00000000
                                                     2        0.6000000       17.22091285    0.00000000
                                                     2        1.1000000      -23.50107827    0.00000000
                                                     2        3.0000000       16.29464063    0.00000000
                                      D - G
                                                     0        0.0000010       -0.28693103    0.00000000
                                                     2        0.1200000        0.12273044    0.00000000
                                                     2        0.3000000       -0.43416384    0.00000000
                                                     2        0.7000000        2.23358493    0.00000000
                                      F - G
                                                     0        0.0000010        0.07263570    0.00000000
                                                     2        0.1400000       -0.76152861    0.00000000
                                                     2        0.2200000        1.98045593    0.00000000
                                                     2        0.4000000       -2.42426427    0.00000000
                                                     2        0.7000000        0.52335237    0.00000000
    2          6            6
                                      G and up 
                                                     0        0.0000010       -0.00286759    0.00000000
                                                     2        0.1200000        0.03193960    0.00000000
                                                     2        0.1600000       -0.04027782    0.00000000
                                                     2        0.2600000        0.24782456    0.00000000
                                                     2        0.4000000       -0.62266671    0.00000000
                                                     2        0.7000000        0.35695227    0.00000000
                                      S - G
                                                     0        0.0000010       -0.06602313    0.00000000
                                                     2        0.1200000        1.47277455    0.00000000
                                                     2        0.1600000       -4.06924166    0.00000000
                                                     2        0.3000000        5.02952802    0.00000000
                                                     2        0.7000000       -5.65856978    0.00000000
                                                     2        1.7000000        8.57604414    0.00000000
                                      P - G
                                                     0        0.0000010        0.49434425    0.00000000
                                                     2        0.1200000       -1.37391547    0.00000000
                                                     2        0.1600000        3.65411806    0.00000000
                                                     2        0.2800000       -7.36479843    0.00000000
                                                     2        0.6000000       17.22091285    0.00000000
                                                     2        1.1000000      -23.50107827    0.00000000
                                                     2        3.0000000       16.29464063    0.00000000
                                      D - G
                                                     0        0.0000010       -0.28693103    0.00000000
                                                     2        0.1200000        0.12273044    0.00000000
                                                     2        0.3000000       -0.43416384    0.00000000
                                                     2        0.7000000        2.23358493    0.00000000
                                      F - G
                                                     0        0.0000010        0.07263570    0.00000000
                                                     2        0.1400000       -0.76152861    0.00000000
                                                     2        0.2200000        1.98045593    0.00000000
                                                     2        0.4000000       -2.42426427    0.00000000
                                                     2        0.7000000        0.52335237    0.00000000
    3          9            9
                                      G and up 
                                                     0        0.0000010       -0.00152163    0.00000000
                                                     2        0.1200000       -0.09043016    0.00000000
                                                     2        0.1400000        0.25628512    0.00000000
                                                     2        0.2000000       -0.31987377    0.00000000
                                                     2        0.3000000        0.48912429    0.00000000
                                                     2        0.4000000        0.12183688    0.00000000
                                                     2        0.6000000       -0.79963093    0.00000000
                                                     2        1.3000000        1.98943307    0.00000000
                                      S - G
                                                     0        0.0000010       -0.05404402    0.00000000
                                                     2        0.1200000        1.31674577    0.00000000
                                                     2        0.2400000       -4.28550771    0.00000000
                                                     2        0.8000000        7.13027769    0.00000000
                                      P - G
                                                     0        0.0000010       -0.03280113    0.00000000
                                                     2        0.1200000       -0.11684768    0.00000000
                                                     2        0.2200000       -0.54710751    0.00000000
                                                     2        0.6000000        1.00412264    0.00000000
                                      D - G
                                                     0        0.0000010       -0.09872413    0.00000000
                                                     2        0.1600000        0.32020158    0.00000000
                                                     2        0.5000000       -3.54424892    0.00000000
                                      F - G
                                                     0        0.0000010        0.17152509    0.00000000
                                                     2        0.1200000       -0.51731546    0.00000000
                                                     2        0.4000000        2.52461867    0.00000000
    4          1            1
                                      F and up 
                                                     0        0.0000010        0.00072061    0.00000000
                                                     2        0.1200000        0.03832357    0.00000000
                                                     2        0.1400000       -0.08683256    0.00000000
                                                     2        0.1800000        0.09312970    0.00000000
                                                     2        0.2800000       -0.02532572    0.00000000
                                                     2        0.4000000       -0.09430787    0.00000000
                                                     2        0.7000000        0.42710831    0.00000000
                                                     2        1.2000000       -2.11746981    0.00000000
                                      S - F
                                                     0        0.0000010        0.14449603    0.00000000
                                                     2        0.1200000       -0.56378993    0.00000000
                                                     2        0.1400000        0.63941249    0.00000000
                                                     2        0.2600000       -0.58461015    0.00000000
                                                     2        0.5000000        1.00157293    0.00000000
                                                     2        1.8000000       -0.14135838    0.00000000
                                      P - F
                                                     0        0.0000010       -0.09353646    0.00000000
                                                     2        0.1200000        0.31768975    0.00000000
                                                     2        0.2000000       -0.71747951    0.00000000
                                                     2        0.4000000        0.65752308    0.00000000
                                                     2        1.7000000        2.94052587    0.00000000
                                      D - F
                                                     0        0.0000010       -0.04491202    0.00000000
                                                     2        0.1200000       -0.02862031    0.00000000
                                                     2        0.1800000       -0.21515263    0.00000000
                                                     2        0.3000000        0.80560647    0.00000000
                                                     2        0.4000000        0.47351754    0.00000000
                                                     2        0.7000000       -4.57051794    0.00000000
                                                     2        1.6000000       18.53737826    0.00000000
    5          1            1
                                      F and up 
                                                     0        0.0000010        0.00072061    0.00000000
                                                     2        0.1200000        0.03832357    0.00000000
                                                     2        0.1400000       -0.08683256    0.00000000
                                                     2        0.1800000        0.09312970    0.00000000
                                                     2        0.2800000       -0.02532572    0.00000000
                                                     2        0.4000000       -0.09430787    0.00000000
                                                     2        0.7000000        0.42710831    0.00000000
                                                     2        1.2000000       -2.11746981    0.00000000
                                      S - F
                                                     0        0.0000010        0.14449603    0.00000000
                                                     2        0.1200000       -0.56378993    0.00000000
                                                     2        0.1400000        0.63941249    0.00000000
                                                     2        0.2600000       -0.58461015    0.00000000
                                                     2        0.5000000        1.00157293    0.00000000
                                                     2        1.8000000       -0.14135838    0.00000000
                                      P - F
                                                     0        0.0000010       -0.09353646    0.00000000
                                                     2        0.1200000        0.31768975    0.00000000
                                                     2        0.2000000       -0.71747951    0.00000000
                                                     2        0.4000000        0.65752308    0.00000000
                                                     2        1.7000000        2.94052587    0.00000000
                                      D - F
                                                     0        0.0000010       -0.04491202    0.00000000
                                                     2        0.1200000       -0.02862031    0.00000000
                                                     2        0.1800000       -0.21515263    0.00000000
                                                     2        0.3000000        0.80560647    0.00000000
                                                     2        0.4000000        0.47351754    0.00000000
                                                     2        0.7000000       -4.57051794    0.00000000
                                                     2        1.6000000       18.53737826    0.00000000
    6          6            6
                                      G and up 
                                                     0        0.0000010       -0.00286759    0.00000000
                                                     2        0.1200000        0.03193960    0.00000000
                                                     2        0.1600000       -0.04027782    0.00000000
                                                     2        0.2600000        0.24782456    0.00000000
                                                     2        0.4000000       -0.62266671    0.00000000
                                                     2        0.7000000        0.35695227    0.00000000
                                      S - G
                                                     0        0.0000010       -0.06602313    0.00000000
                                                     2        0.1200000        1.47277455    0.00000000
                                                     2        0.1600000       -4.06924166    0.00000000
                                                     2        0.3000000        5.02952802    0.00000000
                                                     2        0.7000000       -5.65856978    0.00000000
                                                     2        1.7000000        8.57604414    0.00000000
                                      P - G
                                                     0        0.0000010        0.49434425    0.00000000
                                                     2        0.1200000       -1.37391547    0.00000000
                                                     2        0.1600000        3.65411806    0.00000000
                                                     2        0.2800000       -7.36479843    0.00000000
                                                     2        0.6000000       17.22091285    0.00000000
                                                     2        1.1000000      -23.50107827    0.00000000
                                                     2        3.0000000       16.29464063    0.00000000
                                      D - G
                                                     0        0.0000010       -0.28693103    0.00000000
                                                     2        0.1200000        0.12273044    0.00000000
                                                     2        0.3000000       -0.43416384    0.00000000
                                                     2        0.7000000        2.23358493    0.00000000
                                      F - G
                                                     0        0.0000010        0.07263570    0.00000000
                                                     2        0.1400000       -0.76152861    0.00000000
                                                     2        0.2200000        1.98045593    0.00000000
                                                     2        0.4000000       -2.42426427    0.00000000
                                                     2        0.7000000        0.52335237    0.00000000
    7          7            7
                                      G and up 
                                                     0        0.0000010        0.00420138    0.00000000
                                                     2        0.1200000        0.05872431    0.00000000
                                                     2        0.1400000       -0.08436978    0.00000000
                                                     2        0.2000000        0.05409159    0.00000000
                                                     2        0.2600000        0.14199713    0.00000000
                                                     2        0.6000000       -0.79062770    0.00000000
                                                     2        0.7000000       -0.14441060    0.00000000
                                                     2        1.5000000        0.73772979    0.00000000
                                      S - G
                                                     0        0.0000010       -0.03094411    0.00000000
                                                     2        0.1200000        0.65332522    0.00000000
                                                     2        0.1800000       -1.38149133    0.00000000
                                                     2        1.3000000        3.29267299    0.00000000
                                      P - G
                                                     0        0.0000010        0.07303105    0.00000000
                                                     2        0.1200000        0.23145115    0.00000000
                                                     2        0.2000000       -1.20679699    0.00000000
                                                     2        0.4000000        1.75088447    0.00000000
                                                     2        1.2000000       -0.67486559    0.00000000
                                      D - G
                                                     0        0.0000010        0.07560739    0.00000000
                                                     2        0.3000000       -0.68679114    0.00000000
                                                     2        0.9000000        3.60133241    0.00000000
                                      F - G
                                                     0        0.0000010       -0.18221184    0.00000000
                                                     2        0.1200000       -0.39369067    0.00000000
                                                     2        0.1800000        0.72091725    0.00000000
                                                     2        0.6000000        0.15946111    0.00000000
    8          7            7
                                      G and up 
                                                     0        0.0000010        0.00420138    0.00000000
                                                     2        0.1200000        0.05872431    0.00000000
                                                     2        0.1400000       -0.08436978    0.00000000
                                                     2        0.2000000        0.05409159    0.00000000
                                                     2        0.2600000        0.14199713    0.00000000
                                                     2        0.6000000       -0.79062770    0.00000000
                                                     2        0.7000000       -0.14441060    0.00000000
                                                     2        1.5000000        0.73772979    0.00000000
                                      S - G
                                                     0        0.0000010       -0.03094411    0.00000000
                                                     2        0.1200000        0.65332522    0.00000000
                                                     2        0.1800000       -1.38149133    0.00000000
                                                     2        1.3000000        3.29267299    0.00000000
                                      P - G
                                                     0        0.0000010        0.07303105    0.00000000
                                                     2        0.1200000        0.23145115    0.00000000
                                                     2        0.2000000       -1.20679699    0.00000000
                                                     2        0.4000000        1.75088447    0.00000000
                                                     2        1.2000000       -0.67486559    0.00000000
                                      D - G
                                                     0        0.0000010        0.07560739    0.00000000
                                                     2        0.3000000       -0.68679114    0.00000000
                                                     2        0.9000000        3.60133241    0.00000000
                                      F - G
                                                     0        0.0000010       -0.18221184    0.00000000
                                                     2        0.1200000       -0.39369067    0.00000000
                                                     2        0.1800000        0.72091725    0.00000000
                                                     2        0.6000000        0.15946111    0.00000000
    9          1            1
                                      F and up 
                                                     0        0.0000010        0.00072061    0.00000000
                                                     2        0.1200000        0.03832357    0.00000000
                                                     2        0.1400000       -0.08683256    0.00000000
                                                     2        0.1800000        0.09312970    0.00000000
                                                     2        0.2800000       -0.02532572    0.00000000
                                                     2        0.4000000       -0.09430787    0.00000000
                                                     2        0.7000000        0.42710831    0.00000000
                                                     2        1.2000000       -2.11746981    0.00000000
                                      S - F
                                                     0        0.0000010        0.14449603    0.00000000
                                                     2        0.1200000       -0.56378993    0.00000000
                                                     2        0.1400000        0.63941249    0.00000000
                                                     2        0.2600000       -0.58461015    0.00000000
                                                     2        0.5000000        1.00157293    0.00000000
                                                     2        1.8000000       -0.14135838    0.00000000
                                      P - F
                                                     0        0.0000010       -0.09353646    0.00000000
                                                     2        0.1200000        0.31768975    0.00000000
                                                     2        0.2000000       -0.71747951    0.00000000
                                                     2        0.4000000        0.65752308    0.00000000
                                                     2        1.7000000        2.94052587    0.00000000
                                      D - F
                                                     0        0.0000010       -0.04491202    0.00000000
                                                     2        0.1200000       -0.02862031    0.00000000
                                                     2        0.1800000       -0.21515263    0.00000000
                                                     2        0.3000000        0.80560647    0.00000000
                                                     2        0.4000000        0.47351754    0.00000000
                                                     2        0.7000000       -4.57051794    0.00000000
                                                     2        1.6000000       18.53737826    0.00000000
   10          1            1
                                      F and up 
                                                     0        0.0000010        0.00072061    0.00000000
                                                     2        0.1200000        0.03832357    0.00000000
                                                     2        0.1400000       -0.08683256    0.00000000
                                                     2        0.1800000        0.09312970    0.00000000
                                                     2        0.2800000       -0.02532572    0.00000000
                                                     2        0.4000000       -0.09430787    0.00000000
                                                     2        0.7000000        0.42710831    0.00000000
                                                     2        1.2000000       -2.11746981    0.00000000
                                      S - F
                                                     0        0.0000010        0.14449603    0.00000000
                                                     2        0.1200000       -0.56378993    0.00000000
                                                     2        0.1400000        0.63941249    0.00000000
                                                     2        0.2600000       -0.58461015    0.00000000
                                                     2        0.5000000        1.00157293    0.00000000
                                                     2        1.8000000       -0.14135838    0.00000000
                                      P - F
                                                     0        0.0000010       -0.09353646    0.00000000
                                                     2        0.1200000        0.31768975    0.00000000
                                                     2        0.2000000       -0.71747951    0.00000000
                                                     2        0.4000000        0.65752308    0.00000000
                                                     2        1.7000000        2.94052587    0.00000000
                                      D - F
                                                     0        0.0000010       -0.04491202    0.00000000
                                                     2        0.1200000       -0.02862031    0.00000000
                                                     2        0.1800000       -0.21515263    0.00000000
                                                     2        0.3000000        0.80560647    0.00000000
                                                     2        0.4000000        0.47351754    0.00000000
                                                     2        0.7000000       -4.57051794    0.00000000
                                                     2        1.6000000       18.53737826    0.00000000
   11          7            7
                                      G and up 
                                                     0        0.0000010        0.00420138    0.00000000
                                                     2        0.1200000        0.05872431    0.00000000
                                                     2        0.1400000       -0.08436978    0.00000000
                                                     2        0.2000000        0.05409159    0.00000000
                                                     2        0.2600000        0.14199713    0.00000000
                                                     2        0.6000000       -0.79062770    0.00000000
                                                     2        0.7000000       -0.14441060    0.00000000
                                                     2        1.5000000        0.73772979    0.00000000
                                      S - G
                                                     0        0.0000010       -0.03094411    0.00000000
                                                     2        0.1200000        0.65332522    0.00000000
                                                     2        0.1800000       -1.38149133    0.00000000
                                                     2        1.3000000        3.29267299    0.00000000
                                      P - G
                                                     0        0.0000010        0.07303105    0.00000000
                                                     2        0.1200000        0.23145115    0.00000000
                                                     2        0.2000000       -1.20679699    0.00000000
                                                     2        0.4000000        1.75088447    0.00000000
                                                     2        1.2000000       -0.67486559    0.00000000
                                      D - G
                                                     0        0.0000010        0.07560739    0.00000000
                                                     2        0.3000000       -0.68679114    0.00000000
                                                     2        0.9000000        3.60133241    0.00000000
                                      F - G
                                                     0        0.0000010       -0.18221184    0.00000000
                                                     2        0.1200000       -0.39369067    0.00000000
                                                     2        0.1800000        0.72091725    0.00000000
                                                     2        0.6000000        0.15946111    0.00000000
   12          1            1
                                      F and up 
                                                     0        0.0000010        0.00072061    0.00000000
                                                     2        0.1200000        0.03832357    0.00000000
                                                     2        0.1400000       -0.08683256    0.00000000
                                                     2        0.1800000        0.09312970    0.00000000
                                                     2        0.2800000       -0.02532572    0.00000000
                                                     2        0.4000000       -0.09430787    0.00000000
                                                     2        0.7000000        0.42710831    0.00000000
                                                     2        1.2000000       -2.11746981    0.00000000
                                      S - F
                                                     0        0.0000010        0.14449603    0.00000000
                                                     2        0.1200000       -0.56378993    0.00000000
                                                     2        0.1400000        0.63941249    0.00000000
                                                     2        0.2600000       -0.58461015    0.00000000
                                                     2        0.5000000        1.00157293    0.00000000
                                                     2        1.8000000       -0.14135838    0.00000000
                                      P - F
                                                     0        0.0000010       -0.09353646    0.00000000
                                                     2        0.1200000        0.31768975    0.00000000
                                                     2        0.2000000       -0.71747951    0.00000000
                                                     2        0.4000000        0.65752308    0.00000000
                                                     2        1.7000000        2.94052587    0.00000000
                                      D - F
                                                     0        0.0000010       -0.04491202    0.00000000
                                                     2        0.1200000       -0.02862031    0.00000000
                                                     2        0.1800000       -0.21515263    0.00000000
                                                     2        0.3000000        0.80560647    0.00000000
                                                     2        0.4000000        0.47351754    0.00000000
                                                     2        0.7000000       -4.57051794    0.00000000
                                                     2        1.6000000       18.53737826    0.00000000
   13          1            1
                                      F and up 
                                                     0        0.0000010        0.00072061    0.00000000
                                                     2        0.1200000        0.03832357    0.00000000
                                                     2        0.1400000       -0.08683256    0.00000000
                                                     2        0.1800000        0.09312970    0.00000000
                                                     2        0.2800000       -0.02532572    0.00000000
                                                     2        0.4000000       -0.09430787    0.00000000
                                                     2        0.7000000        0.42710831    0.00000000
                                                     2        1.2000000       -2.11746981    0.00000000
                                      S - F
                                                     0        0.0000010        0.14449603    0.00000000
                                                     2        0.1200000       -0.56378993    0.00000000
                                                     2        0.1400000        0.63941249    0.00000000
                                                     2        0.2600000       -0.58461015    0.00000000
                                                     2        0.5000000        1.00157293    0.00000000
                                                     2        1.8000000       -0.14135838    0.00000000
                                      P - F
                                                     0        0.0000010       -0.09353646    0.00000000
                                                     2        0.1200000        0.31768975    0.00000000
                                                     2        0.2000000       -0.71747951    0.00000000
                                                     2        0.4000000        0.65752308    0.00000000
                                                     2        1.7000000        2.94052587    0.00000000
                                      D - F
                                                     0        0.0000010       -0.04491202    0.00000000
                                                     2        0.1200000       -0.02862031    0.00000000
                                                     2        0.1800000       -0.21515263    0.00000000
                                                     2        0.3000000        0.80560647    0.00000000
                                                     2        0.4000000        0.47351754    0.00000000
                                                     2        0.7000000       -4.57051794    0.00000000
                                                     2        1.6000000       18.53737826    0.00000000
   14          1            1
                                      F and up 
                                                     0        0.0000010        0.00072061    0.00000000
                                                     2        0.1200000        0.03832357    0.00000000
                                                     2        0.1400000       -0.08683256    0.00000000
                                                     2        0.1800000        0.09312970    0.00000000
                                                     2        0.2800000       -0.02532572    0.00000000
                                                     2        0.4000000       -0.09430787    0.00000000
                                                     2        0.7000000        0.42710831    0.00000000
                                                     2        1.2000000       -2.11746981    0.00000000
                                      S - F
                                                     0        0.0000010        0.14449603    0.00000000
                                                     2        0.1200000       -0.56378993    0.00000000
                                                     2        0.1400000        0.63941249    0.00000000
                                                     2        0.2600000       -0.58461015    0.00000000
                                                     2        0.5000000        1.00157293    0.00000000
                                                     2        1.8000000       -0.14135838    0.00000000
                                      P - F
                                                     0        0.0000010       -0.09353646    0.00000000
                                                     2        0.1200000        0.31768975    0.00000000
                                                     2        0.2000000       -0.71747951    0.00000000
                                                     2        0.4000000        0.65752308    0.00000000
                                                     2        1.7000000        2.94052587    0.00000000
                                      D - F
                                                     0        0.0000010       -0.04491202    0.00000000
                                                     2        0.1200000       -0.02862031    0.00000000
                                                     2        0.1800000       -0.21515263    0.00000000
                                                     2        0.3000000        0.80560647    0.00000000
                                                     2        0.4000000        0.47351754    0.00000000
                                                     2        0.7000000       -4.57051794    0.00000000
                                                     2        1.6000000       18.53737826    0.00000000
 ======================================================================================================
   224 basis functions,   378 primitive gaussians,   238 cartesian basis functions
    28 alpha electrons       28 beta electrons
       nuclear repulsion energy       308.9228161510 Hartrees.
 NAtoms=   14 NActive=   14 NUniq=   14 SFac= 1.00D+00 NAtFMM=   60 NAOKFM=F Big=F
   1 Symmetry operations used in ECPInt.
 ECPInt:  NShTT=    4851 NPrTT=   22491 LenC2=    4844 LenP2D=   17509.
 LDataN:  DoStor=T MaxTD1= 6 Len=  172
 Initial guess from the checkpoint file:  "E2SN2_154_mol2.chk"
 B after Tr=     2.103890   -0.150312   -0.034518
         Rot=    0.885761   -0.312741   -0.306001   -0.154865 Ang= -55.31 deg.
 >>>>>>>>>> Convergence criterion not met.
 SCF Done:  E(RHF) =  -382.100906987     A.U. after    2 cycles
            NFock=  1  Conv=0.41D+00     -V/T= 2.0412

 **********************************************************************

            Population analysis using the SCF Density.

 **********************************************************************

 Orbital symmetries:
       Occupied  (A) (A) (A) (A) (A) (A) (A) (A) (A) (A) (A) (A)
                 (A) (A) (A) (A) (A) (A) (A) (A) (A) (A) (A) (A)
                 (A) (A) (A) (A)
       Virtual   (A) (A) (A) (A) (A) (A) (A) (A) (A) (A) (A) (A)
                 (A) (A) (A) (A) (A) (A) (A) (A) (A) (A) (A) (A)
                 (A) (A) (A) (A) (A) (A) (A) (A) (A) (A) (A) (A)
                 (A) (A) (A) (A) (A) (A) (A) (A) (A) (A) (A) (A)
                 (A) (A) (A) (A) (A) (A) (A) (A) (A) (A) (A) (A)
                 (A) (A) (A) (A) (A) (A) (A) (A) (A) (A) (A) (A)
                 (A) (A) (A) (A) (A) (A) (A) (A) (A) (A) (A) (A)
                 (A) (A) (A) (A) (A) (A) (A) (A) (A) (A) (A) (A)
                 (A) (A) (A) (A) (A) (A) (A) (A) (A) (A) (A) (A)
                 (A) (A) (A) (A) (A) (A) (A) (A) (A) (A) (A) (A)
                 (A) (A) (A) (A) (A) (A) (A) (A) (A) (A) (A) (A)
                 (A) (A) (A) (A) (A) (A) (A) (A) (A) (A) (A) (A)
                 (A) (A) (A) (A) (A) (A) (A) (A) (A) (A) (A) (A)
                 (A) (A) (A) (A) (A) (A) (A) (A) (A) (A) (A) (A)
                 (A) (A) (A) (A) (A) (A) (A) (A) (A) (A) (A) (A)
                 (A) (A) (A) (A) (A) (A) (A) (A) (A) (A) (A) (A)
                 (A) (A) (A) (A)
 The electronic state is 1-A.
 Alpha  occ. eigenvalues --  -29.16854 -15.66507 -15.58693 -15.58418 -11.41451
 Alpha  occ. eigenvalues --  -11.33978 -11.30167  -1.31426  -1.19920  -1.09358
 Alpha  occ. eigenvalues --   -1.07365  -0.77369  -0.67126  -0.61101  -0.56647
 Alpha  occ. eigenvalues --   -0.51524  -0.43570  -0.42085  -0.40880  -0.39924
 Alpha  occ. eigenvalues --   -0.34552  -0.32872  -0.27325  -0.23924  -0.23885
 Alpha  occ. eigenvalues --   -0.16999  -0.15625  -0.10747
 Alpha virt. eigenvalues --    0.13719   0.15229   0.16192   0.16900   0.17935
 Alpha virt. eigenvalues --    0.18907   0.20028   0.20552   0.21325   0.22582
 Alpha virt. eigenvalues --    0.23413   0.24191   0.25305   0.26061   0.28377
 Alpha virt. eigenvalues --    0.29204   0.29474   0.30211   0.30960   0.31783
 Alpha virt. eigenvalues --    0.32513   0.32982   0.33293   0.34269   0.35864
 Alpha virt. eigenvalues --    0.36676   0.37686   0.39553   0.39811   0.40360
 Alpha virt. eigenvalues --    0.42166   0.44048   0.45101   0.46596   0.46613
 Alpha virt. eigenvalues --    0.48085   0.48800   0.49313   0.50155   0.52029
 Alpha virt. eigenvalues --    0.53359   0.54847   0.55269   0.56678   0.57882
 Alpha virt. eigenvalues --    0.58873   0.59766   0.59821   0.60742   0.62665
 Alpha virt. eigenvalues --    0.64506   0.65018   0.65744   0.67168   0.68115
 Alpha virt. eigenvalues --    0.68791   0.69534   0.70996   0.72706   0.73131
 Alpha virt. eigenvalues --    0.73719   0.74607   0.76675   0.77575   0.79719
 Alpha virt. eigenvalues --    0.80069   0.80461   0.81152   0.82076   0.84393
 Alpha virt. eigenvalues --    0.85053   0.86322   0.86938   0.87535   0.88074
 Alpha virt. eigenvalues --    0.91328   0.91524   0.93100   0.94770   0.95381
 Alpha virt. eigenvalues --    0.95925   0.97688   0.98786   1.02106   1.04102
 Alpha virt. eigenvalues --    1.04586   1.06531   1.09784   1.10194   1.11911
 Alpha virt. eigenvalues --    1.12903   1.15596   1.17359   1.18435   1.20767
 Alpha virt. eigenvalues --    1.22341   1.23477   1.25101   1.26933   1.28453
 Alpha virt. eigenvalues --    1.29609   1.31537   1.35467   1.42088   1.42656
 Alpha virt. eigenvalues --    1.46350   1.48088   1.50529   1.55777   1.58112
 Alpha virt. eigenvalues --    1.62009   1.63187   1.67917   1.70572   1.72266
 Alpha virt. eigenvalues --    1.74604   1.82914   1.88217   1.90800   1.93750
 Alpha virt. eigenvalues --    1.98653   1.99939   2.00948   2.02223   2.05735
 Alpha virt. eigenvalues --    2.08291   2.09204   2.11541   2.13539   2.18112
 Alpha virt. eigenvalues --    2.21821   2.25937   2.27649   2.28612   2.31641
 Alpha virt. eigenvalues --    2.33402   2.34909   2.36010   2.37764   2.41767
 Alpha virt. eigenvalues --    2.44229   2.47914   2.48421   2.52684   2.55206
 Alpha virt. eigenvalues --    2.58937   2.62452   2.64332   2.69011   2.71465
 Alpha virt. eigenvalues --    2.72890   2.75940   2.80424   2.81228   2.85186
 Alpha virt. eigenvalues --    2.87615   2.88121   2.88839   2.93218   2.95216
 Alpha virt. eigenvalues --    2.99736   3.03036   3.05756   3.10064   3.11738
 Alpha virt. eigenvalues --    3.13687   3.14225   3.15488   3.17555   3.19908
 Alpha virt. eigenvalues --    3.28644   3.33877   3.42863   3.46273   3.52185
 Alpha virt. eigenvalues --    3.57236   3.59076   3.61315   3.65528   3.68191
 Alpha virt. eigenvalues --    3.72824   3.80877   3.82714   3.86894   3.90781
 Alpha virt. eigenvalues --    3.95276   4.00081   4.03489   4.10937   4.13963
 Alpha virt. eigenvalues --    4.17370   4.21348   4.30154   4.72254   4.75763
 Alpha virt. eigenvalues --    5.10675
          Condensed to atoms (all electrons):
 Mulliken charges:
               1
     1  C    0.246817
     2  C    0.559319
     3  F    0.141612
     4  H    1.657641
     5  H    1.537414
     6  C    1.096278
     7  N   -2.308593
     8  N   -2.602534
     9  H    0.656574
    10  H    0.522749
    11  N   -2.670506
    12  H    0.686464
    13  H    0.547173
    14  H   -1.070408
 Sum of Mulliken charges =  -1.00000
 Mulliken charges with hydrogens summed into heavy atoms:
               1
     1  C    1.784230
     2  C    2.216960
     3  F    0.141612
     6  C    1.096278
     7  N   -2.308593
     8  N   -2.493619
    11  N   -1.436868
 Electronic spatial extent (au):  <R**2>=            878.5620
 Charge=             -1.0000 electrons
 Dipole moment (field-independent basis, Debye):
    X=            -11.3743    Y=              4.4708    Z=             -0.8322  Tot=             12.2497

 Test job not archived.
 1\1\GINC-SE042\SP\RHF\Aug-CC-pVDZ\C3H7F1N3(1-)\OHZDE\09-Apr-2025\0\\#t
  hf aug-cc-pvdz iop(5/13=1,5/36=2,99/5=2) pseudo=read geom=check guess
 =(read,tcheck) scf=(maxcycle=1)\\title\\-1,1\C,0,-0.738479,0.138494,-1
 .612995\C,0,0.097054,0.074274,-0.350484\F,0,-0.633876,1.396153,-2.2172
 63\H,0,1.143939,0.239081,-0.648954\H,0,-0.369366,-0.606804,-2.321408\C
 ,0,-2.165455,-0.118319,-1.350972\N,0,-3.306067,-0.343433,-1.192422\N,0
 ,0.028827,-1.271344,0.173897\H,0,0.798331,-1.269715,0.866823\H,0,-0.82
 5853,-1.31479,0.725349\N,0,-0.364755,1.055223,0.619695\H,0,0.318074,0.
 934291,1.382596\H,0,-0.215686,1.986435,0.237989\H,0,1.952215,-0.143532
 ,1.877191\\Version=ES64L-G16RevC.01\State=1-A\HF=-382.100907\RMSD=4.07
 1e-01\Dipole=-2.4573149,1.4892489,-3.8691604\Quadrupole=-13.9389119,15
 .7257119,-1.7868,2.7025871,-22.0610472,0.6974739\PG=C01 [X(C3H7F1N3)]\
 \@


 TRUST EVERYONE, BUT CUT THE CARDS.
 Job cpu time:       0 days  0 hours  0 minutes 52.7 seconds.
 Elapsed time:       0 days  0 hours  0 minutes  4.2 seconds.
 File lengths (MBytes):  RWF=     10 Int=      0 D2E=      0 Chk=      7 Scr=      1
 Normal termination of Gaussian 16 at Wed Apr  9 02:37:45 2025.
