 Entering Gaussian System, Link 0=g16
 Input=FH51_10_mol3.gjf
 Output=FH51_10_mol3.log
 Initial command:
 /arc/software/Gaussian/g16.c01/l1.exe "/tmp/slurm/4860623/Gau-1006744.inp" -scrdir="/tmp/slurm/4860623/"
 Entering Link 1 = /arc/software/Gaussian/g16.c01/l1.exe PID=   1006745.
  
 Copyright (c) 1988-2019, Gaussian, Inc.  All Rights Reserved.
  
 This is part of the Gaussian(R) 16 program.  It is based on
 the Gaussian(R) 09 system (copyright 2009, Gaussian, Inc.),
 the Gaussian(R) 03 system (copyright 2003, Gaussian, Inc.),
 the Gaussian(R) 98 system (copyright 1998, Gaussian, Inc.),
 the Gaussian(R) 94 system (copyright 1995, Gaussian, Inc.),
 the Gaussian 92(TM) system (copyright 1992, Gaussian, Inc.),
 the Gaussian 90(TM) system (copyright 1990, Gaussian, Inc.),
 the Gaussian 88(TM) system (copyright 1988, Gaussian, Inc.),
 the Gaussian 86(TM) system (copyright 1986, Carnegie Mellon
 University), and the Gaussian 82(TM) system (copyright 1983,
 Carnegie Mellon University). Gaussian is a federally registered
 trademark of Gaussian, Inc.
  
 This software contains proprietary and confidential information,
 including trade secrets, belonging to Gaussian, Inc.
  
 This software is provided under written license and may be
 used, copied, transmitted, or stored only in accord with that
 written license.
  
 The following legend is applicable only to US Government
 contracts under FAR:
  
                    RESTRICTED RIGHTS LEGEND
  
 Use, reproduction and disclosure by the US Government is
 subject to restrictions as set forth in subparagraphs (a)
 and (c) of the Commercial Computer Software - Restricted
 Rights clause in FAR 52.227-19.
  
 Gaussian, Inc.
 340 Quinnipiac St., Bldg. 40, Wallingford CT 06492
  
  
 ---------------------------------------------------------------
 Warning -- This program may not be used in any manner that
 competes with the business of Gaussian, Inc. or will provide
 assistance to any competitor of Gaussian, Inc.  The licensee
 of this program is prohibited from giving any competitor of
 Gaussian, Inc. access to this program.  By using this program,
 the user acknowledges that Gaussian, Inc. is engaged in the
 business of creating and licensing software in the field of
 computational chemistry and represents and warrants to the
 licensee that it is not a competitor of Gaussian, Inc. and that
 it will not use this program in any manner prohibited above.
 ---------------------------------------------------------------
  

 Cite this work as:
 Gaussian 16, Revision C.01,
 M. J. Frisch, G. W. Trucks, H. B. Schlegel, G. E. Scuseria, 
 M. A. Robb, J. R. Cheeseman, G. Scalmani, V. Barone, 
 G. A. Petersson, H. Nakatsuji, X. Li, M. Caricato, A. V. Marenich, 
 J. Bloino, B. G. Janesko, R. Gomperts, B. Mennucci, H. P. Hratchian, 
 J. V. Ortiz, A. F. Izmaylov, J. L. Sonnenberg, D. Williams-Young, 
 F. Ding, F. Lipparini, F. Egidi, J. Goings, B. Peng, A. Petrone, 
 T. Henderson, D. Ranasinghe, V. G. Zakrzewski, J. Gao, N. Rega, 
 G. Zheng, W. Liang, M. Hada, M. Ehara, K. Toyota, R. Fukuda, 
 J. Hasegawa, M. Ishida, T. Nakajima, Y. Honda, O. Kitao, H. Nakai, 
 T. Vreven, K. Throssell, J. A. Montgomery, Jr., J. E. Peralta, 
 F. Ogliaro, M. J. Bearpark, J. J. Heyd, E. N. Brothers, K. N. Kudin, 
 V. N. Staroverov, T. A. Keith, R. Kobayashi, J. Normand, 
 K. Raghavachari, A. P. Rendell, J. C. Burant, S. S. Iyengar, 
 J. Tomasi, M. Cossi, J. M. Millam, M. Klene, C. Adamo, R. Cammi, 
 J. W. Ochterski, R. L. Martin, K. Morokuma, O. Farkas, 
 J. B. Foresman, and D. J. Fox, Gaussian, Inc., Wallingford CT, 2019.
 
 ******************************************
 Gaussian 16:  ES64L-G16RevC.01  3-Jul-2019
                 9-Apr-2025 
 ******************************************
 %nprocs=16
 Will use up to   16 processors via shared memory.
 %mem=30GB
 %chk=FH51_10_mol3.chk
 ----------------------------------------------------------------------
 #t hf aug-cc-pvdz symm=none int=(grid=ultrafine) guess=(read,tcheck) s
 table=(opt,rrhf)
 ----------------------------------------------------------------------
 -----
 title
 -----
 Symbolic Z-matrix:
 Charge =  0 Multiplicity = 1
 C                     0.8778    0.42479   0.03194 
 H                     1.08606   1.03733  -0.85843 
 H                     1.1686    0.98618   0.93384 
 C                     1.55909  -0.93665  -0.04637 
 H                     1.19734  -1.49774  -0.91836 
 H                     2.64674  -0.81389  -0.14475 
 H                     1.36491  -1.53624   0.85419 
 C                    -1.36135   2.00897   0.04738 
 H                    -0.84387   2.42062  -0.83239 
 H                    -0.94105   2.4605    0.95958 
 C                    -2.8715    2.19395  -0.04698 
 H                    -3.38166   1.8001    0.8436 
 H                    -3.12056   3.26047  -0.13783 
 H                    -3.2672    1.67304  -0.92902 
 S                    -0.95293   0.21143   0.10803 
 O                    -1.38382  -0.38044  -1.2071 
 
                    Distance matrix (angstroms):
                    1          2          3          4          5
     1  C    0.000000
     2  H    1.100607   0.000000
     3  H    1.101435   1.794903   0.000000
     4  C    1.524394   2.186270   2.193299   0.000000
     5  H    2.168239   2.538219   3.098599   1.098200   0.000000
     6  H    2.166717   2.524294   2.566810   1.098969   1.779573
     7  H    2.181510   3.103881   2.531297   1.099195   1.780865
     8  C    2.742935   2.784671   2.869243   4.149024   4.447081
     9  H    2.773909   2.374614   3.037633   4.202768   4.418988
    10  H    2.883206   3.072416   2.573887   4.336267   4.875138
    11  C    4.146502   4.202205   4.329334   5.425015   5.562674
    12  H    4.548989   4.841407   4.623357   5.717761   5.911633
    13  H    4.904778   4.812201   4.971696   6.286752   6.472558
    14  H    4.434252   4.399994   4.859865   5.557205   5.475947
    15  S    1.844695   2.402840   2.404802   2.766255   2.932301
    16  O    2.701578   2.869135   3.600847   3.212062   2.827381
                    6          7          8          9         10
     6  H    0.000000
     7  H    1.778416   0.000000
     8  C    4.906141   4.544440   0.000000
     9  H    4.808245   4.835285   1.100563   0.000000
    10  H    4.981303   4.615458   1.101196   1.795043   0.000000
    11  C    6.285512   5.716085   1.524362   2.186218   2.193363
    12  H    6.644647   5.801824   2.181567   3.103927   2.531036
    13  H    7.061316   6.641682   2.166882   2.524104   2.567980
    14  H    6.463320   5.910642   2.167590   2.537863   3.098036
    15  S    3.751374   2.997248   1.844349   2.403497   2.404903
    16  O    4.190684   3.624953   2.698796   2.877134   3.600201
                   11         12         13         14         15
    11  C    0.000000
    12  H    1.099323   0.000000
    13  H    1.098969   1.778776   0.000000
    14  H    1.098142   1.780842   1.779723   0.000000
    15  S    2.763211   2.993932   3.749091   2.927043   0.000000
    16  O    3.191644   3.598815   4.173228   2.800218   1.505173
                   16
    16  O    0.000000
 Symmetry turned off by external request.
 Rotational constants (GHZ):           6.2215197           1.6781555           1.4427499
   232 basis functions,   406 primitive gaussians,   244 cartesian basis functions
    29 alpha electrons       29 beta electrons
       nuclear repulsion energy       324.7609939357 Hartrees.
 NAtoms=   16 NActive=   16 NUniq=   16 SFac= 1.00D+00 NAtFMM=   60 NAOKFM=F Big=F
 ExpMin= 2.97D-02 ExpMax= 1.11D+05 ExpMxC= 1.07D+03 IAcc=3 IRadAn=         5 AccDes= 0.00D+00
 Harris functional with IExCor=  205 and IRadAn=       5 diagonalized for initial guess.
 HarFok:  IExCor=  205 AccDes= 0.00D+00 IRadAn=         5 IDoV= 1 UseB2=F ITyADJ=14
 ICtDFT=  3500011 ScaDFX=  1.000000  1.000000  1.000000  1.000000
 FoFCou: FMM=F IPFlag=           0 FMFlag=      100000 FMFlg1=           0
         NFxFlg=           0 DoJE=T BraDBF=F KetDBF=T FulRan=T
         wScrn=  0.000000 ICntrl=       500 IOpCl=  0 I1Cent=   200000004 NGrid=           0
         NMat0=    1 NMatS0=      1 NMatT0=    0 NMatD0=    1 NMtDS0=    0 NMtDT0=    0
 Symmetry not used in FoFCou.
 SCF Done:  E(RHF) =  -629.660977238     A.U. after   14 cycles
            NFock= 14  Conv=0.45D-08     -V/T= 2.0009

 **********************************************************************

            Population analysis using the SCF Density.

 **********************************************************************

 Alpha  occ. eigenvalues --  -92.06732 -20.50891 -11.27497 -11.27481 -11.24045
 Alpha  occ. eigenvalues --  -11.24007  -9.05641  -6.73875  -6.73787  -6.73595
 Alpha  occ. eigenvalues --   -1.33007  -1.08352  -1.04596  -0.93468  -0.84880
 Alpha  occ. eigenvalues --   -0.79513  -0.65355  -0.64232  -0.62446  -0.58594
 Alpha  occ. eigenvalues --   -0.57711  -0.54110  -0.52757  -0.52596  -0.51101
 Alpha  occ. eigenvalues --   -0.50684  -0.49826  -0.40183  -0.35775
 Alpha virt. eigenvalues --    0.03109   0.03886   0.04553   0.04960   0.06124
 Alpha virt. eigenvalues --    0.06585   0.06665   0.07698   0.08789   0.09561
 Alpha virt. eigenvalues --    0.10681   0.11845   0.13454   0.13552   0.14615
 Alpha virt. eigenvalues --    0.14953   0.16018   0.16058   0.16754   0.16990
 Alpha virt. eigenvalues --    0.17869   0.18456   0.18569   0.19974   0.20306
 Alpha virt. eigenvalues --    0.21601   0.21810   0.23069   0.24261   0.26096
 Alpha virt. eigenvalues --    0.26213   0.26629   0.27188   0.27694   0.29054
 Alpha virt. eigenvalues --    0.29859   0.31754   0.32279   0.32454   0.34893
 Alpha virt. eigenvalues --    0.35241   0.35593   0.37195   0.37717   0.39669
 Alpha virt. eigenvalues --    0.39745   0.41844   0.42851   0.43432   0.44790
 Alpha virt. eigenvalues --    0.45234   0.46067   0.46608   0.46789   0.46885
 Alpha virt. eigenvalues --    0.47838   0.48823   0.49307   0.50596   0.51187
 Alpha virt. eigenvalues --    0.52027   0.53166   0.53718   0.53795   0.54504
 Alpha virt. eigenvalues --    0.56052   0.56732   0.57855   0.58998   0.59323
 Alpha virt. eigenvalues --    0.59734   0.60425   0.61819   0.63188   0.64012
 Alpha virt. eigenvalues --    0.64521   0.64784   0.66274   0.67871   0.68819
 Alpha virt. eigenvalues --    0.69567   0.70108   0.72040   0.72965   0.73499
 Alpha virt. eigenvalues --    0.74186   0.74535   0.75187   0.76556   0.78430
 Alpha virt. eigenvalues --    0.78831   0.79560   0.81070   0.84378   0.84890
 Alpha virt. eigenvalues --    0.86598   0.86669   0.88417   0.88890   0.89357
 Alpha virt. eigenvalues --    0.91558   0.94007   0.96638   0.99430   1.04710
 Alpha virt. eigenvalues --    1.05701   1.08946   1.09831   1.11962   1.12466
 Alpha virt. eigenvalues --    1.13040   1.14359   1.15913   1.17123   1.19190
 Alpha virt. eigenvalues --    1.22998   1.24458   1.26339   1.27377   1.29701
 Alpha virt. eigenvalues --    1.30330   1.33170   1.33351   1.37113   1.41141
 Alpha virt. eigenvalues --    1.41958   1.43221   1.44947   1.48264   1.48410
 Alpha virt. eigenvalues --    1.49425   1.54383   1.55299   1.60858   1.62556
 Alpha virt. eigenvalues --    1.62941   1.66099   1.70602   1.72131   1.75119
 Alpha virt. eigenvalues --    1.79360   1.80481   1.84019   1.86381   1.88933
 Alpha virt. eigenvalues --    1.89934   1.92415   1.95529   1.96451   1.97214
 Alpha virt. eigenvalues --    1.97940   1.98899   2.01389   2.04842   2.05434
 Alpha virt. eigenvalues --    2.07905   2.08389   2.12362   2.13512   2.16766
 Alpha virt. eigenvalues --    2.17015   2.18267   2.18812   2.22287   2.24528
 Alpha virt. eigenvalues --    2.24741   2.26624   2.29297   2.31926   2.33996
 Alpha virt. eigenvalues --    2.34730   2.38471   2.44461   2.47945   2.48299
 Alpha virt. eigenvalues --    2.51004   2.52381   2.57519   2.59876   2.63012
 Alpha virt. eigenvalues --    2.64936   2.69486   2.70747   2.71169   2.77628
 Alpha virt. eigenvalues --    2.86472   2.88033   2.89515   2.91891   2.94744
 Alpha virt. eigenvalues --    2.96408   2.99193   3.08848   3.08917   3.09354
 Alpha virt. eigenvalues --    3.12924   3.15813   3.28970   3.79651   3.80185
 Alpha virt. eigenvalues --    3.83166   3.87243   3.91078
          Condensed to atoms (all electrons):
 Mulliken charges:
               1
     1  C   -0.106955
     2  H   -0.107209
     3  H   -0.118365
     4  C    0.378704
     5  H   -0.011808
     6  H   -0.026882
     7  H   -0.047734
     8  C   -0.105659
     9  H   -0.103973
    10  H   -0.122251
    11  C    0.377936
    12  H   -0.048533
    13  H   -0.027739
    14  H   -0.010218
    15  S    1.272706
    16  O   -1.192021
 Sum of Mulliken charges =  -0.00000
 Mulliken charges with hydrogens summed into heavy atoms:
               1
     1  C   -0.332529
     4  C    0.292281
     8  C   -0.331884
    11  C    0.291447
    15  S    1.272706
    16  O   -1.192021
 Electronic spatial extent (au):  <R**2>=           1072.3537
 Charge=             -0.0000 electrons
 Dipole moment (field-independent basis, Debye):
    X=              2.1410    Y=              2.9846    Z=              2.5098  Tot=              4.4487
 NROrb=    232 NOA=    29 NOB=    29 NVA=   203 NVB=   203

 **** Warning!!: The largest alpha MO coefficient is  0.47450118D+02

    12 initial guesses have been made.
 Iteration     1 Dimension    12 NMult     0 NNew     12
 New state      1 was old state      2
 Iteration     2 Dimension    24 NMult    12 NNew     12
 New state      1 was old state      2
 Iteration     3 Dimension    27 NMult    24 NNew      3
 Iteration     4 Dimension    30 NMult    27 NNew      3
 Iteration     5 Dimension    33 NMult    30 NNew      3
 Iteration     6 Dimension    36 NMult    33 NNew      3
 Iteration     7 Dimension    39 NMult    36 NNew      3
 ***********************************************************************
 Stability analysis using <AA,BB:AA,BB> singles matrix:
 ***********************************************************************
 Ground to excited state transition densities written to RWF  633

 Eigenvectors of the stability matrix:
 
 Excited state symmetry could not be determined.
 Eigenvector   1:      Singlet-?Sym  Eigenvalue= 0.2521226  <S**2>=0.000
      29 -> 33         0.14327
      29 -> 37        -0.14831
      29 -> 40        -0.23140
      29 -> 41         0.22909
      29 -> 42         0.20777
      29 -> 44        -0.26263
      29 -> 49        -0.12001
      29 -> 52        -0.12783
      29 -> 56         0.19091
      29 -> 58         0.22352
      29 -> 60         0.15649
      29 -> 61         0.15158
      29 -> 67        -0.10337
 The wavefunction is stable under the perturbations considered.
 The wavefunction is already stable.

 **********************************************************************

            Population analysis using the SCF Density.

 **********************************************************************

 Alpha  occ. eigenvalues --  -92.06732 -20.50891 -11.27497 -11.27481 -11.24045
 Alpha  occ. eigenvalues --  -11.24007  -9.05641  -6.73875  -6.73787  -6.73595
 Alpha  occ. eigenvalues --   -1.33007  -1.08352  -1.04596  -0.93468  -0.84880
 Alpha  occ. eigenvalues --   -0.79513  -0.65355  -0.64232  -0.62446  -0.58594
 Alpha  occ. eigenvalues --   -0.57711  -0.54110  -0.52757  -0.52596  -0.51101
 Alpha  occ. eigenvalues --   -0.50684  -0.49826  -0.40183  -0.35775
 Alpha virt. eigenvalues --    0.03109   0.03886   0.04553   0.04960   0.06124
 Alpha virt. eigenvalues --    0.06585   0.06665   0.07698   0.08789   0.09561
 Alpha virt. eigenvalues --    0.10681   0.11845   0.13454   0.13552   0.14615
 Alpha virt. eigenvalues --    0.14953   0.16018   0.16058   0.16754   0.16990
 Alpha virt. eigenvalues --    0.17869   0.18456   0.18569   0.19974   0.20306
 Alpha virt. eigenvalues --    0.21601   0.21810   0.23069   0.24261   0.26096
 Alpha virt. eigenvalues --    0.26213   0.26629   0.27188   0.27694   0.29054
 Alpha virt. eigenvalues --    0.29859   0.31754   0.32279   0.32454   0.34893
 Alpha virt. eigenvalues --    0.35241   0.35593   0.37195   0.37717   0.39669
 Alpha virt. eigenvalues --    0.39745   0.41844   0.42851   0.43432   0.44790
 Alpha virt. eigenvalues --    0.45234   0.46067   0.46608   0.46789   0.46885
 Alpha virt. eigenvalues --    0.47838   0.48823   0.49307   0.50596   0.51187
 Alpha virt. eigenvalues --    0.52027   0.53166   0.53718   0.53795   0.54504
 Alpha virt. eigenvalues --    0.56052   0.56732   0.57855   0.58998   0.59323
 Alpha virt. eigenvalues --    0.59734   0.60425   0.61819   0.63188   0.64012
 Alpha virt. eigenvalues --    0.64521   0.64784   0.66274   0.67871   0.68819
 Alpha virt. eigenvalues --    0.69567   0.70108   0.72040   0.72965   0.73499
 Alpha virt. eigenvalues --    0.74186   0.74535   0.75187   0.76556   0.78430
 Alpha virt. eigenvalues --    0.78831   0.79560   0.81070   0.84378   0.84890
 Alpha virt. eigenvalues --    0.86598   0.86669   0.88417   0.88890   0.89357
 Alpha virt. eigenvalues --    0.91558   0.94007   0.96638   0.99430   1.04710
 Alpha virt. eigenvalues --    1.05701   1.08946   1.09831   1.11962   1.12466
 Alpha virt. eigenvalues --    1.13040   1.14359   1.15913   1.17123   1.19190
 Alpha virt. eigenvalues --    1.22998   1.24458   1.26339   1.27377   1.29701
 Alpha virt. eigenvalues --    1.30330   1.33170   1.33351   1.37113   1.41141
 Alpha virt. eigenvalues --    1.41958   1.43221   1.44947   1.48264   1.48410
 Alpha virt. eigenvalues --    1.49425   1.54383   1.55299   1.60858   1.62556
 Alpha virt. eigenvalues --    1.62941   1.66099   1.70602   1.72131   1.75119
 Alpha virt. eigenvalues --    1.79360   1.80481   1.84019   1.86381   1.88933
 Alpha virt. eigenvalues --    1.89934   1.92415   1.95529   1.96451   1.97214
 Alpha virt. eigenvalues --    1.97940   1.98899   2.01389   2.04842   2.05434
 Alpha virt. eigenvalues --    2.07905   2.08389   2.12362   2.13512   2.16766
 Alpha virt. eigenvalues --    2.17015   2.18267   2.18812   2.22287   2.24528
 Alpha virt. eigenvalues --    2.24741   2.26624   2.29297   2.31926   2.33996
 Alpha virt. eigenvalues --    2.34730   2.38471   2.44461   2.47945   2.48299
 Alpha virt. eigenvalues --    2.51004   2.52381   2.57519   2.59876   2.63012
 Alpha virt. eigenvalues --    2.64936   2.69486   2.70747   2.71169   2.77628
 Alpha virt. eigenvalues --    2.86472   2.88033   2.89515   2.91891   2.94744
 Alpha virt. eigenvalues --    2.96408   2.99193   3.08848   3.08917   3.09354
 Alpha virt. eigenvalues --    3.12924   3.15813   3.28970   3.79651   3.80185
 Alpha virt. eigenvalues --    3.83166   3.87243   3.91078
          Condensed to atoms (all electrons):
 Mulliken charges:
               1
     1  C   -0.106955
     2  H   -0.107209
     3  H   -0.118365
     4  C    0.378704
     5  H   -0.011808
     6  H   -0.026882
     7  H   -0.047734
     8  C   -0.105659
     9  H   -0.103973
    10  H   -0.122251
    11  C    0.377936
    12  H   -0.048533
    13  H   -0.027739
    14  H   -0.010218
    15  S    1.272706
    16  O   -1.192021
 Sum of Mulliken charges =  -0.00000
 Mulliken charges with hydrogens summed into heavy atoms:
               1
     1  C   -0.332529
     4  C    0.292281
     8  C   -0.331884
    11  C    0.291447
    15  S    1.272706
    16  O   -1.192021
 Electronic spatial extent (au):  <R**2>=           1072.3537
 Charge=             -0.0000 electrons
 Dipole moment (field-independent basis, Debye):
    X=              2.1410    Y=              2.9846    Z=              2.5098  Tot=              4.4487
 Unable to Open any file for archive entry.
 1\1\GINC-SE339\Stability\RHF\Aug-CC-pVDZ\C4H10O1S1\OHZDE\09-Apr-2025\0
 \\#t hf aug-cc-pvdz symm=none int=(grid=ultrafine) guess=(read,tcheck)
  stable=(opt,rrhf)\\title\\0,1\C,0,0.87780338,0.42478559,0.03193616\H,
 0,1.08605893,1.03733057,-0.85843079\H,0,1.16859595,0.98617815,0.933843
 43\C,0,1.55908788,-0.93664584,-0.04637343\H,0,1.19733591,-1.49773979,-
 0.91835533\H,0,2.64673878,-0.81388699,-0.14475442\H,0,1.36491039,-1.53
 623726,0.85419022\C,0,-1.36135175,2.00896883,0.04737956\H,0,-0.8438683
 6,2.42062089,-0.8323886\H,0,-0.94105295,2.4604961,0.95957761\C,0,-2.87
 150316,2.19395344,-0.04698002\H,0,-3.38165975,1.80009641,0.84359686\H,
 0,-3.12056465,3.26046565,-0.13782768\H,0,-3.26719816,1.67303588,-0.929
 01529\S,0,-0.95293143,0.21143261,0.10803142\O,0,-1.3838175,-0.38044062
 ,-1.20709898\\Version=ES64L-G16RevC.01\HF=-629.6609772\RMSD=4.544e-09\
 Dipole=0.8423487,1.1742174,0.9874427\Quadrupole=0.0339152,2.8053462,-2
 .8392614,-3.496801,-2.7845823,-0.9641947\PG=Unknown\\@
 The archive entry for this job was punched.


 THOSE WHO ASPIRE NOT TO GUESS AND DIVINE,
 BUT TO DISCOVER AND KNOW, WHO PROPOSE NOT TO DEVISE 
 MIMIC AND FABULOUS WORLDS OF THEIR OWN, BUT TO 
 EXAMINE AND DISSECT THE NATURE OF THIS VERY WORLD 
 ITSELF, MUST GO TO THE FACTS THEMSELVES FOR EVERYTHING.

                               -- FRANCIS BACON, 1620
 Job cpu time:       0 days  0 hours  7 minutes 45.7 seconds.
 Elapsed time:       0 days  0 hours  0 minutes 32.7 seconds.
 File lengths (MBytes):  RWF=    262 Int=      0 D2E=      0 Chk=      8 Scr=      1
 Normal termination of Gaussian 16 at Wed Apr  9 03:04:00 2025.
 Initial command:
 /arc/software/Gaussian/g16.c01/l1.exe "/tmp/slurm/4860623/Gau-1006744.inp" -scrdir="/tmp/slurm/4860623/"
 Entering Link 1 = /arc/software/Gaussian/g16.c01/l1.exe PID=   1007007.
  
 Copyright (c) 1988-2019, Gaussian, Inc.  All Rights Reserved.
  
 This is part of the Gaussian(R) 16 program.  It is based on
 the Gaussian(R) 09 system (copyright 2009, Gaussian, Inc.),
 the Gaussian(R) 03 system (copyright 2003, Gaussian, Inc.),
 the Gaussian(R) 98 system (copyright 1998, Gaussian, Inc.),
 the Gaussian(R) 94 system (copyright 1995, Gaussian, Inc.),
 the Gaussian 92(TM) system (copyright 1992, Gaussian, Inc.),
 the Gaussian 90(TM) system (copyright 1990, Gaussian, Inc.),
 the Gaussian 88(TM) system (copyright 1988, Gaussian, Inc.),
 the Gaussian 86(TM) system (copyright 1986, Carnegie Mellon
 University), and the Gaussian 82(TM) system (copyright 1983,
 Carnegie Mellon University). Gaussian is a federally registered
 trademark of Gaussian, Inc.
  
 This software contains proprietary and confidential information,
 including trade secrets, belonging to Gaussian, Inc.
  
 This software is provided under written license and may be
 used, copied, transmitted, or stored only in accord with that
 written license.
  
 The following legend is applicable only to US Government
 contracts under FAR:
  
                    RESTRICTED RIGHTS LEGEND
  
 Use, reproduction and disclosure by the US Government is
 subject to restrictions as set forth in subparagraphs (a)
 and (c) of the Commercial Computer Software - Restricted
 Rights clause in FAR 52.227-19.
  
 Gaussian, Inc.
 340 Quinnipiac St., Bldg. 40, Wallingford CT 06492
  
  
 ---------------------------------------------------------------
 Warning -- This program may not be used in any manner that
 competes with the business of Gaussian, Inc. or will provide
 assistance to any competitor of Gaussian, Inc.  The licensee
 of this program is prohibited from giving any competitor of
 Gaussian, Inc. access to this program.  By using this program,
 the user acknowledges that Gaussian, Inc. is engaged in the
 business of creating and licensing software in the field of
 computational chemistry and represents and warrants to the
 licensee that it is not a competitor of Gaussian, Inc. and that
 it will not use this program in any manner prohibited above.
 ---------------------------------------------------------------
  

 Cite this work as:
 Gaussian 16, Revision C.01,
 M. J. Frisch, G. W. Trucks, H. B. Schlegel, G. E. Scuseria, 
 M. A. Robb, J. R. Cheeseman, G. Scalmani, V. Barone, 
 G. A. Petersson, H. Nakatsuji, X. Li, M. Caricato, A. V. Marenich, 
 J. Bloino, B. G. Janesko, R. Gomperts, B. Mennucci, H. P. Hratchian, 
 J. V. Ortiz, A. F. Izmaylov, J. L. Sonnenberg, D. Williams-Young, 
 F. Ding, F. Lipparini, F. Egidi, J. Goings, B. Peng, A. Petrone, 
 T. Henderson, D. Ranasinghe, V. G. Zakrzewski, J. Gao, N. Rega, 
 G. Zheng, W. Liang, M. Hada, M. Ehara, K. Toyota, R. Fukuda, 
 J. Hasegawa, M. Ishida, T. Nakajima, Y. Honda, O. Kitao, H. Nakai, 
 T. Vreven, K. Throssell, J. A. Montgomery, Jr., J. E. Peralta, 
 F. Ogliaro, M. J. Bearpark, J. J. Heyd, E. N. Brothers, K. N. Kudin, 
 V. N. Staroverov, T. A. Keith, R. Kobayashi, J. Normand, 
 K. Raghavachari, A. P. Rendell, J. C. Burant, S. S. Iyengar, 
 J. Tomasi, M. Cossi, J. M. Millam, M. Klene, C. Adamo, R. Cammi, 
 J. W. Ochterski, R. L. Martin, K. Morokuma, O. Farkas, 
 J. B. Foresman, and D. J. Fox, Gaussian, Inc., Wallingford CT, 2019.
 
 ******************************************
 Gaussian 16:  ES64L-G16RevC.01  3-Jul-2019
                 9-Apr-2025 
 ******************************************
 %nprocs=16
 Will use up to   16 processors via shared memory.
 %mem=30GB
 %chk=FH51_10_mol3.chk
 ----------------------------------------------------------------------
 #t hf aug-cc-pvdz iop(5/13=1,5/36=2,99/5=2) pseudo=read geom=check gue
 ss=(read,tcheck) scf=(maxcycle=1)
 ----------------------------------------------------------------------
 -----
 title
 -----
 Structure from the checkpoint file:  "FH51_10_mol3.chk"
 Charge =  0 Multiplicity = 1
 Z-Matrix found in chk file.
 C,0,0.87780338,0.42478559,0.03193616
 H,0,1.08605893,1.03733057,-0.85843079
 H,0,1.16859595,0.98617815,0.93384343
 C,0,1.55908788,-0.93664584,-0.04637343
 H,0,1.19733591,-1.49773979,-0.91835533
 H,0,2.64673878,-0.81388699,-0.14475442
 H,0,1.36491039,-1.53623726,0.85419022
 C,0,-1.36135175,2.00896883,0.04737956
 H,0,-0.84386836,2.42062089,-0.8323886
 H,0,-0.94105295,2.4604961,0.95957761
 C,0,-2.87150316,2.19395344,-0.04698002
 H,0,-3.38165975,1.80009641,0.84359686
 H,0,-3.12056465,3.26046565,-0.13782768
 H,0,-3.26719816,1.67303588,-0.92901529
 S,0,-0.95293143,0.21143261,0.10803142
 O,0,-1.3838175,-0.38044062,-1.20709898
 Recover connectivity data from disk.
                    Distance matrix (angstroms):
                    1          2          3          4          5
     1  C    0.000000
     2  H    1.100607   0.000000
     3  H    1.101435   1.794903   0.000000
     4  C    1.524394   2.186270   2.193299   0.000000
     5  H    2.168239   2.538219   3.098599   1.098200   0.000000
     6  H    2.166717   2.524294   2.566810   1.098969   1.779573
     7  H    2.181510   3.103881   2.531297   1.099195   1.780865
     8  C    2.742935   2.784671   2.869243   4.149024   4.447081
     9  H    2.773909   2.374614   3.037633   4.202768   4.418988
    10  H    2.883206   3.072416   2.573887   4.336267   4.875138
    11  C    4.146502   4.202205   4.329334   5.425015   5.562674
    12  H    4.548989   4.841407   4.623357   5.717761   5.911633
    13  H    4.904778   4.812201   4.971696   6.286752   6.472558
    14  H    4.434252   4.399994   4.859865   5.557205   5.475947
    15  S    1.844695   2.402840   2.404802   2.766255   2.932301
    16  O    2.701578   2.869135   3.600847   3.212062   2.827381
                    6          7          8          9         10
     6  H    0.000000
     7  H    1.778416   0.000000
     8  C    4.906141   4.544440   0.000000
     9  H    4.808245   4.835285   1.100563   0.000000
    10  H    4.981303   4.615458   1.101196   1.795043   0.000000
    11  C    6.285512   5.716085   1.524362   2.186218   2.193363
    12  H    6.644647   5.801824   2.181567   3.103927   2.531036
    13  H    7.061316   6.641682   2.166882   2.524104   2.567980
    14  H    6.463320   5.910642   2.167590   2.537863   3.098036
    15  S    3.751374   2.997248   1.844349   2.403497   2.404903
    16  O    4.190684   3.624953   2.698796   2.877134   3.600201
                   11         12         13         14         15
    11  C    0.000000
    12  H    1.099323   0.000000
    13  H    1.098969   1.778776   0.000000
    14  H    1.098142   1.780842   1.779723   0.000000
    15  S    2.763211   2.993932   3.749091   2.927043   0.000000
    16  O    3.191644   3.598815   4.173228   2.800218   1.505173
                   16
    16  O    0.000000
 Framework group  C1[X(C4H10OS)]
 Deg. of freedom    42
                         Standard orientation:                         
 ---------------------------------------------------------------------
 Center     Atomic      Atomic             Coordinates (Angstroms)
 Number     Number       Type             X           Y           Z
 ---------------------------------------------------------------------
      1          6           0        1.373240   -0.796266    0.221679
      2          1           0        1.190556   -0.930870    1.298639
      3          1           0        1.286817   -1.770491   -0.284852
      4          6           0        2.714868   -0.123234   -0.044481
      5          1           0        2.743130    0.873060    0.416651
      6          1           0        3.532792   -0.721319    0.380992
      7          1           0        2.901582   -0.009928   -1.121760
      8          6           0       -1.369654   -0.805936    0.210472
      9          1           0       -1.183860   -0.958062    1.284519
     10          1           0       -1.286924   -1.771622   -0.312252
     11          6           0       -2.710146   -0.124962   -0.040602
     12          1           0       -2.900218    0.005526   -1.115477
     13          1           0       -3.528522   -0.726618    0.378927
     14          1           0       -2.732777    0.864290    0.435616
     15         16           0        0.000420    0.256964   -0.417829
     16          8           0       -0.009892    1.517125    0.405233
 ---------------------------------------------------------------------
 Rotational constants (GHZ):           6.2215197           1.6781555           1.4427499
 ======================================================================================================
                                       Pseudopotential Parameters
 ======================================================================================================
  Center     Atomic      Valence      Angular      Power
  Number     Number     Electrons     Momentum     of R      Exponent        Coefficient   SO-Coeffient
 ======================================================================================================
    1          6            6
                                      G and up 
                                                     0        0.0000010       -0.00286759    0.00000000
                                                     2        0.1200000        0.03193960    0.00000000
                                                     2        0.1600000       -0.04027782    0.00000000
                                                     2        0.2600000        0.24782456    0.00000000
                                                     2        0.4000000       -0.62266671    0.00000000
                                                     2        0.7000000        0.35695227    0.00000000
                                      S - G
                                                     0        0.0000010       -0.06602313    0.00000000
                                                     2        0.1200000        1.47277455    0.00000000
                                                     2        0.1600000       -4.06924166    0.00000000
                                                     2        0.3000000        5.02952802    0.00000000
                                                     2        0.7000000       -5.65856978    0.00000000
                                                     2        1.7000000        8.57604414    0.00000000
                                      P - G
                                                     0        0.0000010        0.49434425    0.00000000
                                                     2        0.1200000       -1.37391547    0.00000000
                                                     2        0.1600000        3.65411806    0.00000000
                                                     2        0.2800000       -7.36479843    0.00000000
                                                     2        0.6000000       17.22091285    0.00000000
                                                     2        1.1000000      -23.50107827    0.00000000
                                                     2        3.0000000       16.29464063    0.00000000
                                      D - G
                                                     0        0.0000010       -0.28693103    0.00000000
                                                     2        0.1200000        0.12273044    0.00000000
                                                     2        0.3000000       -0.43416384    0.00000000
                                                     2        0.7000000        2.23358493    0.00000000
                                      F - G
                                                     0        0.0000010        0.07263570    0.00000000
                                                     2        0.1400000       -0.76152861    0.00000000
                                                     2        0.2200000        1.98045593    0.00000000
                                                     2        0.4000000       -2.42426427    0.00000000
                                                     2        0.7000000        0.52335237    0.00000000
    2          1            1
                                      F and up 
                                                     0        0.0000010        0.00072061    0.00000000
                                                     2        0.1200000        0.03832357    0.00000000
                                                     2        0.1400000       -0.08683256    0.00000000
                                                     2        0.1800000        0.09312970    0.00000000
                                                     2        0.2800000       -0.02532572    0.00000000
                                                     2        0.4000000       -0.09430787    0.00000000
                                                     2        0.7000000        0.42710831    0.00000000
                                                     2        1.2000000       -2.11746981    0.00000000
                                      S - F
                                                     0        0.0000010        0.14449603    0.00000000
                                                     2        0.1200000       -0.56378993    0.00000000
                                                     2        0.1400000        0.63941249    0.00000000
                                                     2        0.2600000       -0.58461015    0.00000000
                                                     2        0.5000000        1.00157293    0.00000000
                                                     2        1.8000000       -0.14135838    0.00000000
                                      P - F
                                                     0        0.0000010       -0.09353646    0.00000000
                                                     2        0.1200000        0.31768975    0.00000000
                                                     2        0.2000000       -0.71747951    0.00000000
                                                     2        0.4000000        0.65752308    0.00000000
                                                     2        1.7000000        2.94052587    0.00000000
                                      D - F
                                                     0        0.0000010       -0.04491202    0.00000000
                                                     2        0.1200000       -0.02862031    0.00000000
                                                     2        0.1800000       -0.21515263    0.00000000
                                                     2        0.3000000        0.80560647    0.00000000
                                                     2        0.4000000        0.47351754    0.00000000
                                                     2        0.7000000       -4.57051794    0.00000000
                                                     2        1.6000000       18.53737826    0.00000000
    3          1            1
                                      F and up 
                                                     0        0.0000010        0.00072061    0.00000000
                                                     2        0.1200000        0.03832357    0.00000000
                                                     2        0.1400000       -0.08683256    0.00000000
                                                     2        0.1800000        0.09312970    0.00000000
                                                     2        0.2800000       -0.02532572    0.00000000
                                                     2        0.4000000       -0.09430787    0.00000000
                                                     2        0.7000000        0.42710831    0.00000000
                                                     2        1.2000000       -2.11746981    0.00000000
                                      S - F
                                                     0        0.0000010        0.14449603    0.00000000
                                                     2        0.1200000       -0.56378993    0.00000000
                                                     2        0.1400000        0.63941249    0.00000000
                                                     2        0.2600000       -0.58461015    0.00000000
                                                     2        0.5000000        1.00157293    0.00000000
                                                     2        1.8000000       -0.14135838    0.00000000
                                      P - F
                                                     0        0.0000010       -0.09353646    0.00000000
                                                     2        0.1200000        0.31768975    0.00000000
                                                     2        0.2000000       -0.71747951    0.00000000
                                                     2        0.4000000        0.65752308    0.00000000
                                                     2        1.7000000        2.94052587    0.00000000
                                      D - F
                                                     0        0.0000010       -0.04491202    0.00000000
                                                     2        0.1200000       -0.02862031    0.00000000
                                                     2        0.1800000       -0.21515263    0.00000000
                                                     2        0.3000000        0.80560647    0.00000000
                                                     2        0.4000000        0.47351754    0.00000000
                                                     2        0.7000000       -4.57051794    0.00000000
                                                     2        1.6000000       18.53737826    0.00000000
    4          6            6
                                      G and up 
                                                     0        0.0000010       -0.00286759    0.00000000
                                                     2        0.1200000        0.03193960    0.00000000
                                                     2        0.1600000       -0.04027782    0.00000000
                                                     2        0.2600000        0.24782456    0.00000000
                                                     2        0.4000000       -0.62266671    0.00000000
                                                     2        0.7000000        0.35695227    0.00000000
                                      S - G
                                                     0        0.0000010       -0.06602313    0.00000000
                                                     2        0.1200000        1.47277455    0.00000000
                                                     2        0.1600000       -4.06924166    0.00000000
                                                     2        0.3000000        5.02952802    0.00000000
                                                     2        0.7000000       -5.65856978    0.00000000
                                                     2        1.7000000        8.57604414    0.00000000
                                      P - G
                                                     0        0.0000010        0.49434425    0.00000000
                                                     2        0.1200000       -1.37391547    0.00000000
                                                     2        0.1600000        3.65411806    0.00000000
                                                     2        0.2800000       -7.36479843    0.00000000
                                                     2        0.6000000       17.22091285    0.00000000
                                                     2        1.1000000      -23.50107827    0.00000000
                                                     2        3.0000000       16.29464063    0.00000000
                                      D - G
                                                     0        0.0000010       -0.28693103    0.00000000
                                                     2        0.1200000        0.12273044    0.00000000
                                                     2        0.3000000       -0.43416384    0.00000000
                                                     2        0.7000000        2.23358493    0.00000000
                                      F - G
                                                     0        0.0000010        0.07263570    0.00000000
                                                     2        0.1400000       -0.76152861    0.00000000
                                                     2        0.2200000        1.98045593    0.00000000
                                                     2        0.4000000       -2.42426427    0.00000000
                                                     2        0.7000000        0.52335237    0.00000000
    5          1            1
                                      F and up 
                                                     0        0.0000010        0.00072061    0.00000000
                                                     2        0.1200000        0.03832357    0.00000000
                                                     2        0.1400000       -0.08683256    0.00000000
                                                     2        0.1800000        0.09312970    0.00000000
                                                     2        0.2800000       -0.02532572    0.00000000
                                                     2        0.4000000       -0.09430787    0.00000000
                                                     2        0.7000000        0.42710831    0.00000000
                                                     2        1.2000000       -2.11746981    0.00000000
                                      S - F
                                                     0        0.0000010        0.14449603    0.00000000
                                                     2        0.1200000       -0.56378993    0.00000000
                                                     2        0.1400000        0.63941249    0.00000000
                                                     2        0.2600000       -0.58461015    0.00000000
                                                     2        0.5000000        1.00157293    0.00000000
                                                     2        1.8000000       -0.14135838    0.00000000
                                      P - F
                                                     0        0.0000010       -0.09353646    0.00000000
                                                     2        0.1200000        0.31768975    0.00000000
                                                     2        0.2000000       -0.71747951    0.00000000
                                                     2        0.4000000        0.65752308    0.00000000
                                                     2        1.7000000        2.94052587    0.00000000
                                      D - F
                                                     0        0.0000010       -0.04491202    0.00000000
                                                     2        0.1200000       -0.02862031    0.00000000
                                                     2        0.1800000       -0.21515263    0.00000000
                                                     2        0.3000000        0.80560647    0.00000000
                                                     2        0.4000000        0.47351754    0.00000000
                                                     2        0.7000000       -4.57051794    0.00000000
                                                     2        1.6000000       18.53737826    0.00000000
    6          1            1
                                      F and up 
                                                     0        0.0000010        0.00072061    0.00000000
                                                     2        0.1200000        0.03832357    0.00000000
                                                     2        0.1400000       -0.08683256    0.00000000
                                                     2        0.1800000        0.09312970    0.00000000
                                                     2        0.2800000       -0.02532572    0.00000000
                                                     2        0.4000000       -0.09430787    0.00000000
                                                     2        0.7000000        0.42710831    0.00000000
                                                     2        1.2000000       -2.11746981    0.00000000
                                      S - F
                                                     0        0.0000010        0.14449603    0.00000000
                                                     2        0.1200000       -0.56378993    0.00000000
                                                     2        0.1400000        0.63941249    0.00000000
                                                     2        0.2600000       -0.58461015    0.00000000
                                                     2        0.5000000        1.00157293    0.00000000
                                                     2        1.8000000       -0.14135838    0.00000000
                                      P - F
                                                     0        0.0000010       -0.09353646    0.00000000
                                                     2        0.1200000        0.31768975    0.00000000
                                                     2        0.2000000       -0.71747951    0.00000000
                                                     2        0.4000000        0.65752308    0.00000000
                                                     2        1.7000000        2.94052587    0.00000000
                                      D - F
                                                     0        0.0000010       -0.04491202    0.00000000
                                                     2        0.1200000       -0.02862031    0.00000000
                                                     2        0.1800000       -0.21515263    0.00000000
                                                     2        0.3000000        0.80560647    0.00000000
                                                     2        0.4000000        0.47351754    0.00000000
                                                     2        0.7000000       -4.57051794    0.00000000
                                                     2        1.6000000       18.53737826    0.00000000
    7          1            1
                                      F and up 
                                                     0        0.0000010        0.00072061    0.00000000
                                                     2        0.1200000        0.03832357    0.00000000
                                                     2        0.1400000       -0.08683256    0.00000000
                                                     2        0.1800000        0.09312970    0.00000000
                                                     2        0.2800000       -0.02532572    0.00000000
                                                     2        0.4000000       -0.09430787    0.00000000
                                                     2        0.7000000        0.42710831    0.00000000
                                                     2        1.2000000       -2.11746981    0.00000000
                                      S - F
                                                     0        0.0000010        0.14449603    0.00000000
                                                     2        0.1200000       -0.56378993    0.00000000
                                                     2        0.1400000        0.63941249    0.00000000
                                                     2        0.2600000       -0.58461015    0.00000000
                                                     2        0.5000000        1.00157293    0.00000000
                                                     2        1.8000000       -0.14135838    0.00000000
                                      P - F
                                                     0        0.0000010       -0.09353646    0.00000000
                                                     2        0.1200000        0.31768975    0.00000000
                                                     2        0.2000000       -0.71747951    0.00000000
                                                     2        0.4000000        0.65752308    0.00000000
                                                     2        1.7000000        2.94052587    0.00000000
                                      D - F
                                                     0        0.0000010       -0.04491202    0.00000000
                                                     2        0.1200000       -0.02862031    0.00000000
                                                     2        0.1800000       -0.21515263    0.00000000
                                                     2        0.3000000        0.80560647    0.00000000
                                                     2        0.4000000        0.47351754    0.00000000
                                                     2        0.7000000       -4.57051794    0.00000000
                                                     2        1.6000000       18.53737826    0.00000000
    8          6            6
                                      G and up 
                                                     0        0.0000010       -0.00286759    0.00000000
                                                     2        0.1200000        0.03193960    0.00000000
                                                     2        0.1600000       -0.04027782    0.00000000
                                                     2        0.2600000        0.24782456    0.00000000
                                                     2        0.4000000       -0.62266671    0.00000000
                                                     2        0.7000000        0.35695227    0.00000000
                                      S - G
                                                     0        0.0000010       -0.06602313    0.00000000
                                                     2        0.1200000        1.47277455    0.00000000
                                                     2        0.1600000       -4.06924166    0.00000000
                                                     2        0.3000000        5.02952802    0.00000000
                                                     2        0.7000000       -5.65856978    0.00000000
                                                     2        1.7000000        8.57604414    0.00000000
                                      P - G
                                                     0        0.0000010        0.49434425    0.00000000
                                                     2        0.1200000       -1.37391547    0.00000000
                                                     2        0.1600000        3.65411806    0.00000000
                                                     2        0.2800000       -7.36479843    0.00000000
                                                     2        0.6000000       17.22091285    0.00000000
                                                     2        1.1000000      -23.50107827    0.00000000
                                                     2        3.0000000       16.29464063    0.00000000
                                      D - G
                                                     0        0.0000010       -0.28693103    0.00000000
                                                     2        0.1200000        0.12273044    0.00000000
                                                     2        0.3000000       -0.43416384    0.00000000
                                                     2        0.7000000        2.23358493    0.00000000
                                      F - G
                                                     0        0.0000010        0.07263570    0.00000000
                                                     2        0.1400000       -0.76152861    0.00000000
                                                     2        0.2200000        1.98045593    0.00000000
                                                     2        0.4000000       -2.42426427    0.00000000
                                                     2        0.7000000        0.52335237    0.00000000
    9          1            1
                                      F and up 
                                                     0        0.0000010        0.00072061    0.00000000
                                                     2        0.1200000        0.03832357    0.00000000
                                                     2        0.1400000       -0.08683256    0.00000000
                                                     2        0.1800000        0.09312970    0.00000000
                                                     2        0.2800000       -0.02532572    0.00000000
                                                     2        0.4000000       -0.09430787    0.00000000
                                                     2        0.7000000        0.42710831    0.00000000
                                                     2        1.2000000       -2.11746981    0.00000000
                                      S - F
                                                     0        0.0000010        0.14449603    0.00000000
                                                     2        0.1200000       -0.56378993    0.00000000
                                                     2        0.1400000        0.63941249    0.00000000
                                                     2        0.2600000       -0.58461015    0.00000000
                                                     2        0.5000000        1.00157293    0.00000000
                                                     2        1.8000000       -0.14135838    0.00000000
                                      P - F
                                                     0        0.0000010       -0.09353646    0.00000000
                                                     2        0.1200000        0.31768975    0.00000000
                                                     2        0.2000000       -0.71747951    0.00000000
                                                     2        0.4000000        0.65752308    0.00000000
                                                     2        1.7000000        2.94052587    0.00000000
                                      D - F
                                                     0        0.0000010       -0.04491202    0.00000000
                                                     2        0.1200000       -0.02862031    0.00000000
                                                     2        0.1800000       -0.21515263    0.00000000
                                                     2        0.3000000        0.80560647    0.00000000
                                                     2        0.4000000        0.47351754    0.00000000
                                                     2        0.7000000       -4.57051794    0.00000000
                                                     2        1.6000000       18.53737826    0.00000000
   10          1            1
                                      F and up 
                                                     0        0.0000010        0.00072061    0.00000000
                                                     2        0.1200000        0.03832357    0.00000000
                                                     2        0.1400000       -0.08683256    0.00000000
                                                     2        0.1800000        0.09312970    0.00000000
                                                     2        0.2800000       -0.02532572    0.00000000
                                                     2        0.4000000       -0.09430787    0.00000000
                                                     2        0.7000000        0.42710831    0.00000000
                                                     2        1.2000000       -2.11746981    0.00000000
                                      S - F
                                                     0        0.0000010        0.14449603    0.00000000
                                                     2        0.1200000       -0.56378993    0.00000000
                                                     2        0.1400000        0.63941249    0.00000000
                                                     2        0.2600000       -0.58461015    0.00000000
                                                     2        0.5000000        1.00157293    0.00000000
                                                     2        1.8000000       -0.14135838    0.00000000
                                      P - F
                                                     0        0.0000010       -0.09353646    0.00000000
                                                     2        0.1200000        0.31768975    0.00000000
                                                     2        0.2000000       -0.71747951    0.00000000
                                                     2        0.4000000        0.65752308    0.00000000
                                                     2        1.7000000        2.94052587    0.00000000
                                      D - F
                                                     0        0.0000010       -0.04491202    0.00000000
                                                     2        0.1200000       -0.02862031    0.00000000
                                                     2        0.1800000       -0.21515263    0.00000000
                                                     2        0.3000000        0.80560647    0.00000000
                                                     2        0.4000000        0.47351754    0.00000000
                                                     2        0.7000000       -4.57051794    0.00000000
                                                     2        1.6000000       18.53737826    0.00000000
   11          6            6
                                      G and up 
                                                     0        0.0000010       -0.00286759    0.00000000
                                                     2        0.1200000        0.03193960    0.00000000
                                                     2        0.1600000       -0.04027782    0.00000000
                                                     2        0.2600000        0.24782456    0.00000000
                                                     2        0.4000000       -0.62266671    0.00000000
                                                     2        0.7000000        0.35695227    0.00000000
                                      S - G
                                                     0        0.0000010       -0.06602313    0.00000000
                                                     2        0.1200000        1.47277455    0.00000000
                                                     2        0.1600000       -4.06924166    0.00000000
                                                     2        0.3000000        5.02952802    0.00000000
                                                     2        0.7000000       -5.65856978    0.00000000
                                                     2        1.7000000        8.57604414    0.00000000
                                      P - G
                                                     0        0.0000010        0.49434425    0.00000000
                                                     2        0.1200000       -1.37391547    0.00000000
                                                     2        0.1600000        3.65411806    0.00000000
                                                     2        0.2800000       -7.36479843    0.00000000
                                                     2        0.6000000       17.22091285    0.00000000
                                                     2        1.1000000      -23.50107827    0.00000000
                                                     2        3.0000000       16.29464063    0.00000000
                                      D - G
                                                     0        0.0000010       -0.28693103    0.00000000
                                                     2        0.1200000        0.12273044    0.00000000
                                                     2        0.3000000       -0.43416384    0.00000000
                                                     2        0.7000000        2.23358493    0.00000000
                                      F - G
                                                     0        0.0000010        0.07263570    0.00000000
                                                     2        0.1400000       -0.76152861    0.00000000
                                                     2        0.2200000        1.98045593    0.00000000
                                                     2        0.4000000       -2.42426427    0.00000000
                                                     2        0.7000000        0.52335237    0.00000000
   12          1            1
                                      F and up 
                                                     0        0.0000010        0.00072061    0.00000000
                                                     2        0.1200000        0.03832357    0.00000000
                                                     2        0.1400000       -0.08683256    0.00000000
                                                     2        0.1800000        0.09312970    0.00000000
                                                     2        0.2800000       -0.02532572    0.00000000
                                                     2        0.4000000       -0.09430787    0.00000000
                                                     2        0.7000000        0.42710831    0.00000000
                                                     2        1.2000000       -2.11746981    0.00000000
                                      S - F
                                                     0        0.0000010        0.14449603    0.00000000
                                                     2        0.1200000       -0.56378993    0.00000000
                                                     2        0.1400000        0.63941249    0.00000000
                                                     2        0.2600000       -0.58461015    0.00000000
                                                     2        0.5000000        1.00157293    0.00000000
                                                     2        1.8000000       -0.14135838    0.00000000
                                      P - F
                                                     0        0.0000010       -0.09353646    0.00000000
                                                     2        0.1200000        0.31768975    0.00000000
                                                     2        0.2000000       -0.71747951    0.00000000
                                                     2        0.4000000        0.65752308    0.00000000
                                                     2        1.7000000        2.94052587    0.00000000
                                      D - F
                                                     0        0.0000010       -0.04491202    0.00000000
                                                     2        0.1200000       -0.02862031    0.00000000
                                                     2        0.1800000       -0.21515263    0.00000000
                                                     2        0.3000000        0.80560647    0.00000000
                                                     2        0.4000000        0.47351754    0.00000000
                                                     2        0.7000000       -4.57051794    0.00000000
                                                     2        1.6000000       18.53737826    0.00000000
   13          1            1
                                      F and up 
                                                     0        0.0000010        0.00072061    0.00000000
                                                     2        0.1200000        0.03832357    0.00000000
                                                     2        0.1400000       -0.08683256    0.00000000
                                                     2        0.1800000        0.09312970    0.00000000
                                                     2        0.2800000       -0.02532572    0.00000000
                                                     2        0.4000000       -0.09430787    0.00000000
                                                     2        0.7000000        0.42710831    0.00000000
                                                     2        1.2000000       -2.11746981    0.00000000
                                      S - F
                                                     0        0.0000010        0.14449603    0.00000000
                                                     2        0.1200000       -0.56378993    0.00000000
                                                     2        0.1400000        0.63941249    0.00000000
                                                     2        0.2600000       -0.58461015    0.00000000
                                                     2        0.5000000        1.00157293    0.00000000
                                                     2        1.8000000       -0.14135838    0.00000000
                                      P - F
                                                     0        0.0000010       -0.09353646    0.00000000
                                                     2        0.1200000        0.31768975    0.00000000
                                                     2        0.2000000       -0.71747951    0.00000000
                                                     2        0.4000000        0.65752308    0.00000000
                                                     2        1.7000000        2.94052587    0.00000000
                                      D - F
                                                     0        0.0000010       -0.04491202    0.00000000
                                                     2        0.1200000       -0.02862031    0.00000000
                                                     2        0.1800000       -0.21515263    0.00000000
                                                     2        0.3000000        0.80560647    0.00000000
                                                     2        0.4000000        0.47351754    0.00000000
                                                     2        0.7000000       -4.57051794    0.00000000
                                                     2        1.6000000       18.53737826    0.00000000
   14          1            1
                                      F and up 
                                                     0        0.0000010        0.00072061    0.00000000
                                                     2        0.1200000        0.03832357    0.00000000
                                                     2        0.1400000       -0.08683256    0.00000000
                                                     2        0.1800000        0.09312970    0.00000000
                                                     2        0.2800000       -0.02532572    0.00000000
                                                     2        0.4000000       -0.09430787    0.00000000
                                                     2        0.7000000        0.42710831    0.00000000
                                                     2        1.2000000       -2.11746981    0.00000000
                                      S - F
                                                     0        0.0000010        0.14449603    0.00000000
                                                     2        0.1200000       -0.56378993    0.00000000
                                                     2        0.1400000        0.63941249    0.00000000
                                                     2        0.2600000       -0.58461015    0.00000000
                                                     2        0.5000000        1.00157293    0.00000000
                                                     2        1.8000000       -0.14135838    0.00000000
                                      P - F
                                                     0        0.0000010       -0.09353646    0.00000000
                                                     2        0.1200000        0.31768975    0.00000000
                                                     2        0.2000000       -0.71747951    0.00000000
                                                     2        0.4000000        0.65752308    0.00000000
                                                     2        1.7000000        2.94052587    0.00000000
                                      D - F
                                                     0        0.0000010       -0.04491202    0.00000000
                                                     2        0.1200000       -0.02862031    0.00000000
                                                     2        0.1800000       -0.21515263    0.00000000
                                                     2        0.3000000        0.80560647    0.00000000
                                                     2        0.4000000        0.47351754    0.00000000
                                                     2        0.7000000       -4.57051794    0.00000000
                                                     2        1.6000000       18.53737826    0.00000000
   15         16           16
                                      G and up 
                                                     0        0.0000010       -0.00444167    0.00000000
                                                     2        0.1200000        0.11677988    0.00000000
                                                     2        0.1400000       -0.22050378    0.00000000
                                                     2        0.1800000        0.26452031    0.00000000
                                                     2        0.2800000       -0.04353316    0.00000000
                                                     2        0.5000000       -1.18567514    0.00000000
                                      S - G
                                                     0        0.0000010        0.03992419    0.00000000
                                                     2        0.1200000       -0.56926432    0.00000000
                                                     2        0.3000000        0.88393965    0.00000000
                                      P - G
                                                     0        0.0000010       -0.92181603    0.00000000
                                                     2        0.1200000        1.30681810    0.00000000
                                                     2        0.2000000       -1.50828653    0.00000000
                                                     2        0.2400000       -2.25148793    0.00000000
                                                     2        0.6000000       10.10218731    0.00000000
                                      D - G
                                                     0        0.0000010        0.72039481    0.00000000
                                                     2        0.1200000       -0.56105075    0.00000000
                                                     2        0.2000000        0.42910414    0.00000000
                                                     2        0.8000000        0.44203418    0.00000000
                                      F - G
                                                     2        0.1200000       -0.62623060    0.00000000
                                                     2        0.1800000        0.89777932    0.00000000
                                                     2        0.5000000       -1.32991832    0.00000000
   16          8            8
                                      G and up 
                                                     0        0.0000010       -0.00165251    0.00000000
                                                     2        0.1200000       -0.10937202    0.00000000
                                                     2        0.1400000        0.35668905    0.00000000
                                                     2        0.1800000       -0.51696033    0.00000000
                                                     2        0.2400000        0.52446472    0.00000000
                                                     2        0.4000000       -0.07754493    0.00000000
                                                     2        0.8000000       -1.90560988    0.00000000
                                                     2        1.7000000        0.19857963    0.00000000
                                      S - G
                                                     0        0.0000010       -0.03845181    0.00000000
                                                     2        0.1400000        0.42024558    0.00000000
                                                     2        0.4000000       -4.10467779    0.00000000
                                                     2        1.3000000        9.99571838    0.00000000
                                      P - G
                                                     0        0.0000010        0.33206183    0.00000000
                                                     2        0.1200000       -0.18708141    0.00000000
                                                     2        0.2800000       -0.18179081    0.00000000
                                                     2        0.7000000        1.18820394    0.00000000
                                      D - G
                                                     0        0.0000010       -0.57891674    0.00000000
                                                     2        0.1200000        0.60487490    0.00000000
                                                     2        0.2400000       -0.24931464    0.00000000
                                                     2        0.3000000       -2.75054612    0.00000000
                                                     2        1.0000000       15.96776040    0.00000000
                                      F - G
                                                     0        0.0000010        0.37449041    0.00000000
                                                     2        0.1200000       -0.63373642    0.00000000
                                                     2        0.1400000       -0.08412804    0.00000000
                                                     2        0.2800000        2.62321406    0.00000000
                                                     2        0.6000000       -2.68223623    0.00000000
 ======================================================================================================
   232 basis functions,   406 primitive gaussians,   244 cartesian basis functions
    29 alpha electrons       29 beta electrons
       nuclear repulsion energy       324.7609939357 Hartrees.
 NAtoms=   16 NActive=   16 NUniq=   16 SFac= 1.00D+00 NAtFMM=   60 NAOKFM=F Big=F
   1 Symmetry operations used in ECPInt.
 ECPInt:  NShTT=    5671 NPrTT=   26483 LenC2=    5660 LenP2D=   20687.
 LDataN:  DoStor=T MaxTD1= 6 Len=  172
 Initial guess from the checkpoint file:  "FH51_10_mol3.chk"
 B after Tr=     1.702565   -0.049606   -0.278054
         Rot=   -0.228619    0.925343   -0.293666    0.072353 Ang= 206.43 deg.
 >>>>>>>>>> Convergence criterion not met.
 SCF Done:  E(RHF) =  -631.040827897     A.U. after    2 cycles
            NFock=  1  Conv=0.19D+00     -V/T= 1.9972

 **********************************************************************

            Population analysis using the SCF Density.

 **********************************************************************

 Orbital symmetries:
       Occupied  (A) (A) (A) (A) (A) (A) (A) (A) (A) (A) (A) (A)
                 (A) (A) (A) (A) (A) (A) (A) (A) (A) (A) (A) (A)
                 (A) (A) (A) (A) (A)
       Virtual   (A) (A) (A) (A) (A) (A) (A) (A) (A) (A) (A) (A)
                 (A) (A) (A) (A) (A) (A) (A) (A) (A) (A) (A) (A)
                 (A) (A) (A) (A) (A) (A) (A) (A) (A) (A) (A) (A)
                 (A) (A) (A) (A) (A) (A) (A) (A) (A) (A) (A) (A)
                 (A) (A) (A) (A) (A) (A) (A) (A) (A) (A) (A) (A)
                 (A) (A) (A) (A) (A) (A) (A) (A) (A) (A) (A) (A)
                 (A) (A) (A) (A) (A) (A) (A) (A) (A) (A) (A) (A)
                 (A) (A) (A) (A) (A) (A) (A) (A) (A) (A) (A) (A)
                 (A) (A) (A) (A) (A) (A) (A) (A) (A) (A) (A) (A)
                 (A) (A) (A) (A) (A) (A) (A) (A) (A) (A) (A) (A)
                 (A) (A) (A) (A) (A) (A) (A) (A) (A) (A) (A) (A)
                 (A) (A) (A) (A) (A) (A) (A) (A) (A) (A) (A) (A)
                 (A) (A) (A) (A) (A) (A) (A) (A) (A) (A) (A) (A)
                 (A) (A) (A) (A) (A) (A) (A) (A) (A) (A) (A) (A)
                 (A) (A) (A) (A) (A) (A) (A) (A) (A) (A) (A) (A)
                 (A) (A) (A) (A) (A) (A) (A) (A) (A) (A) (A) (A)
                 (A) (A) (A) (A) (A) (A) (A) (A) (A) (A) (A)
 The electronic state is 1-A.
 Alpha  occ. eigenvalues --  -75.77225 -20.99091 -13.31969 -13.22822 -13.15938
 Alpha  occ. eigenvalues --  -11.43170 -11.42099 -11.37922 -11.37619  -8.11495
 Alpha  occ. eigenvalues --   -1.67320  -1.24007  -1.15908  -1.01178  -0.90164
 Alpha  occ. eigenvalues --   -0.83974  -0.65617  -0.63230  -0.62697  -0.57682
 Alpha  occ. eigenvalues --   -0.55466  -0.52023  -0.50614  -0.50100  -0.45074
 Alpha  occ. eigenvalues --   -0.44856  -0.36654  -0.31420  -0.24893
 Alpha virt. eigenvalues --    0.03560   0.03693   0.05026   0.05160   0.06238
 Alpha virt. eigenvalues --    0.06450   0.07158   0.07516   0.08029   0.09064
 Alpha virt. eigenvalues --    0.10201   0.11621   0.12776   0.13203   0.14544
 Alpha virt. eigenvalues --    0.14784   0.15109   0.15204   0.16458   0.18047
 Alpha virt. eigenvalues --    0.18179   0.19021   0.19753   0.19982   0.20812
 Alpha virt. eigenvalues --    0.21572   0.21846   0.22843   0.24019   0.25987
 Alpha virt. eigenvalues --    0.26559   0.26958   0.27477   0.28612   0.28722
 Alpha virt. eigenvalues --    0.30004   0.31801   0.32084   0.32614   0.34189
 Alpha virt. eigenvalues --    0.36068   0.36581   0.37439   0.37579   0.39579
 Alpha virt. eigenvalues --    0.39607   0.41029   0.42203   0.43786   0.45518
 Alpha virt. eigenvalues --    0.45639   0.46245   0.46774   0.46905   0.48349
 Alpha virt. eigenvalues --    0.48950   0.49196   0.50250   0.50629   0.51760
 Alpha virt. eigenvalues --    0.51991   0.52191   0.52811   0.53507   0.54678
 Alpha virt. eigenvalues --    0.55296   0.56115   0.57435   0.58551   0.58968
 Alpha virt. eigenvalues --    0.60843   0.61472   0.62575   0.63979   0.65066
 Alpha virt. eigenvalues --    0.65186   0.66602   0.66776   0.69040   0.69547
 Alpha virt. eigenvalues --    0.70659   0.72957   0.73421   0.73535   0.73927
 Alpha virt. eigenvalues --    0.75060   0.76361   0.76528   0.77092   0.79116
 Alpha virt. eigenvalues --    0.79822   0.80516   0.81856   0.85687   0.86131
 Alpha virt. eigenvalues --    0.87935   0.88480   0.90752   0.91466   0.92709
 Alpha virt. eigenvalues --    0.93420   0.94558   0.99178   1.02122   1.11231
 Alpha virt. eigenvalues --    1.12168   1.13687   1.15772   1.17808   1.22626
 Alpha virt. eigenvalues --    1.23586   1.23888   1.26961   1.29459   1.30401
 Alpha virt. eigenvalues --    1.31678   1.33694   1.35533   1.38214   1.39206
 Alpha virt. eigenvalues --    1.39473   1.44362   1.48393   1.49939   1.51807
 Alpha virt. eigenvalues --    1.57308   1.59751   1.63897   1.65042   1.67136
 Alpha virt. eigenvalues --    1.74553   1.75096   1.77537   1.80300   1.83276
 Alpha virt. eigenvalues --    1.85789   1.86042   1.92066   1.92898   1.96186
 Alpha virt. eigenvalues --    1.98188   2.01020   2.01436   2.02629   2.05280
 Alpha virt. eigenvalues --    2.06269   2.09446   2.12152   2.12723   2.14493
 Alpha virt. eigenvalues --    2.16154   2.16372   2.18454   2.19660   2.23158
 Alpha virt. eigenvalues --    2.24322   2.31357   2.34754   2.34811   2.40029
 Alpha virt. eigenvalues --    2.41347   2.47482   2.51151   2.51465   2.54955
 Alpha virt. eigenvalues --    2.56451   2.57149   2.58360   2.61243   2.61639
 Alpha virt. eigenvalues --    2.63362   2.64176   2.66725   2.69625   2.71481
 Alpha virt. eigenvalues --    2.75502   2.79389   2.80356   2.84903   2.86852
 Alpha virt. eigenvalues --    2.91380   2.94343   2.97544   2.99602   3.01764
 Alpha virt. eigenvalues --    3.09399   3.15210   3.26636   3.28534   3.41789
 Alpha virt. eigenvalues --    3.42624   3.52806   3.55897   3.56301   3.73008
 Alpha virt. eigenvalues --    3.74101   3.81136   3.83869   6.06052   6.07281
 Alpha virt. eigenvalues --    6.09454   6.14273   6.14698
          Condensed to atoms (all electrons):
 Mulliken charges:
               1
     1  C   -3.604980
     2  H    1.502489
     3  H    1.525680
     4  C   -3.845502
     5  H    1.359178
     6  H    1.072838
     7  H    1.308269
     8  C   -3.614682
     9  H    1.496851
    10  H    1.528423
    11  C   -3.838858
    12  H    1.311625
    13  H    1.073382
    14  H    1.361918
    15  S    3.712287
    16  O   -2.348919
 Sum of Mulliken charges =   0.00000
 Mulliken charges with hydrogens summed into heavy atoms:
               1
     1  C   -0.576811
     4  C   -0.105217
     8  C   -0.589408
    11  C   -0.091933
    15  S    3.712287
    16  O   -2.348919
 Electronic spatial extent (au):  <R**2>=            924.8181
 Charge=             -0.0000 electrons
 Dipole moment (field-independent basis, Debye):
    X=              0.0128    Y=             -1.4231    Z=             -0.7619  Tot=              1.6142

 Test job not archived.
 1\1\GINC-SE339\SP\RHF\Aug-CC-pVDZ\C4H10O1S1\OHZDE\09-Apr-2025\0\\#t hf
  aug-cc-pvdz iop(5/13=1,5/36=2,99/5=2) pseudo=read geom=check guess=(r
 ead,tcheck) scf=(maxcycle=1)\\title\\0,1\C,0,0.87780338,0.42478559,0.0
 3193616\H,0,1.08605893,1.03733057,-0.85843079\H,0,1.16859595,0.9861781
 5,0.93384343\C,0,1.55908788,-0.93664584,-0.04637343\H,0,1.19733591,-1.
 49773979,-0.91835533\H,0,2.64673878,-0.81388699,-0.14475442\H,0,1.3649
 1039,-1.53623726,0.85419022\C,0,-1.36135175,2.00896883,0.04737956\H,0,
 -0.84386836,2.42062089,-0.8323886\H,0,-0.94105295,2.4604961,0.95957761
 \C,0,-2.87150316,2.19395344,-0.04698002\H,0,-3.38165975,1.80009641,0.8
 4359686\H,0,-3.12056465,3.26046565,-0.13782768\H,0,-3.26719816,1.67303
 588,-0.92901529\S,0,-0.95293143,0.21143261,0.10803142\O,0,-1.3838175,-
 0.38044062,-1.20709898\\Version=ES64L-G16RevC.01\State=1-A\HF=-631.040
 8279\RMSD=1.894e-01\Dipole=0.2094817,0.2877843,0.525964\Quadrupole=1.1
 083613,0.084321,-1.1926823,-1.4539185,-0.5828416,-0.7963235\PG=C01 [X(
 C4H10O1S1)]\\@


 SUPPORT THE RIGHT TO ARM BEARS!
 (ADD A CLAWS TO THE BILL OF RIGHTS)
 Job cpu time:       0 days  0 hours  1 minutes  6.9 seconds.
 Elapsed time:       0 days  0 hours  0 minutes  5.0 seconds.
 File lengths (MBytes):  RWF=     10 Int=      0 D2E=      0 Chk=      8 Scr=      1
 Normal termination of Gaussian 16 at Wed Apr  9 03:04:05 2025.
