 Entering Gaussian System, Link 0=g16
 Input=Grambow2020_wb97xd3_006100_reverse_mol2.gjf
 Output=Grambow2020_wb97xd3_006100_reverse_mol2.log
 Initial command:
 /arc/software/Gaussian/g16.c01/l1.exe "/tmp/slurm/4863028/Gau-3774475.inp" -scrdir="/tmp/slurm/4863028/"
 Entering Link 1 = /arc/software/Gaussian/g16.c01/l1.exe PID=   3774476.
  
 Copyright (c) 1988-2019, Gaussian, Inc.  All Rights Reserved.
  
 This is part of the Gaussian(R) 16 program.  It is based on
 the Gaussian(R) 09 system (copyright 2009, Gaussian, Inc.),
 the Gaussian(R) 03 system (copyright 2003, Gaussian, Inc.),
 the Gaussian(R) 98 system (copyright 1998, Gaussian, Inc.),
 the Gaussian(R) 94 system (copyright 1995, Gaussian, Inc.),
 the Gaussian 92(TM) system (copyright 1992, Gaussian, Inc.),
 the Gaussian 90(TM) system (copyright 1990, Gaussian, Inc.),
 the Gaussian 88(TM) system (copyright 1988, Gaussian, Inc.),
 the Gaussian 86(TM) system (copyright 1986, Carnegie Mellon
 University), and the Gaussian 82(TM) system (copyright 1983,
 Carnegie Mellon University). Gaussian is a federally registered
 trademark of Gaussian, Inc.
  
 This software contains proprietary and confidential information,
 including trade secrets, belonging to Gaussian, Inc.
  
 This software is provided under written license and may be
 used, copied, transmitted, or stored only in accord with that
 written license.
  
 The following legend is applicable only to US Government
 contracts under FAR:
  
                    RESTRICTED RIGHTS LEGEND
  
 Use, reproduction and disclosure by the US Government is
 subject to restrictions as set forth in subparagraphs (a)
 and (c) of the Commercial Computer Software - Restricted
 Rights clause in FAR 52.227-19.
  
 Gaussian, Inc.
 340 Quinnipiac St., Bldg. 40, Wallingford CT 06492
  
  
 ---------------------------------------------------------------
 Warning -- This program may not be used in any manner that
 competes with the business of Gaussian, Inc. or will provide
 assistance to any competitor of Gaussian, Inc.  The licensee
 of this program is prohibited from giving any competitor of
 Gaussian, Inc. access to this program.  By using this program,
 the user acknowledges that Gaussian, Inc. is engaged in the
 business of creating and licensing software in the field of
 computational chemistry and represents and warrants to the
 licensee that it is not a competitor of Gaussian, Inc. and that
 it will not use this program in any manner prohibited above.
 ---------------------------------------------------------------
  

 Cite this work as:
 Gaussian 16, Revision C.01,
 M. J. Frisch, G. W. Trucks, H. B. Schlegel, G. E. Scuseria, 
 M. A. Robb, J. R. Cheeseman, G. Scalmani, V. Barone, 
 G. A. Petersson, H. Nakatsuji, X. Li, M. Caricato, A. V. Marenich, 
 J. Bloino, B. G. Janesko, R. Gomperts, B. Mennucci, H. P. Hratchian, 
 J. V. Ortiz, A. F. Izmaylov, J. L. Sonnenberg, D. Williams-Young, 
 F. Ding, F. Lipparini, F. Egidi, J. Goings, B. Peng, A. Petrone, 
 T. Henderson, D. Ranasinghe, V. G. Zakrzewski, J. Gao, N. Rega, 
 G. Zheng, W. Liang, M. Hada, M. Ehara, K. Toyota, R. Fukuda, 
 J. Hasegawa, M. Ishida, T. Nakajima, Y. Honda, O. Kitao, H. Nakai, 
 T. Vreven, K. Throssell, J. A. Montgomery, Jr., J. E. Peralta, 
 F. Ogliaro, M. J. Bearpark, J. J. Heyd, E. N. Brothers, K. N. Kudin, 
 V. N. Staroverov, T. A. Keith, R. Kobayashi, J. Normand, 
 K. Raghavachari, A. P. Rendell, J. C. Burant, S. S. Iyengar, 
 J. Tomasi, M. Cossi, J. M. Millam, M. Klene, C. Adamo, R. Cammi, 
 J. W. Ochterski, R. L. Martin, K. Morokuma, O. Farkas, 
 J. B. Foresman, and D. J. Fox, Gaussian, Inc., Wallingford CT, 2019.
 
 ******************************************
 Gaussian 16:  ES64L-G16RevC.01  3-Jul-2019
                 9-Apr-2025 
 ******************************************
 %nprocs=16
 Will use up to   16 processors via shared memory.
 %mem=30GB
 %chk=Grambow2020_wb97xd3_006100_reverse_mol2.chk
 ----------------------------------------------------------------------
 #t hf aug-cc-pvdz symm=none int=(grid=ultrafine) guess=(read,tcheck) s
 table=(opt,rrhf)
 ----------------------------------------------------------------------
 -----
 title
 -----
 Symbolic Z-matrix:
 Charge =  0 Multiplicity = 1
 C                    -1.13535   0.28622   0.0121 
 C                     0.13643  -0.45574  -0.39389 
 C                     1.33307   0.03803   0.37069 
 O                     2.08413  -0.65531   0.99873 
 H                    -1.97978  -0.03131  -0.59963 
 H                    -1.02254   1.36561  -0.11275 
 H                    -1.38527   0.09285   1.0567 
 H                     0.04673  -1.53223  -0.24349 
 H                     0.34063  -0.27867  -1.45625 
 H                     1.49288   1.13883   0.32682 
 
                    Distance matrix (angstroms):
                    1          2          3          4          5
     1  C    0.000000
     2  C    1.527335   0.000000
     3  C    2.506650   1.503439   0.000000
     4  O    3.496419   2.402649   1.199681   0.000000
     5  H    1.090002   2.168138   3.452727   4.411289   0.000000
     6  H    1.092423   2.177051   2.746831   3.869219   1.762028
     7  H    1.091350   2.172727   2.804108   3.549625   1.764172
     8  H    2.183889   1.090636   2.120752   2.542259   2.546824
     9  H    2.157235   1.096201   2.103072   3.034554   2.485817
    10  H    2.780930   2.214050   1.113204   2.004984   3.779802
                    6          7          8          9         10
     6  H    0.000000
     7  H    1.766093   0.000000
     8  H    3.091577   2.526261   0.000000
     9  H    2.523266   3.071104   1.768773   0.000000
    10  H    2.563586   3.148099   3.090491   2.552706   0.000000
 Symmetry turned off by external request.
 Rotational constants (GHZ):          26.1987725           4.3457606           4.1825500
   146 basis functions,   238 primitive gaussians,   154 cartesian basis functions
    16 alpha electrons       16 beta electrons
       nuclear repulsion energy       116.9357520861 Hartrees.
 NAtoms=   10 NActive=   10 NUniq=   10 SFac= 1.00D+00 NAtFMM=   60 NAOKFM=F Big=F
 ExpMin= 2.97D-02 ExpMax= 1.17D+04 ExpMxC= 4.01D+02 IAcc=3 IRadAn=         5 AccDes= 0.00D+00
 Harris functional with IExCor=  205 and IRadAn=       5 diagonalized for initial guess.
 HarFok:  IExCor=  205 AccDes= 0.00D+00 IRadAn=         5 IDoV= 1 UseB2=F ITyADJ=14
 ICtDFT=  3500011 ScaDFX=  1.000000  1.000000  1.000000  1.000000
 FoFCou: FMM=F IPFlag=           0 FMFlag=      100000 FMFlg1=           0
         NFxFlg=           0 DoJE=T BraDBF=F KetDBF=T FulRan=T
         wScrn=  0.000000 ICntrl=       500 IOpCl=  0 I1Cent=   200000004 NGrid=           0
         NMat0=    1 NMatS0=      1 NMatT0=    0 NMatD0=    1 NMtDS0=    0 NMtDT0=    0
 Symmetry not used in FoFCou.
 SCF Done:  E(RHF) =  -191.977411248     A.U. after   14 cycles
            NFock= 14  Conv=0.63D-08     -V/T= 2.0012

 **********************************************************************

            Population analysis using the SCF Density.

 **********************************************************************

 Alpha  occ. eigenvalues --  -20.56869 -11.33932 -11.24947 -11.24413  -1.40412
 Alpha  occ. eigenvalues --   -1.07125  -0.90601  -0.79393  -0.67445  -0.64302
 Alpha  occ. eigenvalues --   -0.61675  -0.56686  -0.54310  -0.51647  -0.49637
 Alpha  occ. eigenvalues --   -0.41769
 Alpha virt. eigenvalues --    0.03249   0.04438   0.04645   0.05643   0.07203
 Alpha virt. eigenvalues --    0.07525   0.10175   0.10906   0.12258   0.14222
 Alpha virt. eigenvalues --    0.15140   0.15392   0.15928   0.16502   0.17039
 Alpha virt. eigenvalues --    0.17701   0.18534   0.20802   0.22104   0.24989
 Alpha virt. eigenvalues --    0.28164   0.29896   0.30773   0.32393   0.33326
 Alpha virt. eigenvalues --    0.34063   0.35515   0.37155   0.37205   0.39369
 Alpha virt. eigenvalues --    0.40348   0.43747   0.44134   0.44406   0.46164
 Alpha virt. eigenvalues --    0.46563   0.48165   0.49048   0.50723   0.53633
 Alpha virt. eigenvalues --    0.54928   0.55800   0.57644   0.57991   0.60001
 Alpha virt. eigenvalues --    0.60215   0.61270   0.63981   0.64518   0.66919
 Alpha virt. eigenvalues --    0.67236   0.68882   0.70797   0.71081   0.73175
 Alpha virt. eigenvalues --    0.73651   0.76462   0.79699   0.80617   0.81726
 Alpha virt. eigenvalues --    0.83029   0.89546   0.91545   0.92326   0.97624
 Alpha virt. eigenvalues --    0.99345   1.01060   1.07594   1.08273   1.10142
 Alpha virt. eigenvalues --    1.16289   1.20113   1.21479   1.25314   1.27217
 Alpha virt. eigenvalues --    1.30170   1.31560   1.33416   1.39526   1.44849
 Alpha virt. eigenvalues --    1.47022   1.48931   1.54627   1.57393   1.58266
 Alpha virt. eigenvalues --    1.69789   1.74969   1.78327   1.81277   1.86451
 Alpha virt. eigenvalues --    1.89517   1.90635   1.92623   1.95339   1.97461
 Alpha virt. eigenvalues --    1.98292   2.04730   2.08815   2.11504   2.12004
 Alpha virt. eigenvalues --    2.15902   2.20183   2.21028   2.23707   2.26475
 Alpha virt. eigenvalues --    2.32341   2.34879   2.35666   2.42386   2.48164
 Alpha virt. eigenvalues --    2.50882   2.52694   2.62535   2.67068   2.68859
 Alpha virt. eigenvalues --    2.73396   2.80993   2.85225   2.89819   2.93029
 Alpha virt. eigenvalues --    2.99844   3.05937   3.10740   3.20376   3.38737
 Alpha virt. eigenvalues --    3.74748   3.77760   3.79953   3.94853   4.13845
          Condensed to atoms (all electrons):
 Mulliken charges:
               1
     1  C    0.326950
     2  C   -0.065512
     3  C    0.785106
     4  O   -0.663818
     5  H   -0.083912
     6  H   -0.076596
     7  H   -0.056338
     8  H   -0.097859
     9  H    0.022908
    10  H   -0.090929
 Sum of Mulliken charges =  -0.00000
 Mulliken charges with hydrogens summed into heavy atoms:
               1
     1  C    0.110105
     2  C   -0.140464
     3  C    0.694177
     4  O   -0.663818
 Electronic spatial extent (au):  <R**2>=            372.5003
 Charge=             -0.0000 electrons
 Dipole moment (field-independent basis, Debye):
    X=             -2.4162    Y=              1.4497    Z=             -1.7779  Tot=              3.3318
 NROrb=    146 NOA=    16 NOB=    16 NVA=   130 NVB=   130

 **** Warning!!: The largest alpha MO coefficient is  0.32116679D+02

    12 initial guesses have been made.
 Iteration     1 Dimension    12 NMult     0 NNew     12
 Iteration     2 Dimension    24 NMult    12 NNew     12
 Iteration     3 Dimension    27 NMult    24 NNew      3
 Iteration     4 Dimension    30 NMult    27 NNew      3
 Iteration     5 Dimension    33 NMult    30 NNew      3
 Iteration     6 Dimension    36 NMult    33 NNew      3
 ***********************************************************************
 Stability analysis using <AA,BB:AA,BB> singles matrix:
 ***********************************************************************
 Ground to excited state transition densities written to RWF  633

 Eigenvectors of the stability matrix:
 
 Excited state symmetry could not be determined.
 Eigenvector   1:      Singlet-?Sym  Eigenvalue= 0.1865613  <S**2>=0.000
      16 -> 23         0.39543
      16 -> 26        -0.30170
      16 -> 27         0.25007
      16 -> 28        -0.17847
      16 -> 30         0.12956
      16 -> 32         0.18663
      16 -> 34        -0.12650
 The wavefunction is stable under the perturbations considered.
 The wavefunction is already stable.

 **********************************************************************

            Population analysis using the SCF Density.

 **********************************************************************

 Alpha  occ. eigenvalues --  -20.56869 -11.33932 -11.24947 -11.24413  -1.40412
 Alpha  occ. eigenvalues --   -1.07125  -0.90601  -0.79393  -0.67445  -0.64302
 Alpha  occ. eigenvalues --   -0.61675  -0.56686  -0.54310  -0.51647  -0.49637
 Alpha  occ. eigenvalues --   -0.41769
 Alpha virt. eigenvalues --    0.03249   0.04438   0.04645   0.05643   0.07203
 Alpha virt. eigenvalues --    0.07525   0.10175   0.10906   0.12258   0.14222
 Alpha virt. eigenvalues --    0.15140   0.15392   0.15928   0.16502   0.17039
 Alpha virt. eigenvalues --    0.17701   0.18534   0.20802   0.22104   0.24989
 Alpha virt. eigenvalues --    0.28164   0.29896   0.30773   0.32393   0.33326
 Alpha virt. eigenvalues --    0.34063   0.35515   0.37155   0.37205   0.39369
 Alpha virt. eigenvalues --    0.40348   0.43747   0.44134   0.44406   0.46164
 Alpha virt. eigenvalues --    0.46563   0.48165   0.49048   0.50723   0.53633
 Alpha virt. eigenvalues --    0.54928   0.55800   0.57644   0.57991   0.60001
 Alpha virt. eigenvalues --    0.60215   0.61270   0.63981   0.64518   0.66919
 Alpha virt. eigenvalues --    0.67236   0.68882   0.70797   0.71081   0.73175
 Alpha virt. eigenvalues --    0.73651   0.76462   0.79699   0.80617   0.81726
 Alpha virt. eigenvalues --    0.83029   0.89546   0.91545   0.92326   0.97624
 Alpha virt. eigenvalues --    0.99345   1.01060   1.07594   1.08273   1.10142
 Alpha virt. eigenvalues --    1.16289   1.20113   1.21479   1.25314   1.27217
 Alpha virt. eigenvalues --    1.30170   1.31560   1.33416   1.39526   1.44849
 Alpha virt. eigenvalues --    1.47022   1.48931   1.54627   1.57393   1.58266
 Alpha virt. eigenvalues --    1.69789   1.74969   1.78327   1.81277   1.86451
 Alpha virt. eigenvalues --    1.89517   1.90635   1.92623   1.95339   1.97461
 Alpha virt. eigenvalues --    1.98292   2.04730   2.08815   2.11504   2.12004
 Alpha virt. eigenvalues --    2.15902   2.20183   2.21028   2.23707   2.26475
 Alpha virt. eigenvalues --    2.32341   2.34879   2.35666   2.42386   2.48164
 Alpha virt. eigenvalues --    2.50882   2.52694   2.62535   2.67068   2.68859
 Alpha virt. eigenvalues --    2.73396   2.80993   2.85225   2.89819   2.93029
 Alpha virt. eigenvalues --    2.99844   3.05937   3.10740   3.20376   3.38737
 Alpha virt. eigenvalues --    3.74748   3.77760   3.79953   3.94853   4.13845
          Condensed to atoms (all electrons):
 Mulliken charges:
               1
     1  C    0.326950
     2  C   -0.065512
     3  C    0.785106
     4  O   -0.663818
     5  H   -0.083912
     6  H   -0.076596
     7  H   -0.056338
     8  H   -0.097859
     9  H    0.022908
    10  H   -0.090929
 Sum of Mulliken charges =  -0.00000
 Mulliken charges with hydrogens summed into heavy atoms:
               1
     1  C    0.110105
     2  C   -0.140464
     3  C    0.694177
     4  O   -0.663818
 Electronic spatial extent (au):  <R**2>=            372.5003
 Charge=             -0.0000 electrons
 Dipole moment (field-independent basis, Debye):
    X=             -2.4162    Y=              1.4497    Z=             -1.7779  Tot=              3.3318
 Unable to Open any file for archive entry.
 1\1\GINC-SE141\Stability\RHF\Aug-CC-pVDZ\C3H6O1\OHZDE\09-Apr-2025\0\\#
 t hf aug-cc-pvdz symm=none int=(grid=ultrafine) guess=(read,tcheck) st
 able=(opt,rrhf)\\title\\0,1\C,0,-1.13534993,0.28621847,0.01209902\C,0,
 0.13643107,-0.45574005,-0.39388656\C,0,1.33307277,0.03802818,0.3706859
 2\O,0,2.08412756,-0.65530754,0.9987276\H,0,-1.97978019,-0.03131286,-0.
 59963352\H,0,-1.02254012,1.36560506,-0.11274964\H,0,-1.38527196,0.0928
 5452,1.05670162\H,0,0.04672764,-1.53222545,-0.24348633\H,0,0.34063304,
 -0.27867231,-1.456245\H,0,1.49287711,1.138829,0.32682289\\Version=ES64
 L-G16RevC.01\HF=-191.9774112\RMSD=6.311e-09\Dipole=-0.9506092,0.570368
 1,-0.6994813\Quadrupole=-2.7239595,1.7581152,0.9658443,2.7095885,-3.08
 36633,1.2185955\PG=Unknown\\@
 The archive entry for this job was punched.


 GOORD'S AXIOM:  A MEETING IS AN EVENT AT WHICH
 THE MINUTES ARE KEPT AND THE HOURS ARE LOST.
 Job cpu time:       0 days  0 hours  0 minutes 46.3 seconds.
 Elapsed time:       0 days  0 hours  0 minutes  5.8 seconds.
 File lengths (MBytes):  RWF=    114 Int=      0 D2E=      0 Chk=      4 Scr=      1
 Normal termination of Gaussian 16 at Wed Apr  9 03:21:21 2025.
 Initial command:
 /arc/software/Gaussian/g16.c01/l1.exe "/tmp/slurm/4863028/Gau-3774475.inp" -scrdir="/tmp/slurm/4863028/"
 Entering Link 1 = /arc/software/Gaussian/g16.c01/l1.exe PID=   3774687.
  
 Copyright (c) 1988-2019, Gaussian, Inc.  All Rights Reserved.
  
 This is part of the Gaussian(R) 16 program.  It is based on
 the Gaussian(R) 09 system (copyright 2009, Gaussian, Inc.),
 the Gaussian(R) 03 system (copyright 2003, Gaussian, Inc.),
 the Gaussian(R) 98 system (copyright 1998, Gaussian, Inc.),
 the Gaussian(R) 94 system (copyright 1995, Gaussian, Inc.),
 the Gaussian 92(TM) system (copyright 1992, Gaussian, Inc.),
 the Gaussian 90(TM) system (copyright 1990, Gaussian, Inc.),
 the Gaussian 88(TM) system (copyright 1988, Gaussian, Inc.),
 the Gaussian 86(TM) system (copyright 1986, Carnegie Mellon
 University), and the Gaussian 82(TM) system (copyright 1983,
 Carnegie Mellon University). Gaussian is a federally registered
 trademark of Gaussian, Inc.
  
 This software contains proprietary and confidential information,
 including trade secrets, belonging to Gaussian, Inc.
  
 This software is provided under written license and may be
 used, copied, transmitted, or stored only in accord with that
 written license.
  
 The following legend is applicable only to US Government
 contracts under FAR:
  
                    RESTRICTED RIGHTS LEGEND
  
 Use, reproduction and disclosure by the US Government is
 subject to restrictions as set forth in subparagraphs (a)
 and (c) of the Commercial Computer Software - Restricted
 Rights clause in FAR 52.227-19.
  
 Gaussian, Inc.
 340 Quinnipiac St., Bldg. 40, Wallingford CT 06492
  
  
 ---------------------------------------------------------------
 Warning -- This program may not be used in any manner that
 competes with the business of Gaussian, Inc. or will provide
 assistance to any competitor of Gaussian, Inc.  The licensee
 of this program is prohibited from giving any competitor of
 Gaussian, Inc. access to this program.  By using this program,
 the user acknowledges that Gaussian, Inc. is engaged in the
 business of creating and licensing software in the field of
 computational chemistry and represents and warrants to the
 licensee that it is not a competitor of Gaussian, Inc. and that
 it will not use this program in any manner prohibited above.
 ---------------------------------------------------------------
  

 Cite this work as:
 Gaussian 16, Revision C.01,
 M. J. Frisch, G. W. Trucks, H. B. Schlegel, G. E. Scuseria, 
 M. A. Robb, J. R. Cheeseman, G. Scalmani, V. Barone, 
 G. A. Petersson, H. Nakatsuji, X. Li, M. Caricato, A. V. Marenich, 
 J. Bloino, B. G. Janesko, R. Gomperts, B. Mennucci, H. P. Hratchian, 
 J. V. Ortiz, A. F. Izmaylov, J. L. Sonnenberg, D. Williams-Young, 
 F. Ding, F. Lipparini, F. Egidi, J. Goings, B. Peng, A. Petrone, 
 T. Henderson, D. Ranasinghe, V. G. Zakrzewski, J. Gao, N. Rega, 
 G. Zheng, W. Liang, M. Hada, M. Ehara, K. Toyota, R. Fukuda, 
 J. Hasegawa, M. Ishida, T. Nakajima, Y. Honda, O. Kitao, H. Nakai, 
 T. Vreven, K. Throssell, J. A. Montgomery, Jr., J. E. Peralta, 
 F. Ogliaro, M. J. Bearpark, J. J. Heyd, E. N. Brothers, K. N. Kudin, 
 V. N. Staroverov, T. A. Keith, R. Kobayashi, J. Normand, 
 K. Raghavachari, A. P. Rendell, J. C. Burant, S. S. Iyengar, 
 J. Tomasi, M. Cossi, J. M. Millam, M. Klene, C. Adamo, R. Cammi, 
 J. W. Ochterski, R. L. Martin, K. Morokuma, O. Farkas, 
 J. B. Foresman, and D. J. Fox, Gaussian, Inc., Wallingford CT, 2019.
 
 ******************************************
 Gaussian 16:  ES64L-G16RevC.01  3-Jul-2019
                 9-Apr-2025 
 ******************************************
 %nprocs=16
 Will use up to   16 processors via shared memory.
 %mem=30GB
 %chk=Grambow2020_wb97xd3_006100_reverse_mol2.chk
 ----------------------------------------------------------------------
 #t hf aug-cc-pvdz iop(5/13=1,5/36=2,99/5=2) pseudo=read geom=check gue
 ss=(read,tcheck) scf=(maxcycle=1)
 ----------------------------------------------------------------------
 -----
 title
 -----
 Structure from the checkpoint file:  "Grambow2020_wb97xd3_006100_reverse_mol2.chk"
 Charge =  0 Multiplicity = 1
 Z-Matrix found in chk file.
 C,0,-1.13534993,0.28621847,0.01209902
 C,0,0.13643107,-0.45574005,-0.39388656
 C,0,1.33307277,0.03802818,0.37068592
 O,0,2.08412756,-0.65530754,0.9987276
 H,0,-1.97978019,-0.03131286,-0.59963352
 H,0,-1.02254012,1.36560506,-0.11274964
 H,0,-1.38527196,0.09285452,1.05670162
 H,0,0.04672764,-1.53222545,-0.24348633
 H,0,0.34063304,-0.27867231,-1.456245
 H,0,1.49287711,1.138829,0.32682289
 Recover connectivity data from disk.
                    Distance matrix (angstroms):
                    1          2          3          4          5
     1  C    0.000000
     2  C    1.527335   0.000000
     3  C    2.506650   1.503439   0.000000
     4  O    3.496419   2.402649   1.199681   0.000000
     5  H    1.090002   2.168138   3.452727   4.411289   0.000000
     6  H    1.092423   2.177051   2.746831   3.869219   1.762028
     7  H    1.091350   2.172727   2.804108   3.549625   1.764172
     8  H    2.183889   1.090636   2.120752   2.542259   2.546824
     9  H    2.157235   1.096201   2.103072   3.034554   2.485817
    10  H    2.780930   2.214050   1.113204   2.004984   3.779802
                    6          7          8          9         10
     6  H    0.000000
     7  H    1.766093   0.000000
     8  H    3.091577   2.526261   0.000000
     9  H    2.523266   3.071104   1.768773   0.000000
    10  H    2.563586   3.148099   3.090491   2.552706   0.000000
 Framework group  C1[X(C3H6O)]
 Deg. of freedom    24
                         Standard orientation:                         
 ---------------------------------------------------------------------
 Center     Atomic      Atomic             Coordinates (Angstroms)
 Number     Number       Type             X           Y           Z
 ---------------------------------------------------------------------
      1          6           0       -1.680844   -0.283193   -0.176767
      2          6           0       -0.470778    0.590248    0.148185
      3          6           0        0.779732   -0.230661    0.298732
      4          8           0        1.805137   -0.040079   -0.294105
      5          1           0       -2.591035    0.315478   -0.212136
      6          1           0       -1.823941   -1.060227    0.577640
      7          1           0       -1.562257   -0.772423   -1.145083
      8          1           0       -0.298995    1.350133   -0.615066
      9          1           0       -0.634200    1.101838    1.103813
     10          1           0        0.700673   -1.072525    1.022776
 ---------------------------------------------------------------------
 Rotational constants (GHZ):          26.1987725           4.3457606           4.1825500
 ======================================================================================================
                                       Pseudopotential Parameters
 ======================================================================================================
  Center     Atomic      Valence      Angular      Power
  Number     Number     Electrons     Momentum     of R      Exponent        Coefficient   SO-Coeffient
 ======================================================================================================
    1          6            6
                                      G and up 
                                                     0        0.0000010       -0.00286759    0.00000000
                                                     2        0.1200000        0.03193960    0.00000000
                                                     2        0.1600000       -0.04027782    0.00000000
                                                     2        0.2600000        0.24782456    0.00000000
                                                     2        0.4000000       -0.62266671    0.00000000
                                                     2        0.7000000        0.35695227    0.00000000
                                      S - G
                                                     0        0.0000010       -0.06602313    0.00000000
                                                     2        0.1200000        1.47277455    0.00000000
                                                     2        0.1600000       -4.06924166    0.00000000
                                                     2        0.3000000        5.02952802    0.00000000
                                                     2        0.7000000       -5.65856978    0.00000000
                                                     2        1.7000000        8.57604414    0.00000000
                                      P - G
                                                     0        0.0000010        0.49434425    0.00000000
                                                     2        0.1200000       -1.37391547    0.00000000
                                                     2        0.1600000        3.65411806    0.00000000
                                                     2        0.2800000       -7.36479843    0.00000000
                                                     2        0.6000000       17.22091285    0.00000000
                                                     2        1.1000000      -23.50107827    0.00000000
                                                     2        3.0000000       16.29464063    0.00000000
                                      D - G
                                                     0        0.0000010       -0.28693103    0.00000000
                                                     2        0.1200000        0.12273044    0.00000000
                                                     2        0.3000000       -0.43416384    0.00000000
                                                     2        0.7000000        2.23358493    0.00000000
                                      F - G
                                                     0        0.0000010        0.07263570    0.00000000
                                                     2        0.1400000       -0.76152861    0.00000000
                                                     2        0.2200000        1.98045593    0.00000000
                                                     2        0.4000000       -2.42426427    0.00000000
                                                     2        0.7000000        0.52335237    0.00000000
    2          6            6
                                      G and up 
                                                     0        0.0000010       -0.00286759    0.00000000
                                                     2        0.1200000        0.03193960    0.00000000
                                                     2        0.1600000       -0.04027782    0.00000000
                                                     2        0.2600000        0.24782456    0.00000000
                                                     2        0.4000000       -0.62266671    0.00000000
                                                     2        0.7000000        0.35695227    0.00000000
                                      S - G
                                                     0        0.0000010       -0.06602313    0.00000000
                                                     2        0.1200000        1.47277455    0.00000000
                                                     2        0.1600000       -4.06924166    0.00000000
                                                     2        0.3000000        5.02952802    0.00000000
                                                     2        0.7000000       -5.65856978    0.00000000
                                                     2        1.7000000        8.57604414    0.00000000
                                      P - G
                                                     0        0.0000010        0.49434425    0.00000000
                                                     2        0.1200000       -1.37391547    0.00000000
                                                     2        0.1600000        3.65411806    0.00000000
                                                     2        0.2800000       -7.36479843    0.00000000
                                                     2        0.6000000       17.22091285    0.00000000
                                                     2        1.1000000      -23.50107827    0.00000000
                                                     2        3.0000000       16.29464063    0.00000000
                                      D - G
                                                     0        0.0000010       -0.28693103    0.00000000
                                                     2        0.1200000        0.12273044    0.00000000
                                                     2        0.3000000       -0.43416384    0.00000000
                                                     2        0.7000000        2.23358493    0.00000000
                                      F - G
                                                     0        0.0000010        0.07263570    0.00000000
                                                     2        0.1400000       -0.76152861    0.00000000
                                                     2        0.2200000        1.98045593    0.00000000
                                                     2        0.4000000       -2.42426427    0.00000000
                                                     2        0.7000000        0.52335237    0.00000000
    3          6            6
                                      G and up 
                                                     0        0.0000010       -0.00286759    0.00000000
                                                     2        0.1200000        0.03193960    0.00000000
                                                     2        0.1600000       -0.04027782    0.00000000
                                                     2        0.2600000        0.24782456    0.00000000
                                                     2        0.4000000       -0.62266671    0.00000000
                                                     2        0.7000000        0.35695227    0.00000000
                                      S - G
                                                     0        0.0000010       -0.06602313    0.00000000
                                                     2        0.1200000        1.47277455    0.00000000
                                                     2        0.1600000       -4.06924166    0.00000000
                                                     2        0.3000000        5.02952802    0.00000000
                                                     2        0.7000000       -5.65856978    0.00000000
                                                     2        1.7000000        8.57604414    0.00000000
                                      P - G
                                                     0        0.0000010        0.49434425    0.00000000
                                                     2        0.1200000       -1.37391547    0.00000000
                                                     2        0.1600000        3.65411806    0.00000000
                                                     2        0.2800000       -7.36479843    0.00000000
                                                     2        0.6000000       17.22091285    0.00000000
                                                     2        1.1000000      -23.50107827    0.00000000
                                                     2        3.0000000       16.29464063    0.00000000
                                      D - G
                                                     0        0.0000010       -0.28693103    0.00000000
                                                     2        0.1200000        0.12273044    0.00000000
                                                     2        0.3000000       -0.43416384    0.00000000
                                                     2        0.7000000        2.23358493    0.00000000
                                      F - G
                                                     0        0.0000010        0.07263570    0.00000000
                                                     2        0.1400000       -0.76152861    0.00000000
                                                     2        0.2200000        1.98045593    0.00000000
                                                     2        0.4000000       -2.42426427    0.00000000
                                                     2        0.7000000        0.52335237    0.00000000
    4          8            8
                                      G and up 
                                                     0        0.0000010       -0.00165251    0.00000000
                                                     2        0.1200000       -0.10937202    0.00000000
                                                     2        0.1400000        0.35668905    0.00000000
                                                     2        0.1800000       -0.51696033    0.00000000
                                                     2        0.2400000        0.52446472    0.00000000
                                                     2        0.4000000       -0.07754493    0.00000000
                                                     2        0.8000000       -1.90560988    0.00000000
                                                     2        1.7000000        0.19857963    0.00000000
                                      S - G
                                                     0        0.0000010       -0.03845181    0.00000000
                                                     2        0.1400000        0.42024558    0.00000000
                                                     2        0.4000000       -4.10467779    0.00000000
                                                     2        1.3000000        9.99571838    0.00000000
                                      P - G
                                                     0        0.0000010        0.33206183    0.00000000
                                                     2        0.1200000       -0.18708141    0.00000000
                                                     2        0.2800000       -0.18179081    0.00000000
                                                     2        0.7000000        1.18820394    0.00000000
                                      D - G
                                                     0        0.0000010       -0.57891674    0.00000000
                                                     2        0.1200000        0.60487490    0.00000000
                                                     2        0.2400000       -0.24931464    0.00000000
                                                     2        0.3000000       -2.75054612    0.00000000
                                                     2        1.0000000       15.96776040    0.00000000
                                      F - G
                                                     0        0.0000010        0.37449041    0.00000000
                                                     2        0.1200000       -0.63373642    0.00000000
                                                     2        0.1400000       -0.08412804    0.00000000
                                                     2        0.2800000        2.62321406    0.00000000
                                                     2        0.6000000       -2.68223623    0.00000000
    5          1            1
                                      F and up 
                                                     0        0.0000010        0.00072061    0.00000000
                                                     2        0.1200000        0.03832357    0.00000000
                                                     2        0.1400000       -0.08683256    0.00000000
                                                     2        0.1800000        0.09312970    0.00000000
                                                     2        0.2800000       -0.02532572    0.00000000
                                                     2        0.4000000       -0.09430787    0.00000000
                                                     2        0.7000000        0.42710831    0.00000000
                                                     2        1.2000000       -2.11746981    0.00000000
                                      S - F
                                                     0        0.0000010        0.14449603    0.00000000
                                                     2        0.1200000       -0.56378993    0.00000000
                                                     2        0.1400000        0.63941249    0.00000000
                                                     2        0.2600000       -0.58461015    0.00000000
                                                     2        0.5000000        1.00157293    0.00000000
                                                     2        1.8000000       -0.14135838    0.00000000
                                      P - F
                                                     0        0.0000010       -0.09353646    0.00000000
                                                     2        0.1200000        0.31768975    0.00000000
                                                     2        0.2000000       -0.71747951    0.00000000
                                                     2        0.4000000        0.65752308    0.00000000
                                                     2        1.7000000        2.94052587    0.00000000
                                      D - F
                                                     0        0.0000010       -0.04491202    0.00000000
                                                     2        0.1200000       -0.02862031    0.00000000
                                                     2        0.1800000       -0.21515263    0.00000000
                                                     2        0.3000000        0.80560647    0.00000000
                                                     2        0.4000000        0.47351754    0.00000000
                                                     2        0.7000000       -4.57051794    0.00000000
                                                     2        1.6000000       18.53737826    0.00000000
    6          1            1
                                      F and up 
                                                     0        0.0000010        0.00072061    0.00000000
                                                     2        0.1200000        0.03832357    0.00000000
                                                     2        0.1400000       -0.08683256    0.00000000
                                                     2        0.1800000        0.09312970    0.00000000
                                                     2        0.2800000       -0.02532572    0.00000000
                                                     2        0.4000000       -0.09430787    0.00000000
                                                     2        0.7000000        0.42710831    0.00000000
                                                     2        1.2000000       -2.11746981    0.00000000
                                      S - F
                                                     0        0.0000010        0.14449603    0.00000000
                                                     2        0.1200000       -0.56378993    0.00000000
                                                     2        0.1400000        0.63941249    0.00000000
                                                     2        0.2600000       -0.58461015    0.00000000
                                                     2        0.5000000        1.00157293    0.00000000
                                                     2        1.8000000       -0.14135838    0.00000000
                                      P - F
                                                     0        0.0000010       -0.09353646    0.00000000
                                                     2        0.1200000        0.31768975    0.00000000
                                                     2        0.2000000       -0.71747951    0.00000000
                                                     2        0.4000000        0.65752308    0.00000000
                                                     2        1.7000000        2.94052587    0.00000000
                                      D - F
                                                     0        0.0000010       -0.04491202    0.00000000
                                                     2        0.1200000       -0.02862031    0.00000000
                                                     2        0.1800000       -0.21515263    0.00000000
                                                     2        0.3000000        0.80560647    0.00000000
                                                     2        0.4000000        0.47351754    0.00000000
                                                     2        0.7000000       -4.57051794    0.00000000
                                                     2        1.6000000       18.53737826    0.00000000
    7          1            1
                                      F and up 
                                                     0        0.0000010        0.00072061    0.00000000
                                                     2        0.1200000        0.03832357    0.00000000
                                                     2        0.1400000       -0.08683256    0.00000000
                                                     2        0.1800000        0.09312970    0.00000000
                                                     2        0.2800000       -0.02532572    0.00000000
                                                     2        0.4000000       -0.09430787    0.00000000
                                                     2        0.7000000        0.42710831    0.00000000
                                                     2        1.2000000       -2.11746981    0.00000000
                                      S - F
                                                     0        0.0000010        0.14449603    0.00000000
                                                     2        0.1200000       -0.56378993    0.00000000
                                                     2        0.1400000        0.63941249    0.00000000
                                                     2        0.2600000       -0.58461015    0.00000000
                                                     2        0.5000000        1.00157293    0.00000000
                                                     2        1.8000000       -0.14135838    0.00000000
                                      P - F
                                                     0        0.0000010       -0.09353646    0.00000000
                                                     2        0.1200000        0.31768975    0.00000000
                                                     2        0.2000000       -0.71747951    0.00000000
                                                     2        0.4000000        0.65752308    0.00000000
                                                     2        1.7000000        2.94052587    0.00000000
                                      D - F
                                                     0        0.0000010       -0.04491202    0.00000000
                                                     2        0.1200000       -0.02862031    0.00000000
                                                     2        0.1800000       -0.21515263    0.00000000
                                                     2        0.3000000        0.80560647    0.00000000
                                                     2        0.4000000        0.47351754    0.00000000
                                                     2        0.7000000       -4.57051794    0.00000000
                                                     2        1.6000000       18.53737826    0.00000000
    8          1            1
                                      F and up 
                                                     0        0.0000010        0.00072061    0.00000000
                                                     2        0.1200000        0.03832357    0.00000000
                                                     2        0.1400000       -0.08683256    0.00000000
                                                     2        0.1800000        0.09312970    0.00000000
                                                     2        0.2800000       -0.02532572    0.00000000
                                                     2        0.4000000       -0.09430787    0.00000000
                                                     2        0.7000000        0.42710831    0.00000000
                                                     2        1.2000000       -2.11746981    0.00000000
                                      S - F
                                                     0        0.0000010        0.14449603    0.00000000
                                                     2        0.1200000       -0.56378993    0.00000000
                                                     2        0.1400000        0.63941249    0.00000000
                                                     2        0.2600000       -0.58461015    0.00000000
                                                     2        0.5000000        1.00157293    0.00000000
                                                     2        1.8000000       -0.14135838    0.00000000
                                      P - F
                                                     0        0.0000010       -0.09353646    0.00000000
                                                     2        0.1200000        0.31768975    0.00000000
                                                     2        0.2000000       -0.71747951    0.00000000
                                                     2        0.4000000        0.65752308    0.00000000
                                                     2        1.7000000        2.94052587    0.00000000
                                      D - F
                                                     0        0.0000010       -0.04491202    0.00000000
                                                     2        0.1200000       -0.02862031    0.00000000
                                                     2        0.1800000       -0.21515263    0.00000000
                                                     2        0.3000000        0.80560647    0.00000000
                                                     2        0.4000000        0.47351754    0.00000000
                                                     2        0.7000000       -4.57051794    0.00000000
                                                     2        1.6000000       18.53737826    0.00000000
    9          1            1
                                      F and up 
                                                     0        0.0000010        0.00072061    0.00000000
                                                     2        0.1200000        0.03832357    0.00000000
                                                     2        0.1400000       -0.08683256    0.00000000
                                                     2        0.1800000        0.09312970    0.00000000
                                                     2        0.2800000       -0.02532572    0.00000000
                                                     2        0.4000000       -0.09430787    0.00000000
                                                     2        0.7000000        0.42710831    0.00000000
                                                     2        1.2000000       -2.11746981    0.00000000
                                      S - F
                                                     0        0.0000010        0.14449603    0.00000000
                                                     2        0.1200000       -0.56378993    0.00000000
                                                     2        0.1400000        0.63941249    0.00000000
                                                     2        0.2600000       -0.58461015    0.00000000
                                                     2        0.5000000        1.00157293    0.00000000
                                                     2        1.8000000       -0.14135838    0.00000000
                                      P - F
                                                     0        0.0000010       -0.09353646    0.00000000
                                                     2        0.1200000        0.31768975    0.00000000
                                                     2        0.2000000       -0.71747951    0.00000000
                                                     2        0.4000000        0.65752308    0.00000000
                                                     2        1.7000000        2.94052587    0.00000000
                                      D - F
                                                     0        0.0000010       -0.04491202    0.00000000
                                                     2        0.1200000       -0.02862031    0.00000000
                                                     2        0.1800000       -0.21515263    0.00000000
                                                     2        0.3000000        0.80560647    0.00000000
                                                     2        0.4000000        0.47351754    0.00000000
                                                     2        0.7000000       -4.57051794    0.00000000
                                                     2        1.6000000       18.53737826    0.00000000
   10          1            1
                                      F and up 
                                                     0        0.0000010        0.00072061    0.00000000
                                                     2        0.1200000        0.03832357    0.00000000
                                                     2        0.1400000       -0.08683256    0.00000000
                                                     2        0.1800000        0.09312970    0.00000000
                                                     2        0.2800000       -0.02532572    0.00000000
                                                     2        0.4000000       -0.09430787    0.00000000
                                                     2        0.7000000        0.42710831    0.00000000
                                                     2        1.2000000       -2.11746981    0.00000000
                                      S - F
                                                     0        0.0000010        0.14449603    0.00000000
                                                     2        0.1200000       -0.56378993    0.00000000
                                                     2        0.1400000        0.63941249    0.00000000
                                                     2        0.2600000       -0.58461015    0.00000000
                                                     2        0.5000000        1.00157293    0.00000000
                                                     2        1.8000000       -0.14135838    0.00000000
                                      P - F
                                                     0        0.0000010       -0.09353646    0.00000000
                                                     2        0.1200000        0.31768975    0.00000000
                                                     2        0.2000000       -0.71747951    0.00000000
                                                     2        0.4000000        0.65752308    0.00000000
                                                     2        1.7000000        2.94052587    0.00000000
                                      D - F
                                                     0        0.0000010       -0.04491202    0.00000000
                                                     2        0.1200000       -0.02862031    0.00000000
                                                     2        0.1800000       -0.21515263    0.00000000
                                                     2        0.3000000        0.80560647    0.00000000
                                                     2        0.4000000        0.47351754    0.00000000
                                                     2        0.7000000       -4.57051794    0.00000000
                                                     2        1.6000000       18.53737826    0.00000000
 ======================================================================================================
   146 basis functions,   238 primitive gaussians,   154 cartesian basis functions
    16 alpha electrons       16 beta electrons
       nuclear repulsion energy       116.9357520861 Hartrees.
 NAtoms=   10 NActive=   10 NUniq=   10 SFac= 1.00D+00 NAtFMM=   60 NAOKFM=F Big=F
   1 Symmetry operations used in ECPInt.
 ECPInt:  NShTT=    2211 NPrTT=    9243 LenC2=    2211 LenP2D=    7898.
 LDataN:  DoStor=T MaxTD1= 6 Len=  172
 Initial guess from the checkpoint file:  "Grambow2020_wb97xd3_006100_reverse_mol2.chk"
 B after Tr=    -1.074732   -0.028125    0.137574
         Rot=   -0.318361    0.930266   -0.044478    0.176843 Ang= 217.13 deg.
 >>>>>>>>>> Convergence criterion not met.
 SCF Done:  E(RHF) =  -192.867635662     A.U. after    2 cycles
            NFock=  1  Conv=0.22D+00     -V/T= 2.0272

 **********************************************************************

            Population analysis using the SCF Density.

 **********************************************************************

 Orbital symmetries:
       Occupied  (A) (A) (A) (A) (A) (A) (A) (A) (A) (A) (A) (A)
                 (A) (A) (A) (A)
       Virtual   (A) (A) (A) (A) (A) (A) (A) (A) (A) (A) (A) (A)
                 (A) (A) (A) (A) (A) (A) (A) (A) (A) (A) (A) (A)
                 (A) (A) (A) (A) (A) (A) (A) (A) (A) (A) (A) (A)
                 (A) (A) (A) (A) (A) (A) (A) (A) (A) (A) (A) (A)
                 (A) (A) (A) (A) (A) (A) (A) (A) (A) (A) (A) (A)
                 (A) (A) (A) (A) (A) (A) (A) (A) (A) (A) (A) (A)
                 (A) (A) (A) (A) (A) (A) (A) (A) (A) (A) (A) (A)
                 (A) (A) (A) (A) (A) (A) (A) (A) (A) (A) (A) (A)
                 (A) (A) (A) (A) (A) (A) (A) (A) (A) (A) (A) (A)
                 (A) (A) (A) (A) (A) (A) (A) (A) (A) (A) (A) (A)
                 (A) (A) (A) (A) (A) (A) (A) (A) (A) (A)
 The electronic state is 1-A.
 Alpha  occ. eigenvalues --  -21.06244 -11.47944 -11.41556 -11.37468  -1.71068
 Alpha  occ. eigenvalues --   -1.19922  -0.95324  -0.81375  -0.65487  -0.60938
 Alpha  occ. eigenvalues --   -0.57551  -0.52751  -0.50599  -0.48431  -0.42190
 Alpha  occ. eigenvalues --   -0.29044
 Alpha virt. eigenvalues --    0.03446   0.05293   0.05509   0.06241   0.06281
 Alpha virt. eigenvalues --    0.07040   0.10177   0.11525   0.12390   0.13786
 Alpha virt. eigenvalues --    0.14485   0.15339   0.16030   0.17042   0.17629
 Alpha virt. eigenvalues --    0.18106   0.19151   0.21030   0.21545   0.24864
 Alpha virt. eigenvalues --    0.28398   0.29856   0.30988   0.32408   0.33169
 Alpha virt. eigenvalues --    0.34747   0.35311   0.36920   0.37762   0.39252
 Alpha virt. eigenvalues --    0.40325   0.43387   0.44052   0.44847   0.46151
 Alpha virt. eigenvalues --    0.46910   0.47831   0.48708   0.51027   0.52395
 Alpha virt. eigenvalues --    0.54764   0.56015   0.57626   0.58097   0.59731
 Alpha virt. eigenvalues --    0.61505   0.61955   0.63350   0.66177   0.67323
 Alpha virt. eigenvalues --    0.68888   0.69244   0.71482   0.72844   0.73691
 Alpha virt. eigenvalues --    0.75447   0.78101   0.80152   0.82414   0.83379
 Alpha virt. eigenvalues --    0.84734   0.90476   0.92312   0.93466   0.99267
 Alpha virt. eigenvalues --    1.03900   1.04807   1.09961   1.17367   1.22329
 Alpha virt. eigenvalues --    1.24316   1.25287   1.30246   1.33985   1.38013
 Alpha virt. eigenvalues --    1.44479   1.49292   1.50817   1.58131   1.63304
 Alpha virt. eigenvalues --    1.67621   1.70744   1.75745   1.77968   1.79679
 Alpha virt. eigenvalues --    1.89511   1.96232   1.98548   1.98871   2.04662
 Alpha virt. eigenvalues --    2.05827   2.08387   2.13154   2.13986   2.19769
 Alpha virt. eigenvalues --    2.24672   2.30902   2.32008   2.35625   2.37486
 Alpha virt. eigenvalues --    2.41079   2.47371   2.51920   2.55004   2.60030
 Alpha virt. eigenvalues --    2.63061   2.64420   2.67940   2.71607   2.76258
 Alpha virt. eigenvalues --    2.82326   2.84101   2.89718   2.94338   2.99597
 Alpha virt. eigenvalues --    3.00764   3.04809   3.24898   3.32785   3.40173
 Alpha virt. eigenvalues --    3.46742   3.62187   3.78680   3.83379   3.89459
 Alpha virt. eigenvalues --    6.01892   6.04186   6.05544   6.17020   6.45208
          Condensed to atoms (all electrons):
 Mulliken charges:
               1
     1  C   -3.418160
     2  C   -3.570760
     3  C    1.824000
     4  O   -2.718472
     5  H    1.183986
     6  H    1.290522
     7  H    1.320088
     8  H    1.247253
     9  H    1.433868
    10  H    1.407676
 Sum of Mulliken charges =  -0.00000
 Mulliken charges with hydrogens summed into heavy atoms:
               1
     1  C    0.376436
     2  C   -0.889640
     3  C    3.231676
     4  O   -2.718472
 Electronic spatial extent (au):  <R**2>=            342.9870
 Charge=             -0.0000 electrons
 Dipole moment (field-independent basis, Debye):
    X=             -1.5200    Y=              0.0859    Z=              0.4612  Tot=              1.5907

 Test job not archived.
 1\1\GINC-SE141\SP\RHF\Aug-CC-pVDZ\C3H6O1\OHZDE\09-Apr-2025\0\\#t hf au
 g-cc-pvdz iop(5/13=1,5/36=2,99/5=2) pseudo=read geom=check guess=(read
 ,tcheck) scf=(maxcycle=1)\\title\\0,1\C,0,-1.13534993,0.28621847,0.012
 09902\C,0,0.13643107,-0.45574005,-0.39388656\C,0,1.33307277,0.03802818
 ,0.37068592\O,0,2.08412756,-0.65530754,0.9987276\H,0,-1.97978019,-0.03
 131286,-0.59963352\H,0,-1.02254012,1.36560506,-0.11274964\H,0,-1.38527
 196,0.09285452,1.05670162\H,0,0.04672764,-1.53222545,-0.24348633\H,0,0
 .34063304,-0.27867231,-1.456245\H,0,1.49287711,1.138829,0.32682289\\Ve
 rsion=ES64L-G16RevC.01\State=1-A\HF=-192.8676357\RMSD=2.183e-01\Dipole
 =-0.492378,0.1946144,-0.3336953\Quadrupole=-0.8531917,0.3313396,0.5218
 521,0.8405755,-1.0385708,0.258706\PG=C01 [X(C3H6O1)]\\@


 GOOD SENSE ABOUT TRIVIALITIES IS BETTER THAN NONSENSE
 ABOUT THINGS THAT MATTER

                                       -- MAX BEERBOHM
 Job cpu time:       0 days  0 hours  0 minutes 26.4 seconds.
 Elapsed time:       0 days  0 hours  0 minutes  2.9 seconds.
 File lengths (MBytes):  RWF=      6 Int=      0 D2E=      0 Chk=      4 Scr=      1
 Normal termination of Gaussian 16 at Wed Apr  9 03:21:24 2025.
