 Entering Gaussian System, Link 0=g16
 Input=Grambow2020_wb97xd3_006812_forward_mol1.gjf
 Output=Grambow2020_wb97xd3_006812_forward_mol1.log
 Initial command:
 /arc/software/Gaussian/g16.c01/l1.exe "/tmp/slurm/4880740/Gau-551320.inp" -scrdir="/tmp/slurm/4880740/"
 Entering Link 1 = /arc/software/Gaussian/g16.c01/l1.exe PID=    551321.
  
 Copyright (c) 1988-2019, Gaussian, Inc.  All Rights Reserved.
  
 This is part of the Gaussian(R) 16 program.  It is based on
 the Gaussian(R) 09 system (copyright 2009, Gaussian, Inc.),
 the Gaussian(R) 03 system (copyright 2003, Gaussian, Inc.),
 the Gaussian(R) 98 system (copyright 1998, Gaussian, Inc.),
 the Gaussian(R) 94 system (copyright 1995, Gaussian, Inc.),
 the Gaussian 92(TM) system (copyright 1992, Gaussian, Inc.),
 the Gaussian 90(TM) system (copyright 1990, Gaussian, Inc.),
 the Gaussian 88(TM) system (copyright 1988, Gaussian, Inc.),
 the Gaussian 86(TM) system (copyright 1986, Carnegie Mellon
 University), and the Gaussian 82(TM) system (copyright 1983,
 Carnegie Mellon University). Gaussian is a federally registered
 trademark of Gaussian, Inc.
  
 This software contains proprietary and confidential information,
 including trade secrets, belonging to Gaussian, Inc.
  
 This software is provided under written license and may be
 used, copied, transmitted, or stored only in accord with that
 written license.
  
 The following legend is applicable only to US Government
 contracts under FAR:
  
                    RESTRICTED RIGHTS LEGEND
  
 Use, reproduction and disclosure by the US Government is
 subject to restrictions as set forth in subparagraphs (a)
 and (c) of the Commercial Computer Software - Restricted
 Rights clause in FAR 52.227-19.
  
 Gaussian, Inc.
 340 Quinnipiac St., Bldg. 40, Wallingford CT 06492
  
  
 ---------------------------------------------------------------
 Warning -- This program may not be used in any manner that
 competes with the business of Gaussian, Inc. or will provide
 assistance to any competitor of Gaussian, Inc.  The licensee
 of this program is prohibited from giving any competitor of
 Gaussian, Inc. access to this program.  By using this program,
 the user acknowledges that Gaussian, Inc. is engaged in the
 business of creating and licensing software in the field of
 computational chemistry and represents and warrants to the
 licensee that it is not a competitor of Gaussian, Inc. and that
 it will not use this program in any manner prohibited above.
 ---------------------------------------------------------------
  

 Cite this work as:
 Gaussian 16, Revision C.01,
 M. J. Frisch, G. W. Trucks, H. B. Schlegel, G. E. Scuseria, 
 M. A. Robb, J. R. Cheeseman, G. Scalmani, V. Barone, 
 G. A. Petersson, H. Nakatsuji, X. Li, M. Caricato, A. V. Marenich, 
 J. Bloino, B. G. Janesko, R. Gomperts, B. Mennucci, H. P. Hratchian, 
 J. V. Ortiz, A. F. Izmaylov, J. L. Sonnenberg, D. Williams-Young, 
 F. Ding, F. Lipparini, F. Egidi, J. Goings, B. Peng, A. Petrone, 
 T. Henderson, D. Ranasinghe, V. G. Zakrzewski, J. Gao, N. Rega, 
 G. Zheng, W. Liang, M. Hada, M. Ehara, K. Toyota, R. Fukuda, 
 J. Hasegawa, M. Ishida, T. Nakajima, Y. Honda, O. Kitao, H. Nakai, 
 T. Vreven, K. Throssell, J. A. Montgomery, Jr., J. E. Peralta, 
 F. Ogliaro, M. J. Bearpark, J. J. Heyd, E. N. Brothers, K. N. Kudin, 
 V. N. Staroverov, T. A. Keith, R. Kobayashi, J. Normand, 
 K. Raghavachari, A. P. Rendell, J. C. Burant, S. S. Iyengar, 
 J. Tomasi, M. Cossi, J. M. Millam, M. Klene, C. Adamo, R. Cammi, 
 J. W. Ochterski, R. L. Martin, K. Morokuma, O. Farkas, 
 J. B. Foresman, and D. J. Fox, Gaussian, Inc., Wallingford CT, 2019.
 
 ******************************************
 Gaussian 16:  ES64L-G16RevC.01  3-Jul-2019
                 9-Apr-2025 
 ******************************************
 %nprocs=16
 Will use up to   16 processors via shared memory.
 %mem=30GB
 %chk=Grambow2020_wb97xd3_006812_forward_mol1.chk
 ----------------------------------------------------------------------
 #t hf aug-cc-pvdz symm=none int=(grid=ultrafine) guess=(read,tcheck) s
 table=(opt,rrhf)
 ----------------------------------------------------------------------
 -----
 title
 -----
 Symbolic Z-matrix:
 Charge =  0 Multiplicity = 1
 C                    -2.518    -0.08391  -0.63137 
 C                    -1.17206   0.60578  -0.70622 
 C                    -0.02548  -0.10149  -1.02446 
 C                     1.3028   -0.5355    0.80819 
 C                     2.66565  -0.03491   0.40975 
 C                     0.46822   0.19341   1.5774 
 N                    -0.48385   0.86486   1.82699 
 H                    -3.21677   0.46572   0.00103 
 H                    -2.97232  -0.17934  -1.62105 
 H                    -2.416    -1.0878   -0.21315 
 H                    -1.18892   1.65316  -1.00315 
 H                    -0.95482   0.90867   0.68612 
 H                    -0.07652  -1.16991  -1.19989 
 H                     0.81875   0.40314  -1.47601 
 H                     1.18152  -1.61148   0.89143 
 H                     2.96491  -0.47861  -0.54171 
 H                     2.66794   1.04978   0.2972 
 H                     3.42491  -0.3007    1.14841 
 
                    Distance matrix (angstroms):
                    1          2          3          4          5
     1  C    0.000000
     2  C    1.514202   0.000000
     3  C    2.523387   1.384261   0.000000
     4  C    4.107885   3.117834   2.304624   0.000000
     5  C    5.287395   4.047708   3.050176   1.505564   0.000000
     6  C    3.724652   2.841734   2.664651   1.348893   2.498848
     7  N    3.328885   2.637785   3.045446   2.488188   3.568968
     8  H    1.091011   2.168091   3.399660   4.698976   5.917813
     9  H    1.093144   2.166621   3.007634   4.929974   5.994308
    10  H    1.092296   2.158408   2.710288   3.895849   5.226835
    11  H    2.218576   1.088787   2.105434   3.778867   4.438873
    12  H    2.272561   1.441366   2.193212   2.682783   3.751599
    13  H    2.731925   2.144063   1.083926   2.517406   3.376186
    14  H    3.476279   2.144062   1.082251   2.516529   2.675636
    15  H    4.282383   3.606669   2.721680   1.085982   2.218156
    16  H    5.497821   4.279894   3.052484   2.141978   1.091649
    17  H    5.389009   3.993696   3.213516   2.153565   1.090513
    18  H    6.207481   5.039205   4.082435   2.162006   1.092130
                    6          7          8          9         10
     6  C    0.000000
     7  N    1.191460   0.000000
     8  H    4.017235   3.310933   0.000000
     9  H    4.712351   4.378561   1.762661   0.000000
    10  H    3.628538   3.421738   1.760827   1.765491   0.000000
    11  H    3.396495   3.021299   2.555496   2.630660   3.105272
    12  H    1.825097   1.235038   2.404574   3.252244   2.632422
    13  H    3.141441   3.669902   3.738800   3.089382   2.540390
    14  H    3.080609   3.580475   4.297787   3.838300   3.779070
    15  H    2.058390   3.127457   4.944943   5.061416   3.799541
    16  H    3.343002   4.394267   6.276892   6.041952   5.425242
    17  H    2.685340   3.508314   5.921031   6.083002   5.538608
    18  H    3.028239   4.134907   6.783495   6.972033   6.048942
                   11         12         13         14         15
    11  H    0.000000
    12  H    1.860835   0.000000
    13  H    3.040701   2.940898   0.000000
    14  H    2.411825   2.841814   1.830910   0.000000
    15  H    4.457159   3.310165   2.480166   3.129704   0.000000
    16  H    4.691657   4.335471   3.187685   2.501276   2.552983
    17  H    4.114649   3.646303   3.834095   2.642328   3.105611
    18  H    5.452915   4.567091   4.304652   3.764981   2.610934
                   16         17         18
    16  H    0.000000
    17  H    1.768592   0.000000
    18  H    1.760616   1.766743   0.000000
 Symmetry turned off by external request.
 Rotational constants (GHZ):           4.2814051           1.6556159           1.3283328
   260 basis functions,   422 primitive gaussians,   274 cartesian basis functions
    27 alpha electrons       27 beta electrons
       nuclear repulsion energy       288.4877499992 Hartrees.
 NAtoms=   18 NActive=   18 NUniq=   18 SFac= 1.00D+00 NAtFMM=   60 NAOKFM=F Big=F
 ExpMin= 2.97D-02 ExpMax= 9.05D+03 ExpMxC= 3.09D+02 IAcc=3 IRadAn=         5 AccDes= 0.00D+00
 Harris functional with IExCor=  205 and IRadAn=       5 diagonalized for initial guess.
 HarFok:  IExCor=  205 AccDes= 0.00D+00 IRadAn=         5 IDoV= 1 UseB2=F ITyADJ=14
 ICtDFT=  3500011 ScaDFX=  1.000000  1.000000  1.000000  1.000000
 FoFCou: FMM=F IPFlag=           0 FMFlag=      100000 FMFlg1=           0
         NFxFlg=           0 DoJE=T BraDBF=F KetDBF=T FulRan=T
         wScrn=  0.000000 ICntrl=       500 IOpCl=  0 I1Cent=   200000004 NGrid=           0
         NMat0=    1 NMatS0=      1 NMatT0=    0 NMatD0=    1 NMtDS0=    0 NMtDT0=    0
 Symmetry not used in FoFCou.
 SCF Done:  E(RHF) =  -287.947201139     A.U. after   15 cycles
            NFock= 15  Conv=0.88D-08     -V/T= 2.0009

 **********************************************************************

            Population analysis using the SCF Density.

 **********************************************************************

 Alpha  occ. eigenvalues --  -15.57347 -11.28566 -11.26598 -11.26200 -11.24609
 Alpha  occ. eigenvalues --  -11.22569 -11.22384  -1.23790  -1.07410  -1.05876
 Alpha  occ. eigenvalues --   -0.93527  -0.90761  -0.78431  -0.69729  -0.65835
 Alpha  occ. eigenvalues --   -0.64578  -0.59259  -0.58505  -0.58361  -0.55829
 Alpha  occ. eigenvalues --   -0.54267  -0.52932  -0.51712  -0.49388  -0.44997
 Alpha  occ. eigenvalues --   -0.35157  -0.33072
 Alpha virt. eigenvalues --    0.03132   0.04215   0.04340   0.04819   0.05778
 Alpha virt. eigenvalues --    0.06415   0.06545   0.07277   0.08121   0.08560
 Alpha virt. eigenvalues --    0.09267   0.11034   0.11533   0.12354   0.13304
 Alpha virt. eigenvalues --    0.14681   0.14889   0.15011   0.15348   0.16193
 Alpha virt. eigenvalues --    0.16424   0.16681   0.16809   0.17295   0.17953
 Alpha virt. eigenvalues --    0.18312   0.18728   0.19304   0.19554   0.19866
 Alpha virt. eigenvalues --    0.20224   0.21077   0.21972   0.23439   0.25375
 Alpha virt. eigenvalues --    0.25778   0.27511   0.27926   0.28989   0.29624
 Alpha virt. eigenvalues --    0.30212   0.30959   0.31719   0.33364   0.33793
 Alpha virt. eigenvalues --    0.34962   0.37286   0.38633   0.39487   0.40217
 Alpha virt. eigenvalues --    0.40695   0.41092   0.42298   0.43021   0.43880
 Alpha virt. eigenvalues --    0.45015   0.45303   0.45365   0.46043   0.46129
 Alpha virt. eigenvalues --    0.47505   0.48028   0.48374   0.48999   0.50015
 Alpha virt. eigenvalues --    0.50646   0.52088   0.53077   0.53293   0.56019
 Alpha virt. eigenvalues --    0.56605   0.56913   0.57184   0.58123   0.58730
 Alpha virt. eigenvalues --    0.59783   0.60905   0.61942   0.62462   0.62643
 Alpha virt. eigenvalues --    0.63501   0.63846   0.64622   0.65574   0.66684
 Alpha virt. eigenvalues --    0.67346   0.68100   0.68777   0.69605   0.71291
 Alpha virt. eigenvalues --    0.71714   0.72391   0.73451   0.74679   0.75409
 Alpha virt. eigenvalues --    0.75912   0.76996   0.77333   0.77538   0.77984
 Alpha virt. eigenvalues --    0.79501   0.79970   0.81050   0.82130   0.83879
 Alpha virt. eigenvalues --    0.84505   0.85815   0.86885   0.87610   0.88855
 Alpha virt. eigenvalues --    0.90026   0.90986   0.92067   0.92509   0.93546
 Alpha virt. eigenvalues --    0.94957   0.97063   0.98623   1.00452   1.01834
 Alpha virt. eigenvalues --    1.03171   1.05530   1.08988   1.09574   1.11295
 Alpha virt. eigenvalues --    1.12576   1.13740   1.15030   1.16262   1.18863
 Alpha virt. eigenvalues --    1.20440   1.21437   1.22456   1.26062   1.28072
 Alpha virt. eigenvalues --    1.31551   1.32410   1.34380   1.36621   1.36956
 Alpha virt. eigenvalues --    1.40653   1.42451   1.44610   1.46692   1.49738
 Alpha virt. eigenvalues --    1.53019   1.55412   1.59890   1.61095   1.62443
 Alpha virt. eigenvalues --    1.63880   1.67824   1.68707   1.69679   1.72877
 Alpha virt. eigenvalues --    1.74733   1.76076   1.76702   1.77955   1.80450
 Alpha virt. eigenvalues --    1.83937   1.84722   1.85506   1.88901   1.91175
 Alpha virt. eigenvalues --    1.91413   1.92364   1.92938   1.93572   1.96297
 Alpha virt. eigenvalues --    1.98356   1.99203   2.03036   2.04229   2.07055
 Alpha virt. eigenvalues --    2.08443   2.10339   2.11909   2.13949   2.16945
 Alpha virt. eigenvalues --    2.18897   2.20692   2.21725   2.23002   2.24328
 Alpha virt. eigenvalues --    2.27133   2.28344   2.30119   2.30788   2.32332
 Alpha virt. eigenvalues --    2.33890   2.37144   2.38880   2.40193   2.41246
 Alpha virt. eigenvalues --    2.41563   2.44216   2.46299   2.48913   2.50584
 Alpha virt. eigenvalues --    2.53559   2.54662   2.56268   2.62888   2.66336
 Alpha virt. eigenvalues --    2.67458   2.68172   2.71453   2.73388   2.73760
 Alpha virt. eigenvalues --    2.77970   2.78391   2.82589   2.84282   2.89280
 Alpha virt. eigenvalues --    2.89983   2.91642   2.92695   2.97756   2.99883
 Alpha virt. eigenvalues --    3.02230   3.04446   3.09941   3.11442   3.13398
 Alpha virt. eigenvalues --    3.16616   3.24274   3.28527   3.39313   3.52188
 Alpha virt. eigenvalues --    3.64124   3.71072   3.79212
          Condensed to atoms (all electrons):
 Mulliken charges:
               1
     1  C    0.496704
     2  C   -0.575465
     3  C    0.981213
     4  C    0.241461
     5  C    0.494733
     6  C   -0.285307
     7  N   -0.437085
     8  H   -0.085333
     9  H   -0.033367
    10  H   -0.090658
    11  H   -0.220739
    12  H    0.564280
    13  H   -0.245850
    14  H   -0.329155
    15  H   -0.293217
    16  H   -0.025802
    17  H   -0.091750
    18  H   -0.064664
 Sum of Mulliken charges =  -0.00000
 Mulliken charges with hydrogens summed into heavy atoms:
               1
     1  C    0.287346
     2  C   -0.796204
     3  C    0.406208
     4  C   -0.051756
     5  C    0.312517
     6  C   -0.285307
     7  N    0.127195
 Electronic spatial extent (au):  <R**2>=            976.7421
 Charge=              0.0000 electrons
 Dipole moment (field-independent basis, Debye):
    X=              1.6356    Y=             -1.4582    Z=             -2.4740  Tot=              3.3049
 NROrb=    260 NOA=    27 NOB=    27 NVA=   233 NVB=   233

 **** Warning!!: The largest alpha MO coefficient is  0.42018766D+02

    12 initial guesses have been made.
 Iteration     1 Dimension    12 NMult     0 NNew     12
 New state      1 was old state      3
 Iteration     2 Dimension    24 NMult    12 NNew     12
 New state      1 was old state      2
 Iteration     3 Dimension    27 NMult    24 NNew      3
 Iteration     4 Dimension    30 NMult    27 NNew      3
 Iteration     5 Dimension    33 NMult    30 NNew      3
 Iteration     6 Dimension    36 NMult    33 NNew      3
 Iteration     7 Dimension    39 NMult    36 NNew      3
 Iteration     8 Dimension    42 NMult    39 NNew      3
 ***********************************************************************
 Stability analysis using <AA,BB:AA,BB> singles matrix:
 ***********************************************************************
 Ground to excited state transition densities written to RWF  633

 Eigenvectors of the stability matrix:
 
 Excited state symmetry could not be determined.
 Eigenvector   1:      Singlet-?Sym  Eigenvalue= 0.1916012  <S**2>=0.000
      26 -> 36        -0.12813
      26 -> 39         0.11377
      26 -> 40         0.10553
      26 -> 41         0.23059
      26 -> 45         0.12354
      26 -> 47         0.11658
      27 -> 31         0.13860
      27 -> 39         0.23376
      27 -> 40         0.11196
      27 -> 41         0.19781
      27 -> 42        -0.14009
      27 -> 46         0.10549
      27 -> 49         0.10660
      27 -> 53        -0.10193
      27 -> 56        -0.10546
      27 -> 59        -0.10156
 The wavefunction is stable under the perturbations considered.
 The wavefunction is already stable.

 **********************************************************************

            Population analysis using the SCF Density.

 **********************************************************************

 Alpha  occ. eigenvalues --  -15.57347 -11.28566 -11.26598 -11.26200 -11.24609
 Alpha  occ. eigenvalues --  -11.22569 -11.22384  -1.23790  -1.07410  -1.05876
 Alpha  occ. eigenvalues --   -0.93527  -0.90761  -0.78431  -0.69729  -0.65835
 Alpha  occ. eigenvalues --   -0.64578  -0.59259  -0.58505  -0.58361  -0.55829
 Alpha  occ. eigenvalues --   -0.54267  -0.52932  -0.51712  -0.49388  -0.44997
 Alpha  occ. eigenvalues --   -0.35157  -0.33072
 Alpha virt. eigenvalues --    0.03132   0.04215   0.04340   0.04819   0.05778
 Alpha virt. eigenvalues --    0.06415   0.06545   0.07277   0.08121   0.08560
 Alpha virt. eigenvalues --    0.09267   0.11034   0.11533   0.12354   0.13304
 Alpha virt. eigenvalues --    0.14681   0.14889   0.15011   0.15348   0.16193
 Alpha virt. eigenvalues --    0.16424   0.16681   0.16809   0.17295   0.17953
 Alpha virt. eigenvalues --    0.18312   0.18728   0.19304   0.19554   0.19866
 Alpha virt. eigenvalues --    0.20224   0.21077   0.21972   0.23439   0.25375
 Alpha virt. eigenvalues --    0.25778   0.27511   0.27926   0.28989   0.29624
 Alpha virt. eigenvalues --    0.30212   0.30959   0.31719   0.33364   0.33793
 Alpha virt. eigenvalues --    0.34962   0.37286   0.38633   0.39487   0.40217
 Alpha virt. eigenvalues --    0.40695   0.41092   0.42298   0.43021   0.43880
 Alpha virt. eigenvalues --    0.45015   0.45303   0.45365   0.46043   0.46129
 Alpha virt. eigenvalues --    0.47505   0.48028   0.48374   0.48999   0.50015
 Alpha virt. eigenvalues --    0.50646   0.52088   0.53077   0.53293   0.56019
 Alpha virt. eigenvalues --    0.56605   0.56913   0.57184   0.58123   0.58730
 Alpha virt. eigenvalues --    0.59783   0.60905   0.61942   0.62462   0.62643
 Alpha virt. eigenvalues --    0.63501   0.63846   0.64622   0.65574   0.66684
 Alpha virt. eigenvalues --    0.67346   0.68100   0.68777   0.69605   0.71291
 Alpha virt. eigenvalues --    0.71714   0.72391   0.73451   0.74679   0.75409
 Alpha virt. eigenvalues --    0.75912   0.76996   0.77333   0.77538   0.77984
 Alpha virt. eigenvalues --    0.79501   0.79970   0.81050   0.82130   0.83879
 Alpha virt. eigenvalues --    0.84505   0.85815   0.86885   0.87610   0.88855
 Alpha virt. eigenvalues --    0.90026   0.90986   0.92067   0.92509   0.93546
 Alpha virt. eigenvalues --    0.94957   0.97063   0.98623   1.00452   1.01834
 Alpha virt. eigenvalues --    1.03171   1.05530   1.08988   1.09574   1.11295
 Alpha virt. eigenvalues --    1.12576   1.13740   1.15030   1.16262   1.18863
 Alpha virt. eigenvalues --    1.20440   1.21437   1.22456   1.26062   1.28072
 Alpha virt. eigenvalues --    1.31551   1.32410   1.34380   1.36621   1.36956
 Alpha virt. eigenvalues --    1.40653   1.42451   1.44610   1.46692   1.49738
 Alpha virt. eigenvalues --    1.53019   1.55412   1.59890   1.61095   1.62443
 Alpha virt. eigenvalues --    1.63880   1.67824   1.68707   1.69679   1.72877
 Alpha virt. eigenvalues --    1.74733   1.76076   1.76702   1.77955   1.80450
 Alpha virt. eigenvalues --    1.83937   1.84722   1.85506   1.88901   1.91175
 Alpha virt. eigenvalues --    1.91413   1.92364   1.92938   1.93572   1.96297
 Alpha virt. eigenvalues --    1.98356   1.99203   2.03036   2.04229   2.07055
 Alpha virt. eigenvalues --    2.08443   2.10339   2.11909   2.13949   2.16945
 Alpha virt. eigenvalues --    2.18897   2.20692   2.21725   2.23002   2.24328
 Alpha virt. eigenvalues --    2.27133   2.28344   2.30119   2.30788   2.32332
 Alpha virt. eigenvalues --    2.33890   2.37144   2.38880   2.40193   2.41246
 Alpha virt. eigenvalues --    2.41563   2.44216   2.46299   2.48913   2.50584
 Alpha virt. eigenvalues --    2.53559   2.54662   2.56268   2.62888   2.66336
 Alpha virt. eigenvalues --    2.67458   2.68172   2.71453   2.73388   2.73760
 Alpha virt. eigenvalues --    2.77970   2.78391   2.82589   2.84282   2.89280
 Alpha virt. eigenvalues --    2.89983   2.91642   2.92695   2.97756   2.99883
 Alpha virt. eigenvalues --    3.02230   3.04446   3.09941   3.11442   3.13398
 Alpha virt. eigenvalues --    3.16616   3.24274   3.28527   3.39313   3.52188
 Alpha virt. eigenvalues --    3.64124   3.71072   3.79212
          Condensed to atoms (all electrons):
 Mulliken charges:
               1
     1  C    0.496704
     2  C   -0.575465
     3  C    0.981213
     4  C    0.241461
     5  C    0.494733
     6  C   -0.285307
     7  N   -0.437085
     8  H   -0.085333
     9  H   -0.033367
    10  H   -0.090658
    11  H   -0.220739
    12  H    0.564280
    13  H   -0.245850
    14  H   -0.329155
    15  H   -0.293217
    16  H   -0.025802
    17  H   -0.091750
    18  H   -0.064664
 Sum of Mulliken charges =  -0.00000
 Mulliken charges with hydrogens summed into heavy atoms:
               1
     1  C    0.287346
     2  C   -0.796204
     3  C    0.406208
     4  C   -0.051756
     5  C    0.312517
     6  C   -0.285307
     7  N    0.127195
 Electronic spatial extent (au):  <R**2>=            976.7421
 Charge=              0.0000 electrons
 Dipole moment (field-independent basis, Debye):
    X=              1.6356    Y=             -1.4582    Z=             -2.4740  Tot=              3.3049
 Unable to Open any file for archive entry.
 1\1\GINC-SE219\Stability\RHF\Aug-CC-pVDZ\C6H11N1\OHZDE\09-Apr-2025\0\\
 #t hf aug-cc-pvdz symm=none int=(grid=ultrafine) guess=(read,tcheck) s
 table=(opt,rrhf)\\title\\0,1\C,0,-2.51799556,-0.0839097,-0.63137496\C,
 0,-1.1720649,0.60578301,-0.70621588\C,0,-0.02547617,-0.10148702,-1.024
 46365\C,0,1.30279542,-0.53550146,0.80818899\C,0,2.66565163,-0.03490903
 ,0.40975146\C,0,0.46821664,0.19340986,1.57739512\N,0,-0.48385209,0.864
 85786,1.82699417\H,0,-3.21676599,0.46571595,0.00102983\H,0,-2.97232031
 ,-0.17933732,-1.62104534\H,0,-2.41600323,-1.08780178,-0.21315306\H,0,-
 1.18892026,1.65316308,-1.00314703\H,0,-0.95481524,0.90866502,0.6861207
 \H,0,-0.07651607,-1.16990509,-1.19988546\H,0,0.81875231,0.40314302,-1.
 47601086\H,0,1.18152152,-1.61147597,0.89142547\H,0,2.96490575,-0.47860
 862,-0.54170855\H,0,2.66793959,1.04977788,0.29719751\H,0,3.42491395,-0
 .30070469,1.14841354\\Version=ES64L-G16RevC.01\HF=-287.9472011\RMSD=8.
 845e-09\Dipole=0.6435133,-0.5736948,-0.9733576\Quadrupole=2.8854852,1.
 4698052,-4.3552904,0.0575574,1.3282417,-2.3917433\PG=Unknown\\@
 The archive entry for this job was punched.


 CONFIDENCE: THAT QUIET ASSURED FEELING YOU HAVE
 JUST BEFORE YOU FALL FLAT ON YOUR FACE.
 Job cpu time:       0 days  0 hours 12 minutes  3.3 seconds.
 Elapsed time:       0 days  0 hours  0 minutes 51.1 seconds.
 File lengths (MBytes):  RWF=    276 Int=      0 D2E=      0 Chk=      9 Scr=      1
 Normal termination of Gaussian 16 at Wed Apr  9 18:15:34 2025.
 Initial command:
 /arc/software/Gaussian/g16.c01/l1.exe "/tmp/slurm/4880740/Gau-551320.inp" -scrdir="/tmp/slurm/4880740/"
 Entering Link 1 = /arc/software/Gaussian/g16.c01/l1.exe PID=    551545.
  
 Copyright (c) 1988-2019, Gaussian, Inc.  All Rights Reserved.
  
 This is part of the Gaussian(R) 16 program.  It is based on
 the Gaussian(R) 09 system (copyright 2009, Gaussian, Inc.),
 the Gaussian(R) 03 system (copyright 2003, Gaussian, Inc.),
 the Gaussian(R) 98 system (copyright 1998, Gaussian, Inc.),
 the Gaussian(R) 94 system (copyright 1995, Gaussian, Inc.),
 the Gaussian 92(TM) system (copyright 1992, Gaussian, Inc.),
 the Gaussian 90(TM) system (copyright 1990, Gaussian, Inc.),
 the Gaussian 88(TM) system (copyright 1988, Gaussian, Inc.),
 the Gaussian 86(TM) system (copyright 1986, Carnegie Mellon
 University), and the Gaussian 82(TM) system (copyright 1983,
 Carnegie Mellon University). Gaussian is a federally registered
 trademark of Gaussian, Inc.
  
 This software contains proprietary and confidential information,
 including trade secrets, belonging to Gaussian, Inc.
  
 This software is provided under written license and may be
 used, copied, transmitted, or stored only in accord with that
 written license.
  
 The following legend is applicable only to US Government
 contracts under FAR:
  
                    RESTRICTED RIGHTS LEGEND
  
 Use, reproduction and disclosure by the US Government is
 subject to restrictions as set forth in subparagraphs (a)
 and (c) of the Commercial Computer Software - Restricted
 Rights clause in FAR 52.227-19.
  
 Gaussian, Inc.
 340 Quinnipiac St., Bldg. 40, Wallingford CT 06492
  
  
 ---------------------------------------------------------------
 Warning -- This program may not be used in any manner that
 competes with the business of Gaussian, Inc. or will provide
 assistance to any competitor of Gaussian, Inc.  The licensee
 of this program is prohibited from giving any competitor of
 Gaussian, Inc. access to this program.  By using this program,
 the user acknowledges that Gaussian, Inc. is engaged in the
 business of creating and licensing software in the field of
 computational chemistry and represents and warrants to the
 licensee that it is not a competitor of Gaussian, Inc. and that
 it will not use this program in any manner prohibited above.
 ---------------------------------------------------------------
  

 Cite this work as:
 Gaussian 16, Revision C.01,
 M. J. Frisch, G. W. Trucks, H. B. Schlegel, G. E. Scuseria, 
 M. A. Robb, J. R. Cheeseman, G. Scalmani, V. Barone, 
 G. A. Petersson, H. Nakatsuji, X. Li, M. Caricato, A. V. Marenich, 
 J. Bloino, B. G. Janesko, R. Gomperts, B. Mennucci, H. P. Hratchian, 
 J. V. Ortiz, A. F. Izmaylov, J. L. Sonnenberg, D. Williams-Young, 
 F. Ding, F. Lipparini, F. Egidi, J. Goings, B. Peng, A. Petrone, 
 T. Henderson, D. Ranasinghe, V. G. Zakrzewski, J. Gao, N. Rega, 
 G. Zheng, W. Liang, M. Hada, M. Ehara, K. Toyota, R. Fukuda, 
 J. Hasegawa, M. Ishida, T. Nakajima, Y. Honda, O. Kitao, H. Nakai, 
 T. Vreven, K. Throssell, J. A. Montgomery, Jr., J. E. Peralta, 
 F. Ogliaro, M. J. Bearpark, J. J. Heyd, E. N. Brothers, K. N. Kudin, 
 V. N. Staroverov, T. A. Keith, R. Kobayashi, J. Normand, 
 K. Raghavachari, A. P. Rendell, J. C. Burant, S. S. Iyengar, 
 J. Tomasi, M. Cossi, J. M. Millam, M. Klene, C. Adamo, R. Cammi, 
 J. W. Ochterski, R. L. Martin, K. Morokuma, O. Farkas, 
 J. B. Foresman, and D. J. Fox, Gaussian, Inc., Wallingford CT, 2019.
 
 ******************************************
 Gaussian 16:  ES64L-G16RevC.01  3-Jul-2019
                 9-Apr-2025 
 ******************************************
 %nprocs=16
 Will use up to   16 processors via shared memory.
 %mem=30GB
 %chk=Grambow2020_wb97xd3_006812_forward_mol1.chk
 ----------------------------------------------------------------------
 #t hf aug-cc-pvdz iop(5/13=1,5/36=2,99/5=2) pseudo=read geom=check gue
 ss=(read,tcheck) scf=(maxcycle=1)
 ----------------------------------------------------------------------
 -----
 title
 -----
 Structure from the checkpoint file:  "Grambow2020_wb97xd3_006812_forward_mol1.chk"
 Charge =  0 Multiplicity = 1
 Z-Matrix found in chk file.
 C,0,-2.51799556,-0.0839097,-0.63137496
 C,0,-1.1720649,0.60578301,-0.70621588
 C,0,-0.02547617,-0.10148702,-1.02446365
 C,0,1.30279542,-0.53550146,0.80818899
 C,0,2.66565163,-0.03490903,0.40975146
 C,0,0.46821664,0.19340986,1.57739512
 N,0,-0.48385209,0.86485786,1.82699417
 H,0,-3.21676599,0.46571595,0.00102983
 H,0,-2.97232031,-0.17933732,-1.62104534
 H,0,-2.41600323,-1.08780178,-0.21315306
 H,0,-1.18892026,1.65316308,-1.00314703
 H,0,-0.95481524,0.90866502,0.6861207
 H,0,-0.07651607,-1.16990509,-1.19988546
 H,0,0.81875231,0.40314302,-1.47601086
 H,0,1.18152152,-1.61147597,0.89142547
 H,0,2.96490575,-0.47860862,-0.54170855
 H,0,2.66793959,1.04977788,0.29719751
 H,0,3.42491395,-0.30070469,1.14841354
 Recover connectivity data from disk.
                    Distance matrix (angstroms):
                    1          2          3          4          5
     1  C    0.000000
     2  C    1.514202   0.000000
     3  C    2.523387   1.384261   0.000000
     4  C    4.107885   3.117834   2.304624   0.000000
     5  C    5.287395   4.047708   3.050176   1.505564   0.000000
     6  C    3.724652   2.841734   2.664651   1.348893   2.498848
     7  N    3.328885   2.637785   3.045446   2.488188   3.568968
     8  H    1.091011   2.168091   3.399660   4.698976   5.917813
     9  H    1.093144   2.166621   3.007634   4.929974   5.994308
    10  H    1.092296   2.158408   2.710288   3.895849   5.226835
    11  H    2.218576   1.088787   2.105434   3.778867   4.438873
    12  H    2.272561   1.441366   2.193212   2.682783   3.751599
    13  H    2.731925   2.144063   1.083926   2.517406   3.376186
    14  H    3.476279   2.144062   1.082251   2.516529   2.675636
    15  H    4.282383   3.606669   2.721680   1.085982   2.218156
    16  H    5.497821   4.279894   3.052484   2.141978   1.091649
    17  H    5.389009   3.993696   3.213516   2.153565   1.090513
    18  H    6.207481   5.039205   4.082435   2.162006   1.092130
                    6          7          8          9         10
     6  C    0.000000
     7  N    1.191460   0.000000
     8  H    4.017235   3.310933   0.000000
     9  H    4.712351   4.378561   1.762661   0.000000
    10  H    3.628538   3.421738   1.760827   1.765491   0.000000
    11  H    3.396495   3.021299   2.555496   2.630660   3.105272
    12  H    1.825097   1.235038   2.404574   3.252244   2.632422
    13  H    3.141441   3.669902   3.738800   3.089382   2.540390
    14  H    3.080609   3.580475   4.297787   3.838300   3.779070
    15  H    2.058390   3.127457   4.944943   5.061416   3.799541
    16  H    3.343002   4.394267   6.276892   6.041952   5.425242
    17  H    2.685340   3.508314   5.921031   6.083002   5.538608
    18  H    3.028239   4.134907   6.783495   6.972033   6.048942
                   11         12         13         14         15
    11  H    0.000000
    12  H    1.860835   0.000000
    13  H    3.040701   2.940898   0.000000
    14  H    2.411825   2.841814   1.830910   0.000000
    15  H    4.457159   3.310165   2.480166   3.129704   0.000000
    16  H    4.691657   4.335471   3.187685   2.501276   2.552983
    17  H    4.114649   3.646303   3.834095   2.642328   3.105611
    18  H    5.452915   4.567091   4.304652   3.764981   2.610934
                   16         17         18
    16  H    0.000000
    17  H    1.768592   0.000000
    18  H    1.760616   1.766743   0.000000
 Framework group  C1[X(C6H11N)]
 Deg. of freedom    48
                         Standard orientation:                         
 ---------------------------------------------------------------------
 Center     Atomic      Atomic             Coordinates (Angstroms)
 Number     Number       Type             X           Y           Z
 ---------------------------------------------------------------------
      1          6           0       -2.661905   -0.158139    0.342275
      2          6           0       -1.448608   -0.408969   -0.528242
      3          6           0       -0.404957   -1.202830   -0.084671
      4          6           0        1.435559    0.016130    0.577090
      5          6           0        2.580941   -0.588944   -0.190184
      6          6           0        0.822144    1.148168    0.174943
      7          7           0       -0.054417    1.816206   -0.277763
      8          1           0       -3.174943    0.762772    0.061171
      9          1           0       -3.383540   -0.975595    0.264989
     10          1           0       -2.373271   -0.066338    1.391739
     11          1           0       -1.622868   -0.400113   -1.602957
     12          1           0       -0.846277    0.900496   -0.522201
     13          1           0       -0.434938   -1.635740    0.908598
     14          1           0        0.230521   -1.715199   -0.795245
     15          1           0        1.416419   -0.160500    1.648441
     16          1           0        2.611327   -1.668316   -0.029775
     17          1           0        2.477465   -0.404818   -1.260048
     18          1           0        3.541977   -0.182593    0.132364
 ---------------------------------------------------------------------
 Rotational constants (GHZ):           4.2814051           1.6556159           1.3283328
 ======================================================================================================
                                       Pseudopotential Parameters
 ======================================================================================================
  Center     Atomic      Valence      Angular      Power
  Number     Number     Electrons     Momentum     of R      Exponent        Coefficient   SO-Coeffient
 ======================================================================================================
    1          6            6
                                      G and up 
                                                     0        0.0000010       -0.00286759    0.00000000
                                                     2        0.1200000        0.03193960    0.00000000
                                                     2        0.1600000       -0.04027782    0.00000000
                                                     2        0.2600000        0.24782456    0.00000000
                                                     2        0.4000000       -0.62266671    0.00000000
                                                     2        0.7000000        0.35695227    0.00000000
                                      S - G
                                                     0        0.0000010       -0.06602313    0.00000000
                                                     2        0.1200000        1.47277455    0.00000000
                                                     2        0.1600000       -4.06924166    0.00000000
                                                     2        0.3000000        5.02952802    0.00000000
                                                     2        0.7000000       -5.65856978    0.00000000
                                                     2        1.7000000        8.57604414    0.00000000
                                      P - G
                                                     0        0.0000010        0.49434425    0.00000000
                                                     2        0.1200000       -1.37391547    0.00000000
                                                     2        0.1600000        3.65411806    0.00000000
                                                     2        0.2800000       -7.36479843    0.00000000
                                                     2        0.6000000       17.22091285    0.00000000
                                                     2        1.1000000      -23.50107827    0.00000000
                                                     2        3.0000000       16.29464063    0.00000000
                                      D - G
                                                     0        0.0000010       -0.28693103    0.00000000
                                                     2        0.1200000        0.12273044    0.00000000
                                                     2        0.3000000       -0.43416384    0.00000000
                                                     2        0.7000000        2.23358493    0.00000000
                                      F - G
                                                     0        0.0000010        0.07263570    0.00000000
                                                     2        0.1400000       -0.76152861    0.00000000
                                                     2        0.2200000        1.98045593    0.00000000
                                                     2        0.4000000       -2.42426427    0.00000000
                                                     2        0.7000000        0.52335237    0.00000000
    2          6            6
                                      G and up 
                                                     0        0.0000010       -0.00286759    0.00000000
                                                     2        0.1200000        0.03193960    0.00000000
                                                     2        0.1600000       -0.04027782    0.00000000
                                                     2        0.2600000        0.24782456    0.00000000
                                                     2        0.4000000       -0.62266671    0.00000000
                                                     2        0.7000000        0.35695227    0.00000000
                                      S - G
                                                     0        0.0000010       -0.06602313    0.00000000
                                                     2        0.1200000        1.47277455    0.00000000
                                                     2        0.1600000       -4.06924166    0.00000000
                                                     2        0.3000000        5.02952802    0.00000000
                                                     2        0.7000000       -5.65856978    0.00000000
                                                     2        1.7000000        8.57604414    0.00000000
                                      P - G
                                                     0        0.0000010        0.49434425    0.00000000
                                                     2        0.1200000       -1.37391547    0.00000000
                                                     2        0.1600000        3.65411806    0.00000000
                                                     2        0.2800000       -7.36479843    0.00000000
                                                     2        0.6000000       17.22091285    0.00000000
                                                     2        1.1000000      -23.50107827    0.00000000
                                                     2        3.0000000       16.29464063    0.00000000
                                      D - G
                                                     0        0.0000010       -0.28693103    0.00000000
                                                     2        0.1200000        0.12273044    0.00000000
                                                     2        0.3000000       -0.43416384    0.00000000
                                                     2        0.7000000        2.23358493    0.00000000
                                      F - G
                                                     0        0.0000010        0.07263570    0.00000000
                                                     2        0.1400000       -0.76152861    0.00000000
                                                     2        0.2200000        1.98045593    0.00000000
                                                     2        0.4000000       -2.42426427    0.00000000
                                                     2        0.7000000        0.52335237    0.00000000
    3          6            6
                                      G and up 
                                                     0        0.0000010       -0.00286759    0.00000000
                                                     2        0.1200000        0.03193960    0.00000000
                                                     2        0.1600000       -0.04027782    0.00000000
                                                     2        0.2600000        0.24782456    0.00000000
                                                     2        0.4000000       -0.62266671    0.00000000
                                                     2        0.7000000        0.35695227    0.00000000
                                      S - G
                                                     0        0.0000010       -0.06602313    0.00000000
                                                     2        0.1200000        1.47277455    0.00000000
                                                     2        0.1600000       -4.06924166    0.00000000
                                                     2        0.3000000        5.02952802    0.00000000
                                                     2        0.7000000       -5.65856978    0.00000000
                                                     2        1.7000000        8.57604414    0.00000000
                                      P - G
                                                     0        0.0000010        0.49434425    0.00000000
                                                     2        0.1200000       -1.37391547    0.00000000
                                                     2        0.1600000        3.65411806    0.00000000
                                                     2        0.2800000       -7.36479843    0.00000000
                                                     2        0.6000000       17.22091285    0.00000000
                                                     2        1.1000000      -23.50107827    0.00000000
                                                     2        3.0000000       16.29464063    0.00000000
                                      D - G
                                                     0        0.0000010       -0.28693103    0.00000000
                                                     2        0.1200000        0.12273044    0.00000000
                                                     2        0.3000000       -0.43416384    0.00000000
                                                     2        0.7000000        2.23358493    0.00000000
                                      F - G
                                                     0        0.0000010        0.07263570    0.00000000
                                                     2        0.1400000       -0.76152861    0.00000000
                                                     2        0.2200000        1.98045593    0.00000000
                                                     2        0.4000000       -2.42426427    0.00000000
                                                     2        0.7000000        0.52335237    0.00000000
    4          6            6
                                      G and up 
                                                     0        0.0000010       -0.00286759    0.00000000
                                                     2        0.1200000        0.03193960    0.00000000
                                                     2        0.1600000       -0.04027782    0.00000000
                                                     2        0.2600000        0.24782456    0.00000000
                                                     2        0.4000000       -0.62266671    0.00000000
                                                     2        0.7000000        0.35695227    0.00000000
                                      S - G
                                                     0        0.0000010       -0.06602313    0.00000000
                                                     2        0.1200000        1.47277455    0.00000000
                                                     2        0.1600000       -4.06924166    0.00000000
                                                     2        0.3000000        5.02952802    0.00000000
                                                     2        0.7000000       -5.65856978    0.00000000
                                                     2        1.7000000        8.57604414    0.00000000
                                      P - G
                                                     0        0.0000010        0.49434425    0.00000000
                                                     2        0.1200000       -1.37391547    0.00000000
                                                     2        0.1600000        3.65411806    0.00000000
                                                     2        0.2800000       -7.36479843    0.00000000
                                                     2        0.6000000       17.22091285    0.00000000
                                                     2        1.1000000      -23.50107827    0.00000000
                                                     2        3.0000000       16.29464063    0.00000000
                                      D - G
                                                     0        0.0000010       -0.28693103    0.00000000
                                                     2        0.1200000        0.12273044    0.00000000
                                                     2        0.3000000       -0.43416384    0.00000000
                                                     2        0.7000000        2.23358493    0.00000000
                                      F - G
                                                     0        0.0000010        0.07263570    0.00000000
                                                     2        0.1400000       -0.76152861    0.00000000
                                                     2        0.2200000        1.98045593    0.00000000
                                                     2        0.4000000       -2.42426427    0.00000000
                                                     2        0.7000000        0.52335237    0.00000000
    5          6            6
                                      G and up 
                                                     0        0.0000010       -0.00286759    0.00000000
                                                     2        0.1200000        0.03193960    0.00000000
                                                     2        0.1600000       -0.04027782    0.00000000
                                                     2        0.2600000        0.24782456    0.00000000
                                                     2        0.4000000       -0.62266671    0.00000000
                                                     2        0.7000000        0.35695227    0.00000000
                                      S - G
                                                     0        0.0000010       -0.06602313    0.00000000
                                                     2        0.1200000        1.47277455    0.00000000
                                                     2        0.1600000       -4.06924166    0.00000000
                                                     2        0.3000000        5.02952802    0.00000000
                                                     2        0.7000000       -5.65856978    0.00000000
                                                     2        1.7000000        8.57604414    0.00000000
                                      P - G
                                                     0        0.0000010        0.49434425    0.00000000
                                                     2        0.1200000       -1.37391547    0.00000000
                                                     2        0.1600000        3.65411806    0.00000000
                                                     2        0.2800000       -7.36479843    0.00000000
                                                     2        0.6000000       17.22091285    0.00000000
                                                     2        1.1000000      -23.50107827    0.00000000
                                                     2        3.0000000       16.29464063    0.00000000
                                      D - G
                                                     0        0.0000010       -0.28693103    0.00000000
                                                     2        0.1200000        0.12273044    0.00000000
                                                     2        0.3000000       -0.43416384    0.00000000
                                                     2        0.7000000        2.23358493    0.00000000
                                      F - G
                                                     0        0.0000010        0.07263570    0.00000000
                                                     2        0.1400000       -0.76152861    0.00000000
                                                     2        0.2200000        1.98045593    0.00000000
                                                     2        0.4000000       -2.42426427    0.00000000
                                                     2        0.7000000        0.52335237    0.00000000
    6          6            6
                                      G and up 
                                                     0        0.0000010       -0.00286759    0.00000000
                                                     2        0.1200000        0.03193960    0.00000000
                                                     2        0.1600000       -0.04027782    0.00000000
                                                     2        0.2600000        0.24782456    0.00000000
                                                     2        0.4000000       -0.62266671    0.00000000
                                                     2        0.7000000        0.35695227    0.00000000
                                      S - G
                                                     0        0.0000010       -0.06602313    0.00000000
                                                     2        0.1200000        1.47277455    0.00000000
                                                     2        0.1600000       -4.06924166    0.00000000
                                                     2        0.3000000        5.02952802    0.00000000
                                                     2        0.7000000       -5.65856978    0.00000000
                                                     2        1.7000000        8.57604414    0.00000000
                                      P - G
                                                     0        0.0000010        0.49434425    0.00000000
                                                     2        0.1200000       -1.37391547    0.00000000
                                                     2        0.1600000        3.65411806    0.00000000
                                                     2        0.2800000       -7.36479843    0.00000000
                                                     2        0.6000000       17.22091285    0.00000000
                                                     2        1.1000000      -23.50107827    0.00000000
                                                     2        3.0000000       16.29464063    0.00000000
                                      D - G
                                                     0        0.0000010       -0.28693103    0.00000000
                                                     2        0.1200000        0.12273044    0.00000000
                                                     2        0.3000000       -0.43416384    0.00000000
                                                     2        0.7000000        2.23358493    0.00000000
                                      F - G
                                                     0        0.0000010        0.07263570    0.00000000
                                                     2        0.1400000       -0.76152861    0.00000000
                                                     2        0.2200000        1.98045593    0.00000000
                                                     2        0.4000000       -2.42426427    0.00000000
                                                     2        0.7000000        0.52335237    0.00000000
    7          7            7
                                      G and up 
                                                     0        0.0000010        0.00420138    0.00000000
                                                     2        0.1200000        0.05872431    0.00000000
                                                     2        0.1400000       -0.08436978    0.00000000
                                                     2        0.2000000        0.05409159    0.00000000
                                                     2        0.2600000        0.14199713    0.00000000
                                                     2        0.6000000       -0.79062770    0.00000000
                                                     2        0.7000000       -0.14441060    0.00000000
                                                     2        1.5000000        0.73772979    0.00000000
                                      S - G
                                                     0        0.0000010       -0.03094411    0.00000000
                                                     2        0.1200000        0.65332522    0.00000000
                                                     2        0.1800000       -1.38149133    0.00000000
                                                     2        1.3000000        3.29267299    0.00000000
                                      P - G
                                                     0        0.0000010        0.07303105    0.00000000
                                                     2        0.1200000        0.23145115    0.00000000
                                                     2        0.2000000       -1.20679699    0.00000000
                                                     2        0.4000000        1.75088447    0.00000000
                                                     2        1.2000000       -0.67486559    0.00000000
                                      D - G
                                                     0        0.0000010        0.07560739    0.00000000
                                                     2        0.3000000       -0.68679114    0.00000000
                                                     2        0.9000000        3.60133241    0.00000000
                                      F - G
                                                     0        0.0000010       -0.18221184    0.00000000
                                                     2        0.1200000       -0.39369067    0.00000000
                                                     2        0.1800000        0.72091725    0.00000000
                                                     2        0.6000000        0.15946111    0.00000000
    8          1            1
                                      F and up 
                                                     0        0.0000010        0.00072061    0.00000000
                                                     2        0.1200000        0.03832357    0.00000000
                                                     2        0.1400000       -0.08683256    0.00000000
                                                     2        0.1800000        0.09312970    0.00000000
                                                     2        0.2800000       -0.02532572    0.00000000
                                                     2        0.4000000       -0.09430787    0.00000000
                                                     2        0.7000000        0.42710831    0.00000000
                                                     2        1.2000000       -2.11746981    0.00000000
                                      S - F
                                                     0        0.0000010        0.14449603    0.00000000
                                                     2        0.1200000       -0.56378993    0.00000000
                                                     2        0.1400000        0.63941249    0.00000000
                                                     2        0.2600000       -0.58461015    0.00000000
                                                     2        0.5000000        1.00157293    0.00000000
                                                     2        1.8000000       -0.14135838    0.00000000
                                      P - F
                                                     0        0.0000010       -0.09353646    0.00000000
                                                     2        0.1200000        0.31768975    0.00000000
                                                     2        0.2000000       -0.71747951    0.00000000
                                                     2        0.4000000        0.65752308    0.00000000
                                                     2        1.7000000        2.94052587    0.00000000
                                      D - F
                                                     0        0.0000010       -0.04491202    0.00000000
                                                     2        0.1200000       -0.02862031    0.00000000
                                                     2        0.1800000       -0.21515263    0.00000000
                                                     2        0.3000000        0.80560647    0.00000000
                                                     2        0.4000000        0.47351754    0.00000000
                                                     2        0.7000000       -4.57051794    0.00000000
                                                     2        1.6000000       18.53737826    0.00000000
    9          1            1
                                      F and up 
                                                     0        0.0000010        0.00072061    0.00000000
                                                     2        0.1200000        0.03832357    0.00000000
                                                     2        0.1400000       -0.08683256    0.00000000
                                                     2        0.1800000        0.09312970    0.00000000
                                                     2        0.2800000       -0.02532572    0.00000000
                                                     2        0.4000000       -0.09430787    0.00000000
                                                     2        0.7000000        0.42710831    0.00000000
                                                     2        1.2000000       -2.11746981    0.00000000
                                      S - F
                                                     0        0.0000010        0.14449603    0.00000000
                                                     2        0.1200000       -0.56378993    0.00000000
                                                     2        0.1400000        0.63941249    0.00000000
                                                     2        0.2600000       -0.58461015    0.00000000
                                                     2        0.5000000        1.00157293    0.00000000
                                                     2        1.8000000       -0.14135838    0.00000000
                                      P - F
                                                     0        0.0000010       -0.09353646    0.00000000
                                                     2        0.1200000        0.31768975    0.00000000
                                                     2        0.2000000       -0.71747951    0.00000000
                                                     2        0.4000000        0.65752308    0.00000000
                                                     2        1.7000000        2.94052587    0.00000000
                                      D - F
                                                     0        0.0000010       -0.04491202    0.00000000
                                                     2        0.1200000       -0.02862031    0.00000000
                                                     2        0.1800000       -0.21515263    0.00000000
                                                     2        0.3000000        0.80560647    0.00000000
                                                     2        0.4000000        0.47351754    0.00000000
                                                     2        0.7000000       -4.57051794    0.00000000
                                                     2        1.6000000       18.53737826    0.00000000
   10          1            1
                                      F and up 
                                                     0        0.0000010        0.00072061    0.00000000
                                                     2        0.1200000        0.03832357    0.00000000
                                                     2        0.1400000       -0.08683256    0.00000000
                                                     2        0.1800000        0.09312970    0.00000000
                                                     2        0.2800000       -0.02532572    0.00000000
                                                     2        0.4000000       -0.09430787    0.00000000
                                                     2        0.7000000        0.42710831    0.00000000
                                                     2        1.2000000       -2.11746981    0.00000000
                                      S - F
                                                     0        0.0000010        0.14449603    0.00000000
                                                     2        0.1200000       -0.56378993    0.00000000
                                                     2        0.1400000        0.63941249    0.00000000
                                                     2        0.2600000       -0.58461015    0.00000000
                                                     2        0.5000000        1.00157293    0.00000000
                                                     2        1.8000000       -0.14135838    0.00000000
                                      P - F
                                                     0        0.0000010       -0.09353646    0.00000000
                                                     2        0.1200000        0.31768975    0.00000000
                                                     2        0.2000000       -0.71747951    0.00000000
                                                     2        0.4000000        0.65752308    0.00000000
                                                     2        1.7000000        2.94052587    0.00000000
                                      D - F
                                                     0        0.0000010       -0.04491202    0.00000000
                                                     2        0.1200000       -0.02862031    0.00000000
                                                     2        0.1800000       -0.21515263    0.00000000
                                                     2        0.3000000        0.80560647    0.00000000
                                                     2        0.4000000        0.47351754    0.00000000
                                                     2        0.7000000       -4.57051794    0.00000000
                                                     2        1.6000000       18.53737826    0.00000000
   11          1            1
                                      F and up 
                                                     0        0.0000010        0.00072061    0.00000000
                                                     2        0.1200000        0.03832357    0.00000000
                                                     2        0.1400000       -0.08683256    0.00000000
                                                     2        0.1800000        0.09312970    0.00000000
                                                     2        0.2800000       -0.02532572    0.00000000
                                                     2        0.4000000       -0.09430787    0.00000000
                                                     2        0.7000000        0.42710831    0.00000000
                                                     2        1.2000000       -2.11746981    0.00000000
                                      S - F
                                                     0        0.0000010        0.14449603    0.00000000
                                                     2        0.1200000       -0.56378993    0.00000000
                                                     2        0.1400000        0.63941249    0.00000000
                                                     2        0.2600000       -0.58461015    0.00000000
                                                     2        0.5000000        1.00157293    0.00000000
                                                     2        1.8000000       -0.14135838    0.00000000
                                      P - F
                                                     0        0.0000010       -0.09353646    0.00000000
                                                     2        0.1200000        0.31768975    0.00000000
                                                     2        0.2000000       -0.71747951    0.00000000
                                                     2        0.4000000        0.65752308    0.00000000
                                                     2        1.7000000        2.94052587    0.00000000
                                      D - F
                                                     0        0.0000010       -0.04491202    0.00000000
                                                     2        0.1200000       -0.02862031    0.00000000
                                                     2        0.1800000       -0.21515263    0.00000000
                                                     2        0.3000000        0.80560647    0.00000000
                                                     2        0.4000000        0.47351754    0.00000000
                                                     2        0.7000000       -4.57051794    0.00000000
                                                     2        1.6000000       18.53737826    0.00000000
   12          1            1
                                      F and up 
                                                     0        0.0000010        0.00072061    0.00000000
                                                     2        0.1200000        0.03832357    0.00000000
                                                     2        0.1400000       -0.08683256    0.00000000
                                                     2        0.1800000        0.09312970    0.00000000
                                                     2        0.2800000       -0.02532572    0.00000000
                                                     2        0.4000000       -0.09430787    0.00000000
                                                     2        0.7000000        0.42710831    0.00000000
                                                     2        1.2000000       -2.11746981    0.00000000
                                      S - F
                                                     0        0.0000010        0.14449603    0.00000000
                                                     2        0.1200000       -0.56378993    0.00000000
                                                     2        0.1400000        0.63941249    0.00000000
                                                     2        0.2600000       -0.58461015    0.00000000
                                                     2        0.5000000        1.00157293    0.00000000
                                                     2        1.8000000       -0.14135838    0.00000000
                                      P - F
                                                     0        0.0000010       -0.09353646    0.00000000
                                                     2        0.1200000        0.31768975    0.00000000
                                                     2        0.2000000       -0.71747951    0.00000000
                                                     2        0.4000000        0.65752308    0.00000000
                                                     2        1.7000000        2.94052587    0.00000000
                                      D - F
                                                     0        0.0000010       -0.04491202    0.00000000
                                                     2        0.1200000       -0.02862031    0.00000000
                                                     2        0.1800000       -0.21515263    0.00000000
                                                     2        0.3000000        0.80560647    0.00000000
                                                     2        0.4000000        0.47351754    0.00000000
                                                     2        0.7000000       -4.57051794    0.00000000
                                                     2        1.6000000       18.53737826    0.00000000
   13          1            1
                                      F and up 
                                                     0        0.0000010        0.00072061    0.00000000
                                                     2        0.1200000        0.03832357    0.00000000
                                                     2        0.1400000       -0.08683256    0.00000000
                                                     2        0.1800000        0.09312970    0.00000000
                                                     2        0.2800000       -0.02532572    0.00000000
                                                     2        0.4000000       -0.09430787    0.00000000
                                                     2        0.7000000        0.42710831    0.00000000
                                                     2        1.2000000       -2.11746981    0.00000000
                                      S - F
                                                     0        0.0000010        0.14449603    0.00000000
                                                     2        0.1200000       -0.56378993    0.00000000
                                                     2        0.1400000        0.63941249    0.00000000
                                                     2        0.2600000       -0.58461015    0.00000000
                                                     2        0.5000000        1.00157293    0.00000000
                                                     2        1.8000000       -0.14135838    0.00000000
                                      P - F
                                                     0        0.0000010       -0.09353646    0.00000000
                                                     2        0.1200000        0.31768975    0.00000000
                                                     2        0.2000000       -0.71747951    0.00000000
                                                     2        0.4000000        0.65752308    0.00000000
                                                     2        1.7000000        2.94052587    0.00000000
                                      D - F
                                                     0        0.0000010       -0.04491202    0.00000000
                                                     2        0.1200000       -0.02862031    0.00000000
                                                     2        0.1800000       -0.21515263    0.00000000
                                                     2        0.3000000        0.80560647    0.00000000
                                                     2        0.4000000        0.47351754    0.00000000
                                                     2        0.7000000       -4.57051794    0.00000000
                                                     2        1.6000000       18.53737826    0.00000000
   14          1            1
                                      F and up 
                                                     0        0.0000010        0.00072061    0.00000000
                                                     2        0.1200000        0.03832357    0.00000000
                                                     2        0.1400000       -0.08683256    0.00000000
                                                     2        0.1800000        0.09312970    0.00000000
                                                     2        0.2800000       -0.02532572    0.00000000
                                                     2        0.4000000       -0.09430787    0.00000000
                                                     2        0.7000000        0.42710831    0.00000000
                                                     2        1.2000000       -2.11746981    0.00000000
                                      S - F
                                                     0        0.0000010        0.14449603    0.00000000
                                                     2        0.1200000       -0.56378993    0.00000000
                                                     2        0.1400000        0.63941249    0.00000000
                                                     2        0.2600000       -0.58461015    0.00000000
                                                     2        0.5000000        1.00157293    0.00000000
                                                     2        1.8000000       -0.14135838    0.00000000
                                      P - F
                                                     0        0.0000010       -0.09353646    0.00000000
                                                     2        0.1200000        0.31768975    0.00000000
                                                     2        0.2000000       -0.71747951    0.00000000
                                                     2        0.4000000        0.65752308    0.00000000
                                                     2        1.7000000        2.94052587    0.00000000
                                      D - F
                                                     0        0.0000010       -0.04491202    0.00000000
                                                     2        0.1200000       -0.02862031    0.00000000
                                                     2        0.1800000       -0.21515263    0.00000000
                                                     2        0.3000000        0.80560647    0.00000000
                                                     2        0.4000000        0.47351754    0.00000000
                                                     2        0.7000000       -4.57051794    0.00000000
                                                     2        1.6000000       18.53737826    0.00000000
   15          1            1
                                      F and up 
                                                     0        0.0000010        0.00072061    0.00000000
                                                     2        0.1200000        0.03832357    0.00000000
                                                     2        0.1400000       -0.08683256    0.00000000
                                                     2        0.1800000        0.09312970    0.00000000
                                                     2        0.2800000       -0.02532572    0.00000000
                                                     2        0.4000000       -0.09430787    0.00000000
                                                     2        0.7000000        0.42710831    0.00000000
                                                     2        1.2000000       -2.11746981    0.00000000
                                      S - F
                                                     0        0.0000010        0.14449603    0.00000000
                                                     2        0.1200000       -0.56378993    0.00000000
                                                     2        0.1400000        0.63941249    0.00000000
                                                     2        0.2600000       -0.58461015    0.00000000
                                                     2        0.5000000        1.00157293    0.00000000
                                                     2        1.8000000       -0.14135838    0.00000000
                                      P - F
                                                     0        0.0000010       -0.09353646    0.00000000
                                                     2        0.1200000        0.31768975    0.00000000
                                                     2        0.2000000       -0.71747951    0.00000000
                                                     2        0.4000000        0.65752308    0.00000000
                                                     2        1.7000000        2.94052587    0.00000000
                                      D - F
                                                     0        0.0000010       -0.04491202    0.00000000
                                                     2        0.1200000       -0.02862031    0.00000000
                                                     2        0.1800000       -0.21515263    0.00000000
                                                     2        0.3000000        0.80560647    0.00000000
                                                     2        0.4000000        0.47351754    0.00000000
                                                     2        0.7000000       -4.57051794    0.00000000
                                                     2        1.6000000       18.53737826    0.00000000
   16          1            1
                                      F and up 
                                                     0        0.0000010        0.00072061    0.00000000
                                                     2        0.1200000        0.03832357    0.00000000
                                                     2        0.1400000       -0.08683256    0.00000000
                                                     2        0.1800000        0.09312970    0.00000000
                                                     2        0.2800000       -0.02532572    0.00000000
                                                     2        0.4000000       -0.09430787    0.00000000
                                                     2        0.7000000        0.42710831    0.00000000
                                                     2        1.2000000       -2.11746981    0.00000000
                                      S - F
                                                     0        0.0000010        0.14449603    0.00000000
                                                     2        0.1200000       -0.56378993    0.00000000
                                                     2        0.1400000        0.63941249    0.00000000
                                                     2        0.2600000       -0.58461015    0.00000000
                                                     2        0.5000000        1.00157293    0.00000000
                                                     2        1.8000000       -0.14135838    0.00000000
                                      P - F
                                                     0        0.0000010       -0.09353646    0.00000000
                                                     2        0.1200000        0.31768975    0.00000000
                                                     2        0.2000000       -0.71747951    0.00000000
                                                     2        0.4000000        0.65752308    0.00000000
                                                     2        1.7000000        2.94052587    0.00000000
                                      D - F
                                                     0        0.0000010       -0.04491202    0.00000000
                                                     2        0.1200000       -0.02862031    0.00000000
                                                     2        0.1800000       -0.21515263    0.00000000
                                                     2        0.3000000        0.80560647    0.00000000
                                                     2        0.4000000        0.47351754    0.00000000
                                                     2        0.7000000       -4.57051794    0.00000000
                                                     2        1.6000000       18.53737826    0.00000000
   17          1            1
                                      F and up 
                                                     0        0.0000010        0.00072061    0.00000000
                                                     2        0.1200000        0.03832357    0.00000000
                                                     2        0.1400000       -0.08683256    0.00000000
                                                     2        0.1800000        0.09312970    0.00000000
                                                     2        0.2800000       -0.02532572    0.00000000
                                                     2        0.4000000       -0.09430787    0.00000000
                                                     2        0.7000000        0.42710831    0.00000000
                                                     2        1.2000000       -2.11746981    0.00000000
                                      S - F
                                                     0        0.0000010        0.14449603    0.00000000
                                                     2        0.1200000       -0.56378993    0.00000000
                                                     2        0.1400000        0.63941249    0.00000000
                                                     2        0.2600000       -0.58461015    0.00000000
                                                     2        0.5000000        1.00157293    0.00000000
                                                     2        1.8000000       -0.14135838    0.00000000
                                      P - F
                                                     0        0.0000010       -0.09353646    0.00000000
                                                     2        0.1200000        0.31768975    0.00000000
                                                     2        0.2000000       -0.71747951    0.00000000
                                                     2        0.4000000        0.65752308    0.00000000
                                                     2        1.7000000        2.94052587    0.00000000
                                      D - F
                                                     0        0.0000010       -0.04491202    0.00000000
                                                     2        0.1200000       -0.02862031    0.00000000
                                                     2        0.1800000       -0.21515263    0.00000000
                                                     2        0.3000000        0.80560647    0.00000000
                                                     2        0.4000000        0.47351754    0.00000000
                                                     2        0.7000000       -4.57051794    0.00000000
                                                     2        1.6000000       18.53737826    0.00000000
   18          1            1
                                      F and up 
                                                     0        0.0000010        0.00072061    0.00000000
                                                     2        0.1200000        0.03832357    0.00000000
                                                     2        0.1400000       -0.08683256    0.00000000
                                                     2        0.1800000        0.09312970    0.00000000
                                                     2        0.2800000       -0.02532572    0.00000000
                                                     2        0.4000000       -0.09430787    0.00000000
                                                     2        0.7000000        0.42710831    0.00000000
                                                     2        1.2000000       -2.11746981    0.00000000
                                      S - F
                                                     0        0.0000010        0.14449603    0.00000000
                                                     2        0.1200000       -0.56378993    0.00000000
                                                     2        0.1400000        0.63941249    0.00000000
                                                     2        0.2600000       -0.58461015    0.00000000
                                                     2        0.5000000        1.00157293    0.00000000
                                                     2        1.8000000       -0.14135838    0.00000000
                                      P - F
                                                     0        0.0000010       -0.09353646    0.00000000
                                                     2        0.1200000        0.31768975    0.00000000
                                                     2        0.2000000       -0.71747951    0.00000000
                                                     2        0.4000000        0.65752308    0.00000000
                                                     2        1.7000000        2.94052587    0.00000000
                                      D - F
                                                     0        0.0000010       -0.04491202    0.00000000
                                                     2        0.1200000       -0.02862031    0.00000000
                                                     2        0.1800000       -0.21515263    0.00000000
                                                     2        0.3000000        0.80560647    0.00000000
                                                     2        0.4000000        0.47351754    0.00000000
                                                     2        0.7000000       -4.57051794    0.00000000
                                                     2        1.6000000       18.53737826    0.00000000
 ======================================================================================================
   260 basis functions,   422 primitive gaussians,   274 cartesian basis functions
    27 alpha electrons       27 beta electrons
       nuclear repulsion energy       288.4877499992 Hartrees.
 NAtoms=   18 NActive=   18 NUniq=   18 SFac= 1.00D+00 NAtFMM=   60 NAOKFM=F Big=F
   1 Symmetry operations used in ECPInt.
 ECPInt:  NShTT=    7021 NPrTT=   28789 LenC2=    7008 LenP2D=   22868.
 LDataN:  DoStor=T MaxTD1= 6 Len=  172
 Initial guess from the checkpoint file:  "Grambow2020_wb97xd3_006812_forward_mol1.chk"
 B after Tr=    -0.154283   -0.444454    0.104728
         Rot=    0.783247    0.602140   -0.140259    0.065419 Ang=  76.88 deg.
 >>>>>>>>>> Convergence criterion not met.
 SCF Done:  E(RHF) =  -289.421449126     A.U. after    2 cycles
            NFock=  1  Conv=0.49D+00     -V/T= 2.0082

 **********************************************************************

            Population analysis using the SCF Density.

 **********************************************************************

 Orbital symmetries:
       Occupied  (A) (A) (A) (A) (A) (A) (A) (A) (A) (A) (A) (A)
                 (A) (A) (A) (A) (A) (A) (A) (A) (A) (A) (A) (A)
                 (A) (A) (A)
       Virtual   (A) (A) (A) (A) (A) (A) (A) (A) (A) (A) (A) (A)
                 (A) (A) (A) (A) (A) (A) (A) (A) (A) (A) (A) (A)
                 (A) (A) (A) (A) (A) (A) (A) (A) (A) (A) (A) (A)
                 (A) (A) (A) (A) (A) (A) (A) (A) (A) (A) (A) (A)
                 (A) (A) (A) (A) (A) (A) (A) (A) (A) (A) (A) (A)
                 (A) (A) (A) (A) (A) (A) (A) (A) (A) (A) (A) (A)
                 (A) (A) (A) (A) (A) (A) (A) (A) (A) (A) (A) (A)
                 (A) (A) (A) (A) (A) (A) (A) (A) (A) (A) (A) (A)
                 (A) (A) (A) (A) (A) (A) (A) (A) (A) (A) (A) (A)
                 (A) (A) (A) (A) (A) (A) (A) (A) (A) (A) (A) (A)
                 (A) (A) (A) (A) (A) (A) (A) (A) (A) (A) (A) (A)
                 (A) (A) (A) (A) (A) (A) (A) (A) (A) (A) (A) (A)
                 (A) (A) (A) (A) (A) (A) (A) (A) (A) (A) (A) (A)
                 (A) (A) (A) (A) (A) (A) (A) (A) (A) (A) (A) (A)
                 (A) (A) (A) (A) (A) (A) (A) (A) (A) (A) (A) (A)
                 (A) (A) (A) (A) (A) (A) (A) (A) (A) (A) (A) (A)
                 (A) (A) (A) (A) (A) (A) (A) (A) (A) (A) (A) (A)
                 (A) (A) (A) (A) (A) (A) (A) (A) (A) (A) (A) (A)
                 (A) (A) (A) (A) (A) (A) (A) (A) (A) (A) (A) (A)
                 (A) (A) (A) (A) (A)
 The electronic state is 1-A.
 Alpha  occ. eigenvalues --  -15.74338 -11.45120 -11.44521 -11.42265 -11.39365
 Alpha  occ. eigenvalues --  -11.38454 -11.35650  -1.36307  -1.19902  -1.16382
 Alpha  occ. eigenvalues --   -0.99566  -0.94731  -0.81702  -0.70821  -0.65970
 Alpha  occ. eigenvalues --   -0.64787  -0.58295  -0.57777  -0.57106  -0.54827
 Alpha  occ. eigenvalues --   -0.53259  -0.49962  -0.49082  -0.47232  -0.41936
 Alpha  occ. eigenvalues --   -0.33052  -0.31620
 Alpha virt. eigenvalues --    0.03461   0.04863   0.05205   0.05423   0.05817
 Alpha virt. eigenvalues --    0.06188   0.06406   0.06680   0.07644   0.08125
 Alpha virt. eigenvalues --    0.09149   0.10804   0.11332   0.12145   0.12529
 Alpha virt. eigenvalues --    0.13986   0.14631   0.14717   0.15078   0.16031
 Alpha virt. eigenvalues --    0.16612   0.16709   0.17078   0.18167   0.18320
 Alpha virt. eigenvalues --    0.18434   0.19133   0.19902   0.20199   0.20861
 Alpha virt. eigenvalues --    0.20898   0.21140   0.23017   0.23415   0.24962
 Alpha virt. eigenvalues --    0.25721   0.27119   0.27639   0.28423   0.29744
 Alpha virt. eigenvalues --    0.30237   0.31119   0.31845   0.33375   0.33936
 Alpha virt. eigenvalues --    0.35174   0.37708   0.39104   0.39583   0.40435
 Alpha virt. eigenvalues --    0.40874   0.41695   0.42249   0.43009   0.44270
 Alpha virt. eigenvalues --    0.44990   0.45407   0.45942   0.46371   0.46794
 Alpha virt. eigenvalues --    0.48071   0.48083   0.48687   0.49166   0.50657
 Alpha virt. eigenvalues --    0.50918   0.52301   0.53234   0.53352   0.55538
 Alpha virt. eigenvalues --    0.56440   0.56905   0.57225   0.58120   0.59348
 Alpha virt. eigenvalues --    0.60320   0.60807   0.62221   0.62596   0.62835
 Alpha virt. eigenvalues --    0.63900   0.64254   0.65984   0.66427   0.67803
 Alpha virt. eigenvalues --    0.69268   0.69767   0.70376   0.71228   0.72574
 Alpha virt. eigenvalues --    0.73301   0.73739   0.74316   0.74664   0.76259
 Alpha virt. eigenvalues --    0.77141   0.78366   0.78673   0.79452   0.80185
 Alpha virt. eigenvalues --    0.81015   0.81312   0.82583   0.83546   0.85476
 Alpha virt. eigenvalues --    0.85997   0.88574   0.88883   0.89984   0.90657
 Alpha virt. eigenvalues --    0.91827   0.93018   0.94174   0.95072   0.96604
 Alpha virt. eigenvalues --    0.97714   0.99136   1.01203   1.03440   1.04686
 Alpha virt. eigenvalues --    1.05347   1.08450   1.11786   1.15385   1.18293
 Alpha virt. eigenvalues --    1.18517   1.23840   1.25913   1.28426   1.30202
 Alpha virt. eigenvalues --    1.32696   1.33518   1.36118   1.40022   1.40361
 Alpha virt. eigenvalues --    1.46063   1.49663   1.51497   1.54112   1.55217
 Alpha virt. eigenvalues --    1.60286   1.61846   1.63921   1.65140   1.71481
 Alpha virt. eigenvalues --    1.75614   1.76618   1.79470   1.83369   1.85309
 Alpha virt. eigenvalues --    1.88278   1.89436   1.89790   1.91188   1.93718
 Alpha virt. eigenvalues --    1.93869   1.95568   1.96562   1.98172   1.98376
 Alpha virt. eigenvalues --    1.99665   2.01613   2.03221   2.05503   2.08648
 Alpha virt. eigenvalues --    2.08898   2.09551   2.11285   2.13218   2.15007
 Alpha virt. eigenvalues --    2.15579   2.17120   2.19292   2.21125   2.23812
 Alpha virt. eigenvalues --    2.25351   2.28276   2.28780   2.34483   2.35529
 Alpha virt. eigenvalues --    2.39891   2.41264   2.43420   2.45272   2.46595
 Alpha virt. eigenvalues --    2.48478   2.51178   2.53901   2.57137   2.59832
 Alpha virt. eigenvalues --    2.60942   2.63337   2.64952   2.67395   2.69531
 Alpha virt. eigenvalues --    2.70729   2.71452   2.73204   2.75011   2.77031
 Alpha virt. eigenvalues --    2.79715   2.82163   2.87104   2.90152   2.92422
 Alpha virt. eigenvalues --    2.95170   2.95404   3.01502   3.02107   3.05134
 Alpha virt. eigenvalues --    3.11401   3.13792   3.16644   3.19768   3.20257
 Alpha virt. eigenvalues --    3.22782   3.30386   3.33522   3.34089   3.39143
 Alpha virt. eigenvalues --    3.48400   3.48826   3.62109   3.70940   3.75515
 Alpha virt. eigenvalues --    3.77171   3.79438   3.82821   3.85798   3.97257
 Alpha virt. eigenvalues --    4.07172   4.09811   4.42298
          Condensed to atoms (all electrons):
 Mulliken charges:
               1
     1  C   -3.932212
     2  C   -2.571347
     3  C   -2.966423
     4  C   -1.279806
     5  C   -4.032307
     6  C    2.182876
     7  N   -2.844830
     8  H    1.143732
     9  H    1.259052
    10  H    1.249839
    11  H    1.234883
    12  H    2.397052
    13  H    1.409358
    14  H    1.509338
    15  H    1.376951
    16  H    1.309684
    17  H    1.353909
    18  H    1.200251
 Sum of Mulliken charges =  -0.00000
 Mulliken charges with hydrogens summed into heavy atoms:
               1
     1  C   -0.279589
     2  C   -1.336464
     3  C   -0.047727
     4  C    0.097145
     5  C   -0.168463
     6  C    2.182876
     7  N   -0.447778
 Electronic spatial extent (au):  <R**2>=            982.0412
 Charge=              0.0000 electrons
 Dipole moment (field-independent basis, Debye):
    X=              0.5085    Y=             -2.4380    Z=              0.3534  Tot=              2.5154

 Test job not archived.
 1\1\GINC-SE219\SP\RHF\Aug-CC-pVDZ\C6H11N1\OHZDE\09-Apr-2025\0\\#t hf a
 ug-cc-pvdz iop(5/13=1,5/36=2,99/5=2) pseudo=read geom=check guess=(rea
 d,tcheck) scf=(maxcycle=1)\\title\\0,1\C,0,-2.51799556,-0.0839097,-0.6
 3137496\C,0,-1.1720649,0.60578301,-0.70621588\C,0,-0.02547617,-0.10148
 702,-1.02446365\C,0,1.30279542,-0.53550146,0.80818899\C,0,2.66565163,-
 0.03490903,0.40975146\C,0,0.46821664,0.19340986,1.57739512\N,0,-0.4838
 5209,0.86485786,1.82699417\H,0,-3.21676599,0.46571595,0.00102983\H,0,-
 2.97232031,-0.17933732,-1.62104534\H,0,-2.41600323,-1.08780178,-0.2131
 5306\H,0,-1.18892026,1.65316308,-1.00314703\H,0,-0.95481524,0.90866502
 ,0.6861207\H,0,-0.07651607,-1.16990509,-1.19988546\H,0,0.81875231,0.40
 314302,-1.47601086\H,0,1.18152152,-1.61147597,0.89142547\H,0,2.9649057
 5,-0.47860862,-0.54170855\H,0,2.66793959,1.04977788,0.29719751\H,0,3.4
 2491395,-0.30070469,1.14841354\\Version=ES64L-G16RevC.01\State=1-A\HF=
 -289.4214491\RMSD=4.920e-01\Dipole=0.4312082,-0.4024012,-0.7946662\Qua
 drupole=1.8800826,1.4108632,-3.2909458,-0.2943411,0.8051228,-1.54953\P
 G=C01 [X(C6H11N1)]\\@


 LET US PLACE AT THE END OF EVERY CHAPTER.....THE
 TWO LETTERS USED BY THE ROMAN JUDGES WHEN THEY DID
 NOT UNDERSTAND A PLEADING.
 N. L. -NON LIQUET- IT IS NOT CLEAR.
                                              -- VOLTAIRE
 Job cpu time:       0 days  0 hours  1 minutes 23.8 seconds.
 Elapsed time:       0 days  0 hours  0 minutes  6.3 seconds.
 File lengths (MBytes):  RWF=     14 Int=      0 D2E=      0 Chk=      9 Scr=      1
 Normal termination of Gaussian 16 at Wed Apr  9 18:15:40 2025.
