 Entering Gaussian System, Link 0=g16
 Input=Grambow2020_wb97xd3_007370_forward_mol2.gjf
 Output=Grambow2020_wb97xd3_007370_forward_mol2.log
 Initial command:
 /arc/software/Gaussian/g16.c01/l1.exe "/tmp/slurm/4881574/Gau-1807278.inp" -scrdir="/tmp/slurm/4881574/"
 Entering Link 1 = /arc/software/Gaussian/g16.c01/l1.exe PID=   1807279.
  
 Copyright (c) 1988-2019, Gaussian, Inc.  All Rights Reserved.
  
 This is part of the Gaussian(R) 16 program.  It is based on
 the Gaussian(R) 09 system (copyright 2009, Gaussian, Inc.),
 the Gaussian(R) 03 system (copyright 2003, Gaussian, Inc.),
 the Gaussian(R) 98 system (copyright 1998, Gaussian, Inc.),
 the Gaussian(R) 94 system (copyright 1995, Gaussian, Inc.),
 the Gaussian 92(TM) system (copyright 1992, Gaussian, Inc.),
 the Gaussian 90(TM) system (copyright 1990, Gaussian, Inc.),
 the Gaussian 88(TM) system (copyright 1988, Gaussian, Inc.),
 the Gaussian 86(TM) system (copyright 1986, Carnegie Mellon
 University), and the Gaussian 82(TM) system (copyright 1983,
 Carnegie Mellon University). Gaussian is a federally registered
 trademark of Gaussian, Inc.
  
 This software contains proprietary and confidential information,
 including trade secrets, belonging to Gaussian, Inc.
  
 This software is provided under written license and may be
 used, copied, transmitted, or stored only in accord with that
 written license.
  
 The following legend is applicable only to US Government
 contracts under FAR:
  
                    RESTRICTED RIGHTS LEGEND
  
 Use, reproduction and disclosure by the US Government is
 subject to restrictions as set forth in subparagraphs (a)
 and (c) of the Commercial Computer Software - Restricted
 Rights clause in FAR 52.227-19.
  
 Gaussian, Inc.
 340 Quinnipiac St., Bldg. 40, Wallingford CT 06492
  
  
 ---------------------------------------------------------------
 Warning -- This program may not be used in any manner that
 competes with the business of Gaussian, Inc. or will provide
 assistance to any competitor of Gaussian, Inc.  The licensee
 of this program is prohibited from giving any competitor of
 Gaussian, Inc. access to this program.  By using this program,
 the user acknowledges that Gaussian, Inc. is engaged in the
 business of creating and licensing software in the field of
 computational chemistry and represents and warrants to the
 licensee that it is not a competitor of Gaussian, Inc. and that
 it will not use this program in any manner prohibited above.
 ---------------------------------------------------------------
  

 Cite this work as:
 Gaussian 16, Revision C.01,
 M. J. Frisch, G. W. Trucks, H. B. Schlegel, G. E. Scuseria, 
 M. A. Robb, J. R. Cheeseman, G. Scalmani, V. Barone, 
 G. A. Petersson, H. Nakatsuji, X. Li, M. Caricato, A. V. Marenich, 
 J. Bloino, B. G. Janesko, R. Gomperts, B. Mennucci, H. P. Hratchian, 
 J. V. Ortiz, A. F. Izmaylov, J. L. Sonnenberg, D. Williams-Young, 
 F. Ding, F. Lipparini, F. Egidi, J. Goings, B. Peng, A. Petrone, 
 T. Henderson, D. Ranasinghe, V. G. Zakrzewski, J. Gao, N. Rega, 
 G. Zheng, W. Liang, M. Hada, M. Ehara, K. Toyota, R. Fukuda, 
 J. Hasegawa, M. Ishida, T. Nakajima, Y. Honda, O. Kitao, H. Nakai, 
 T. Vreven, K. Throssell, J. A. Montgomery, Jr., J. E. Peralta, 
 F. Ogliaro, M. J. Bearpark, J. J. Heyd, E. N. Brothers, K. N. Kudin, 
 V. N. Staroverov, T. A. Keith, R. Kobayashi, J. Normand, 
 K. Raghavachari, A. P. Rendell, J. C. Burant, S. S. Iyengar, 
 J. Tomasi, M. Cossi, J. M. Millam, M. Klene, C. Adamo, R. Cammi, 
 J. W. Ochterski, R. L. Martin, K. Morokuma, O. Farkas, 
 J. B. Foresman, and D. J. Fox, Gaussian, Inc., Wallingford CT, 2019.
 
 ******************************************
 Gaussian 16:  ES64L-G16RevC.01  3-Jul-2019
                 9-Apr-2025 
 ******************************************
 %nprocs=16
 Will use up to   16 processors via shared memory.
 %mem=30GB
 %chk=Grambow2020_wb97xd3_007370_forward_mol2.chk
 ----------------------------------------------------------------------
 #t hf aug-cc-pvdz symm=none int=(grid=ultrafine) guess=(read,tcheck) s
 table=(opt,rrhf)
 ----------------------------------------------------------------------
 -----
 title
 -----
 Symbolic Z-matrix:
 Charge =  0 Multiplicity = 1
 C                    -1.39739  -0.43404   0.3714 
 C                    -0.65407   0.48091  -0.54948 
 C                     0.47701   1.33002  -0.03864 
 O                     1.36679   0.6227    0.82984 
 C                     1.57917  -0.68584   0.5737 
 N                     0.85276  -1.48403  -0.07376 
 C                    -0.38399  -0.99162  -0.59386 
 H                    -1.12342  -0.43975   1.41946 
 H                    -2.44461  -0.61848   0.17222 
 H                    -1.20068   0.92427  -1.37364 
 H                     0.12372   2.18422   0.54031 
 H                     1.06062   1.70493  -0.88566 
 H                     2.50158  -1.0245    1.03717 
 H                    -0.7575   -1.56879  -1.42907 
 
                    Distance matrix (angstroms):
                    1          2          3          4          5
     1  C    0.000000
     2  C    1.495880   0.000000
     3  C    2.606418   1.503759   0.000000
     4  O    2.994593   2.450817   1.430476   0.000000
     5  C    2.994028   2.758652   2.377685   1.350179   0.000000
     6  N    2.522656   2.521470   2.839244   2.349268   1.258569
     7  C    1.506514   1.497746   2.537636   2.774562   2.304493
     8  H    1.083300   2.223647   2.796337   2.770849   2.842502
     9  H    1.081832   2.221605   3.518093   4.061994   4.044315
    10  H    2.220104   1.083788   2.182083   3.396786   3.756610
    11  H    3.032754   2.166536   1.090717   2.016779   3.218178
    12  H    3.492446   2.133402   1.094804   2.051313   2.848578
    13  H    3.999229   3.839505   3.286336   2.010972   1.086433
    14  H    2.222336   2.232853   3.443893   3.797091   3.201669
                    6          7          8          9         10
     6  N    0.000000
     7  C    1.429166   0.000000
     8  H    2.688031   2.214675   0.000000
     9  H    3.417938   2.229857   1.825680   0.000000
    10  H    3.421433   2.223887   3.109330   2.513393   0.000000
    11  H    3.790075   3.410290   3.035366   3.819285   2.646640
    12  H    3.297250   3.073013   3.831869   4.336353   2.441515
    13  H    2.040573   3.314789   3.691704   5.037633   4.828705
    14  H    2.106407   1.081760   3.085897   2.512679   2.532756
                   11         12         13         14
    11  H    0.000000
    12  H    1.772259   0.000000
    13  H    4.024548   3.636402   0.000000
    14  H    4.328983   3.783923   4.123119   0.000000
 Symmetry turned off by external request.
 Rotational constants (GHZ):           4.4597983           3.4909568           2.3690798
   224 basis functions,   378 primitive gaussians,   238 cartesian basis functions
    26 alpha electrons       26 beta electrons
       nuclear repulsion energy       307.5346189432 Hartrees.
 NAtoms=   14 NActive=   14 NUniq=   14 SFac= 1.00D+00 NAtFMM=   60 NAOKFM=F Big=F
 ExpMin= 2.97D-02 ExpMax= 1.17D+04 ExpMxC= 4.01D+02 IAcc=3 IRadAn=         5 AccDes= 0.00D+00
 Harris functional with IExCor=  205 and IRadAn=       5 diagonalized for initial guess.
 HarFok:  IExCor=  205 AccDes= 0.00D+00 IRadAn=         5 IDoV= 1 UseB2=F ITyADJ=14
 ICtDFT=  3500011 ScaDFX=  1.000000  1.000000  1.000000  1.000000
 FoFCou: FMM=F IPFlag=           0 FMFlag=      100000 FMFlg1=           0
         NFxFlg=           0 DoJE=T BraDBF=F KetDBF=T FulRan=T
         wScrn=  0.000000 ICntrl=       500 IOpCl=  0 I1Cent=   200000004 NGrid=           0
         NMat0=    1 NMatS0=      1 NMatT0=    0 NMatD0=    1 NMtDS0=    0 NMtDT0=    0
 Symmetry not used in FoFCou.
 SCF Done:  E(RHF) =  -322.712607367     A.U. after   14 cycles
            NFock= 14  Conv=0.59D-08     -V/T= 2.0008

 **********************************************************************

            Population analysis using the SCF Density.

 **********************************************************************

 Alpha  occ. eigenvalues --  -20.60522 -15.55552 -11.33717 -11.30336 -11.26764
 Alpha  occ. eigenvalues --  -11.24664 -11.23756  -1.43596  -1.23866  -1.14292
 Alpha  occ. eigenvalues --   -0.98107  -0.88956  -0.82833  -0.74143  -0.71087
 Alpha  occ. eigenvalues --   -0.68294  -0.67258  -0.62249  -0.59507  -0.55195
 Alpha  occ. eigenvalues --   -0.53155  -0.50796  -0.48264  -0.45044  -0.39549
 Alpha  occ. eigenvalues --   -0.35892
 Alpha virt. eigenvalues --    0.03231   0.04399   0.04505   0.04741   0.06249
 Alpha virt. eigenvalues --    0.06599   0.07002   0.10162   0.10362   0.12252
 Alpha virt. eigenvalues --    0.12599   0.13471   0.13633   0.14450   0.14775
 Alpha virt. eigenvalues --    0.14996   0.15650   0.16591   0.16807   0.17805
 Alpha virt. eigenvalues --    0.18278   0.18437   0.19612   0.20659   0.22093
 Alpha virt. eigenvalues --    0.24077   0.25936   0.26389   0.27350   0.27982
 Alpha virt. eigenvalues --    0.29064   0.30420   0.31396   0.32337   0.32734
 Alpha virt. eigenvalues --    0.33796   0.34789   0.35193   0.36679   0.37663
 Alpha virt. eigenvalues --    0.39069   0.39233   0.40983   0.41516   0.42218
 Alpha virt. eigenvalues --    0.43347   0.44047   0.44461   0.45405   0.46736
 Alpha virt. eigenvalues --    0.47365   0.47856   0.48863   0.50303   0.52040
 Alpha virt. eigenvalues --    0.53304   0.53578   0.55909   0.56021   0.56729
 Alpha virt. eigenvalues --    0.57770   0.59729   0.60344   0.61551   0.62484
 Alpha virt. eigenvalues --    0.63045   0.64588   0.65037   0.66048   0.67610
 Alpha virt. eigenvalues --    0.69121   0.69234   0.70014   0.71044   0.72248
 Alpha virt. eigenvalues --    0.72516   0.73983   0.74490   0.75952   0.77516
 Alpha virt. eigenvalues --    0.78529   0.78794   0.80316   0.80609   0.80985
 Alpha virt. eigenvalues --    0.81799   0.83474   0.84857   0.85542   0.86145
 Alpha virt. eigenvalues --    0.88330   0.89041   0.91548   0.94306   0.96259
 Alpha virt. eigenvalues --    0.97242   0.98432   0.99008   1.02426   1.04073
 Alpha virt. eigenvalues --    1.06001   1.08661   1.09977   1.13914   1.14594
 Alpha virt. eigenvalues --    1.17298   1.19794   1.21614   1.22320   1.25826
 Alpha virt. eigenvalues --    1.28144   1.31672   1.33635   1.38086   1.38869
 Alpha virt. eigenvalues --    1.41353   1.45006   1.47427   1.50936   1.56217
 Alpha virt. eigenvalues --    1.58974   1.59955   1.61956   1.64941   1.66534
 Alpha virt. eigenvalues --    1.67758   1.70290   1.71174   1.73029   1.73949
 Alpha virt. eigenvalues --    1.74925   1.78376   1.80910   1.84121   1.84600
 Alpha virt. eigenvalues --    1.88286   1.90033   1.93383   1.95465   1.96489
 Alpha virt. eigenvalues --    1.97623   1.99269   2.02548   2.04251   2.05514
 Alpha virt. eigenvalues --    2.06509   2.08552   2.12059   2.13366   2.15260
 Alpha virt. eigenvalues --    2.16586   2.21806   2.23518   2.26287   2.27450
 Alpha virt. eigenvalues --    2.29746   2.31856   2.32293   2.36841   2.39079
 Alpha virt. eigenvalues --    2.41639   2.43387   2.45969   2.48343   2.50744
 Alpha virt. eigenvalues --    2.51776   2.57565   2.59227   2.64056   2.65445
 Alpha virt. eigenvalues --    2.67398   2.71038   2.73969   2.78248   2.82477
 Alpha virt. eigenvalues --    2.84259   2.86624   2.90349   2.94521   2.97286
 Alpha virt. eigenvalues --    2.97590   3.02275   3.03893   3.09454   3.14823
 Alpha virt. eigenvalues --    3.19621   3.28694   3.32478   3.39047   3.44874
 Alpha virt. eigenvalues --    3.52818   3.55619   3.79117   3.88075   3.89644
 Alpha virt. eigenvalues --    3.94395   4.08376   4.18602
          Condensed to atoms (all electrons):
 Mulliken charges:
               1
     1  C    0.818815
     2  C    0.204257
     3  C    0.948035
     4  O   -0.779425
     5  C    0.736559
     6  N   -0.636907
     7  C    0.792862
     8  H   -0.371832
     9  H   -0.358674
    10  H   -0.358222
    11  H   -0.173562
    12  H   -0.089416
    13  H   -0.304407
    14  H   -0.428082
 Sum of Mulliken charges =  -0.00000
 Mulliken charges with hydrogens summed into heavy atoms:
               1
     1  C    0.088308
     2  C   -0.153965
     3  C    0.685057
     4  O   -0.779425
     5  C    0.432153
     6  N   -0.636907
     7  C    0.364779
 Electronic spatial extent (au):  <R**2>=            599.6948
 Charge=             -0.0000 electrons
 Dipole moment (field-independent basis, Debye):
    X=             -1.1174    Y=              1.9470    Z=             -0.5783  Tot=              2.3182
 NROrb=    224 NOA=    26 NOB=    26 NVA=   198 NVB=   198

 **** Warning!!: The largest alpha MO coefficient is  0.53924978D+02

    12 initial guesses have been made.
 Iteration     1 Dimension    12 NMult     0 NNew     12
 New state      1 was old state      2
 Iteration     2 Dimension    24 NMult    12 NNew     12
 Iteration     3 Dimension    27 NMult    24 NNew      3
 Iteration     4 Dimension    30 NMult    27 NNew      3
 Iteration     5 Dimension    33 NMult    30 NNew      3
 Iteration     6 Dimension    36 NMult    33 NNew      3
 Iteration     7 Dimension    39 NMult    36 NNew      3
 Iteration     8 Dimension    42 NMult    39 NNew      3
 ***********************************************************************
 Stability analysis using <AA,BB:AA,BB> singles matrix:
 ***********************************************************************
 Ground to excited state transition densities written to RWF  633

 Eigenvectors of the stability matrix:
 
 Excited state symmetry could not be determined.
 Eigenvector   1:      Singlet-?Sym  Eigenvalue= 0.2485823  <S**2>=0.000
      25 -> 34        -0.10393
      25 -> 50        -0.13357
      26 -> 27         0.16361
      26 -> 34         0.14916
      26 -> 36         0.10441
      26 -> 37        -0.18320
      26 -> 40        -0.12503
      26 -> 41        -0.14754
      26 -> 43        -0.12652
      26 -> 46        -0.10849
      26 -> 48        -0.12941
      26 -> 50         0.20295
      26 -> 51         0.10958
 The wavefunction is stable under the perturbations considered.
 The wavefunction is already stable.

 **********************************************************************

            Population analysis using the SCF Density.

 **********************************************************************

 Alpha  occ. eigenvalues --  -20.60522 -15.55552 -11.33717 -11.30336 -11.26764
 Alpha  occ. eigenvalues --  -11.24664 -11.23756  -1.43596  -1.23866  -1.14292
 Alpha  occ. eigenvalues --   -0.98107  -0.88956  -0.82833  -0.74143  -0.71087
 Alpha  occ. eigenvalues --   -0.68294  -0.67258  -0.62249  -0.59507  -0.55195
 Alpha  occ. eigenvalues --   -0.53155  -0.50796  -0.48264  -0.45044  -0.39549
 Alpha  occ. eigenvalues --   -0.35892
 Alpha virt. eigenvalues --    0.03231   0.04399   0.04505   0.04741   0.06249
 Alpha virt. eigenvalues --    0.06599   0.07002   0.10162   0.10362   0.12252
 Alpha virt. eigenvalues --    0.12599   0.13471   0.13633   0.14450   0.14775
 Alpha virt. eigenvalues --    0.14996   0.15650   0.16591   0.16807   0.17805
 Alpha virt. eigenvalues --    0.18278   0.18437   0.19612   0.20659   0.22093
 Alpha virt. eigenvalues --    0.24077   0.25936   0.26389   0.27350   0.27982
 Alpha virt. eigenvalues --    0.29064   0.30420   0.31396   0.32337   0.32734
 Alpha virt. eigenvalues --    0.33796   0.34789   0.35193   0.36679   0.37663
 Alpha virt. eigenvalues --    0.39069   0.39233   0.40983   0.41516   0.42218
 Alpha virt. eigenvalues --    0.43347   0.44047   0.44461   0.45405   0.46736
 Alpha virt. eigenvalues --    0.47365   0.47856   0.48863   0.50303   0.52040
 Alpha virt. eigenvalues --    0.53304   0.53578   0.55909   0.56021   0.56729
 Alpha virt. eigenvalues --    0.57770   0.59729   0.60344   0.61551   0.62484
 Alpha virt. eigenvalues --    0.63045   0.64588   0.65037   0.66048   0.67610
 Alpha virt. eigenvalues --    0.69121   0.69234   0.70014   0.71044   0.72248
 Alpha virt. eigenvalues --    0.72516   0.73983   0.74490   0.75952   0.77516
 Alpha virt. eigenvalues --    0.78529   0.78794   0.80316   0.80609   0.80985
 Alpha virt. eigenvalues --    0.81799   0.83474   0.84857   0.85542   0.86145
 Alpha virt. eigenvalues --    0.88330   0.89041   0.91548   0.94306   0.96259
 Alpha virt. eigenvalues --    0.97242   0.98432   0.99008   1.02426   1.04073
 Alpha virt. eigenvalues --    1.06001   1.08661   1.09977   1.13914   1.14594
 Alpha virt. eigenvalues --    1.17298   1.19794   1.21614   1.22320   1.25826
 Alpha virt. eigenvalues --    1.28144   1.31672   1.33635   1.38086   1.38869
 Alpha virt. eigenvalues --    1.41353   1.45006   1.47427   1.50936   1.56217
 Alpha virt. eigenvalues --    1.58974   1.59955   1.61956   1.64941   1.66534
 Alpha virt. eigenvalues --    1.67758   1.70290   1.71174   1.73029   1.73949
 Alpha virt. eigenvalues --    1.74925   1.78376   1.80910   1.84121   1.84600
 Alpha virt. eigenvalues --    1.88286   1.90033   1.93383   1.95465   1.96489
 Alpha virt. eigenvalues --    1.97623   1.99269   2.02548   2.04251   2.05514
 Alpha virt. eigenvalues --    2.06509   2.08552   2.12059   2.13366   2.15260
 Alpha virt. eigenvalues --    2.16586   2.21806   2.23518   2.26287   2.27450
 Alpha virt. eigenvalues --    2.29746   2.31856   2.32293   2.36841   2.39079
 Alpha virt. eigenvalues --    2.41639   2.43387   2.45969   2.48343   2.50744
 Alpha virt. eigenvalues --    2.51776   2.57565   2.59227   2.64056   2.65445
 Alpha virt. eigenvalues --    2.67398   2.71038   2.73969   2.78248   2.82477
 Alpha virt. eigenvalues --    2.84259   2.86624   2.90349   2.94521   2.97286
 Alpha virt. eigenvalues --    2.97590   3.02275   3.03893   3.09454   3.14823
 Alpha virt. eigenvalues --    3.19621   3.28694   3.32478   3.39047   3.44874
 Alpha virt. eigenvalues --    3.52818   3.55619   3.79117   3.88075   3.89644
 Alpha virt. eigenvalues --    3.94395   4.08376   4.18602
          Condensed to atoms (all electrons):
 Mulliken charges:
               1
     1  C    0.818815
     2  C    0.204257
     3  C    0.948035
     4  O   -0.779425
     5  C    0.736559
     6  N   -0.636907
     7  C    0.792862
     8  H   -0.371832
     9  H   -0.358674
    10  H   -0.358222
    11  H   -0.173562
    12  H   -0.089416
    13  H   -0.304407
    14  H   -0.428082
 Sum of Mulliken charges =  -0.00000
 Mulliken charges with hydrogens summed into heavy atoms:
               1
     1  C    0.088308
     2  C   -0.153965
     3  C    0.685057
     4  O   -0.779425
     5  C    0.432153
     6  N   -0.636907
     7  C    0.364779
 Electronic spatial extent (au):  <R**2>=            599.6948
 Charge=             -0.0000 electrons
 Dipole moment (field-independent basis, Debye):
    X=             -1.1174    Y=              1.9470    Z=             -0.5783  Tot=              2.3182
 Unable to Open any file for archive entry.
 1\1\GINC-SE162\Stability\RHF\Aug-CC-pVDZ\C5H7N1O1\OHZDE\09-Apr-2025\0\
 \#t hf aug-cc-pvdz symm=none int=(grid=ultrafine) guess=(read,tcheck) 
 stable=(opt,rrhf)\\title\\0,1\C,0,-1.39738794,-0.43404229,0.37139511\C
 ,0,-0.65406958,0.48090601,-0.54947624\C,0,0.47701115,1.33001972,-0.038
 63933\O,0,1.36679456,0.62270296,0.8298372\C,0,1.57916563,-0.68583704,0
 .5737042\N,0,0.85275671,-1.4840323,-0.07376103\C,0,-0.38398937,-0.9916
 1877,-0.59385991\H,0,-1.12341621,-0.43974568,1.41946263\H,0,-2.4446086
 ,-0.61848144,0.1722204\H,0,-1.20067528,0.92427333,-1.37363878\H,0,0.12
 371836,2.1842206,0.54031489\H,0,1.06061821,1.70492936,-0.88565878\H,0,
 2.50157803,-1.02450313,1.03716568\H,0,-0.75749567,-1.56879134,-1.42906
 603\\Version=ES64L-G16RevC.01\HF=-322.7126074\RMSD=5.860e-09\Dipole=-0
 .4396109,0.7660146,-0.2275283\Quadrupole=1.6617126,-2.4728881,0.811175
 5,0.7212037,0.9557209,-1.310305\PG=Unknown\\@
 The archive entry for this job was punched.


 CHINESE FORTUNE COOKIE OF JAN 1 1967 SAY....
 ALL THINGS ARE DIFFICULT BEFORE THEY ARE EASY.
 WE LEARN SO LITTLE AND FORGET SO MUCH.
 YOU WILL OVERCOME OBSTACLES TO ACHIEVE SUCCESS.
 AH SO.
 Job cpu time:       0 days  0 hours  7 minutes 10.4 seconds.
 Elapsed time:       0 days  0 hours  0 minutes 30.8 seconds.
 File lengths (MBytes):  RWF=    235 Int=      0 D2E=      0 Chk=      7 Scr=      1
 Normal termination of Gaussian 16 at Wed Apr  9 18:39:32 2025.
 Initial command:
 /arc/software/Gaussian/g16.c01/l1.exe "/tmp/slurm/4881574/Gau-1807278.inp" -scrdir="/tmp/slurm/4881574/"
 Entering Link 1 = /arc/software/Gaussian/g16.c01/l1.exe PID=   1807494.
  
 Copyright (c) 1988-2019, Gaussian, Inc.  All Rights Reserved.
  
 This is part of the Gaussian(R) 16 program.  It is based on
 the Gaussian(R) 09 system (copyright 2009, Gaussian, Inc.),
 the Gaussian(R) 03 system (copyright 2003, Gaussian, Inc.),
 the Gaussian(R) 98 system (copyright 1998, Gaussian, Inc.),
 the Gaussian(R) 94 system (copyright 1995, Gaussian, Inc.),
 the Gaussian 92(TM) system (copyright 1992, Gaussian, Inc.),
 the Gaussian 90(TM) system (copyright 1990, Gaussian, Inc.),
 the Gaussian 88(TM) system (copyright 1988, Gaussian, Inc.),
 the Gaussian 86(TM) system (copyright 1986, Carnegie Mellon
 University), and the Gaussian 82(TM) system (copyright 1983,
 Carnegie Mellon University). Gaussian is a federally registered
 trademark of Gaussian, Inc.
  
 This software contains proprietary and confidential information,
 including trade secrets, belonging to Gaussian, Inc.
  
 This software is provided under written license and may be
 used, copied, transmitted, or stored only in accord with that
 written license.
  
 The following legend is applicable only to US Government
 contracts under FAR:
  
                    RESTRICTED RIGHTS LEGEND
  
 Use, reproduction and disclosure by the US Government is
 subject to restrictions as set forth in subparagraphs (a)
 and (c) of the Commercial Computer Software - Restricted
 Rights clause in FAR 52.227-19.
  
 Gaussian, Inc.
 340 Quinnipiac St., Bldg. 40, Wallingford CT 06492
  
  
 ---------------------------------------------------------------
 Warning -- This program may not be used in any manner that
 competes with the business of Gaussian, Inc. or will provide
 assistance to any competitor of Gaussian, Inc.  The licensee
 of this program is prohibited from giving any competitor of
 Gaussian, Inc. access to this program.  By using this program,
 the user acknowledges that Gaussian, Inc. is engaged in the
 business of creating and licensing software in the field of
 computational chemistry and represents and warrants to the
 licensee that it is not a competitor of Gaussian, Inc. and that
 it will not use this program in any manner prohibited above.
 ---------------------------------------------------------------
  

 Cite this work as:
 Gaussian 16, Revision C.01,
 M. J. Frisch, G. W. Trucks, H. B. Schlegel, G. E. Scuseria, 
 M. A. Robb, J. R. Cheeseman, G. Scalmani, V. Barone, 
 G. A. Petersson, H. Nakatsuji, X. Li, M. Caricato, A. V. Marenich, 
 J. Bloino, B. G. Janesko, R. Gomperts, B. Mennucci, H. P. Hratchian, 
 J. V. Ortiz, A. F. Izmaylov, J. L. Sonnenberg, D. Williams-Young, 
 F. Ding, F. Lipparini, F. Egidi, J. Goings, B. Peng, A. Petrone, 
 T. Henderson, D. Ranasinghe, V. G. Zakrzewski, J. Gao, N. Rega, 
 G. Zheng, W. Liang, M. Hada, M. Ehara, K. Toyota, R. Fukuda, 
 J. Hasegawa, M. Ishida, T. Nakajima, Y. Honda, O. Kitao, H. Nakai, 
 T. Vreven, K. Throssell, J. A. Montgomery, Jr., J. E. Peralta, 
 F. Ogliaro, M. J. Bearpark, J. J. Heyd, E. N. Brothers, K. N. Kudin, 
 V. N. Staroverov, T. A. Keith, R. Kobayashi, J. Normand, 
 K. Raghavachari, A. P. Rendell, J. C. Burant, S. S. Iyengar, 
 J. Tomasi, M. Cossi, J. M. Millam, M. Klene, C. Adamo, R. Cammi, 
 J. W. Ochterski, R. L. Martin, K. Morokuma, O. Farkas, 
 J. B. Foresman, and D. J. Fox, Gaussian, Inc., Wallingford CT, 2019.
 
 ******************************************
 Gaussian 16:  ES64L-G16RevC.01  3-Jul-2019
                 9-Apr-2025 
 ******************************************
 %nprocs=16
 Will use up to   16 processors via shared memory.
 %mem=30GB
 %chk=Grambow2020_wb97xd3_007370_forward_mol2.chk
 ----------------------------------------------------------------------
 #t hf aug-cc-pvdz iop(5/13=1,5/36=2,99/5=2) pseudo=read geom=check gue
 ss=(read,tcheck) scf=(maxcycle=1)
 ----------------------------------------------------------------------
 -----
 title
 -----
 Structure from the checkpoint file:  "Grambow2020_wb97xd3_007370_forward_mol2.chk"
 Charge =  0 Multiplicity = 1
 Z-Matrix found in chk file.
 C,0,-1.39738794,-0.43404229,0.37139511
 C,0,-0.65406958,0.48090601,-0.54947624
 C,0,0.47701115,1.33001972,-0.03863933
 O,0,1.36679456,0.62270296,0.8298372
 C,0,1.57916563,-0.68583704,0.5737042
 N,0,0.85275671,-1.4840323,-0.07376103
 C,0,-0.38398937,-0.99161877,-0.59385991
 H,0,-1.12341621,-0.43974568,1.41946263
 H,0,-2.4446086,-0.61848144,0.1722204
 H,0,-1.20067528,0.92427333,-1.37363878
 H,0,0.12371836,2.1842206,0.54031489
 H,0,1.06061821,1.70492936,-0.88565878
 H,0,2.50157803,-1.02450313,1.03716568
 H,0,-0.75749567,-1.56879134,-1.42906603
 Recover connectivity data from disk.
                    Distance matrix (angstroms):
                    1          2          3          4          5
     1  C    0.000000
     2  C    1.495880   0.000000
     3  C    2.606418   1.503759   0.000000
     4  O    2.994593   2.450817   1.430476   0.000000
     5  C    2.994028   2.758652   2.377685   1.350179   0.000000
     6  N    2.522656   2.521470   2.839244   2.349268   1.258569
     7  C    1.506514   1.497746   2.537636   2.774562   2.304493
     8  H    1.083300   2.223647   2.796337   2.770849   2.842502
     9  H    1.081832   2.221605   3.518093   4.061994   4.044315
    10  H    2.220104   1.083788   2.182083   3.396786   3.756610
    11  H    3.032754   2.166536   1.090717   2.016779   3.218178
    12  H    3.492446   2.133402   1.094804   2.051313   2.848578
    13  H    3.999229   3.839505   3.286336   2.010972   1.086433
    14  H    2.222336   2.232853   3.443893   3.797091   3.201669
                    6          7          8          9         10
     6  N    0.000000
     7  C    1.429166   0.000000
     8  H    2.688031   2.214675   0.000000
     9  H    3.417938   2.229857   1.825680   0.000000
    10  H    3.421433   2.223887   3.109330   2.513393   0.000000
    11  H    3.790075   3.410290   3.035366   3.819285   2.646640
    12  H    3.297250   3.073013   3.831869   4.336353   2.441515
    13  H    2.040573   3.314789   3.691704   5.037633   4.828705
    14  H    2.106407   1.081760   3.085897   2.512679   2.532756
                   11         12         13         14
    11  H    0.000000
    12  H    1.772259   0.000000
    13  H    4.024548   3.636402   0.000000
    14  H    4.328983   3.783923   4.123119   0.000000
 Framework group  C1[X(C5H7NO)]
 Deg. of freedom    36
                         Standard orientation:                         
 ---------------------------------------------------------------------
 Center     Atomic      Atomic             Coordinates (Angstroms)
 Number     Number       Type             X           Y           Z
 ---------------------------------------------------------------------
      1          6           0       -1.507504   -0.033758    0.782538
      2          6           0       -0.936851    0.746052   -0.359350
      3          6           0        0.419380    1.386188   -0.249104
      4          8           0        1.400549    0.531988    0.345801
      5          6           0        1.306977   -0.792050    0.098515
      6          7           0        0.297853   -1.450409   -0.265117
      7          6           0       -0.939318   -0.750678   -0.414448
      8          1           0       -0.934710   -0.092450    1.700144
      9          1           0       -2.581348   -0.035213    0.913750
     10          1           0       -1.625904    1.281246   -1.002289
     11          1           0        0.403242    2.284769    0.368920
     12          1           0        0.773376    1.660797   -1.248040
     13          1           0        2.257233   -1.286211    0.280598
     14          1           0       -1.637348   -1.250508   -1.072573
 ---------------------------------------------------------------------
 Rotational constants (GHZ):           4.4597983           3.4909568           2.3690798
 ======================================================================================================
                                       Pseudopotential Parameters
 ======================================================================================================
  Center     Atomic      Valence      Angular      Power
  Number     Number     Electrons     Momentum     of R      Exponent        Coefficient   SO-Coeffient
 ======================================================================================================
    1          6            6
                                      G and up 
                                                     0        0.0000010       -0.00286759    0.00000000
                                                     2        0.1200000        0.03193960    0.00000000
                                                     2        0.1600000       -0.04027782    0.00000000
                                                     2        0.2600000        0.24782456    0.00000000
                                                     2        0.4000000       -0.62266671    0.00000000
                                                     2        0.7000000        0.35695227    0.00000000
                                      S - G
                                                     0        0.0000010       -0.06602313    0.00000000
                                                     2        0.1200000        1.47277455    0.00000000
                                                     2        0.1600000       -4.06924166    0.00000000
                                                     2        0.3000000        5.02952802    0.00000000
                                                     2        0.7000000       -5.65856978    0.00000000
                                                     2        1.7000000        8.57604414    0.00000000
                                      P - G
                                                     0        0.0000010        0.49434425    0.00000000
                                                     2        0.1200000       -1.37391547    0.00000000
                                                     2        0.1600000        3.65411806    0.00000000
                                                     2        0.2800000       -7.36479843    0.00000000
                                                     2        0.6000000       17.22091285    0.00000000
                                                     2        1.1000000      -23.50107827    0.00000000
                                                     2        3.0000000       16.29464063    0.00000000
                                      D - G
                                                     0        0.0000010       -0.28693103    0.00000000
                                                     2        0.1200000        0.12273044    0.00000000
                                                     2        0.3000000       -0.43416384    0.00000000
                                                     2        0.7000000        2.23358493    0.00000000
                                      F - G
                                                     0        0.0000010        0.07263570    0.00000000
                                                     2        0.1400000       -0.76152861    0.00000000
                                                     2        0.2200000        1.98045593    0.00000000
                                                     2        0.4000000       -2.42426427    0.00000000
                                                     2        0.7000000        0.52335237    0.00000000
    2          6            6
                                      G and up 
                                                     0        0.0000010       -0.00286759    0.00000000
                                                     2        0.1200000        0.03193960    0.00000000
                                                     2        0.1600000       -0.04027782    0.00000000
                                                     2        0.2600000        0.24782456    0.00000000
                                                     2        0.4000000       -0.62266671    0.00000000
                                                     2        0.7000000        0.35695227    0.00000000
                                      S - G
                                                     0        0.0000010       -0.06602313    0.00000000
                                                     2        0.1200000        1.47277455    0.00000000
                                                     2        0.1600000       -4.06924166    0.00000000
                                                     2        0.3000000        5.02952802    0.00000000
                                                     2        0.7000000       -5.65856978    0.00000000
                                                     2        1.7000000        8.57604414    0.00000000
                                      P - G
                                                     0        0.0000010        0.49434425    0.00000000
                                                     2        0.1200000       -1.37391547    0.00000000
                                                     2        0.1600000        3.65411806    0.00000000
                                                     2        0.2800000       -7.36479843    0.00000000
                                                     2        0.6000000       17.22091285    0.00000000
                                                     2        1.1000000      -23.50107827    0.00000000
                                                     2        3.0000000       16.29464063    0.00000000
                                      D - G
                                                     0        0.0000010       -0.28693103    0.00000000
                                                     2        0.1200000        0.12273044    0.00000000
                                                     2        0.3000000       -0.43416384    0.00000000
                                                     2        0.7000000        2.23358493    0.00000000
                                      F - G
                                                     0        0.0000010        0.07263570    0.00000000
                                                     2        0.1400000       -0.76152861    0.00000000
                                                     2        0.2200000        1.98045593    0.00000000
                                                     2        0.4000000       -2.42426427    0.00000000
                                                     2        0.7000000        0.52335237    0.00000000
    3          6            6
                                      G and up 
                                                     0        0.0000010       -0.00286759    0.00000000
                                                     2        0.1200000        0.03193960    0.00000000
                                                     2        0.1600000       -0.04027782    0.00000000
                                                     2        0.2600000        0.24782456    0.00000000
                                                     2        0.4000000       -0.62266671    0.00000000
                                                     2        0.7000000        0.35695227    0.00000000
                                      S - G
                                                     0        0.0000010       -0.06602313    0.00000000
                                                     2        0.1200000        1.47277455    0.00000000
                                                     2        0.1600000       -4.06924166    0.00000000
                                                     2        0.3000000        5.02952802    0.00000000
                                                     2        0.7000000       -5.65856978    0.00000000
                                                     2        1.7000000        8.57604414    0.00000000
                                      P - G
                                                     0        0.0000010        0.49434425    0.00000000
                                                     2        0.1200000       -1.37391547    0.00000000
                                                     2        0.1600000        3.65411806    0.00000000
                                                     2        0.2800000       -7.36479843    0.00000000
                                                     2        0.6000000       17.22091285    0.00000000
                                                     2        1.1000000      -23.50107827    0.00000000
                                                     2        3.0000000       16.29464063    0.00000000
                                      D - G
                                                     0        0.0000010       -0.28693103    0.00000000
                                                     2        0.1200000        0.12273044    0.00000000
                                                     2        0.3000000       -0.43416384    0.00000000
                                                     2        0.7000000        2.23358493    0.00000000
                                      F - G
                                                     0        0.0000010        0.07263570    0.00000000
                                                     2        0.1400000       -0.76152861    0.00000000
                                                     2        0.2200000        1.98045593    0.00000000
                                                     2        0.4000000       -2.42426427    0.00000000
                                                     2        0.7000000        0.52335237    0.00000000
    4          8            8
                                      G and up 
                                                     0        0.0000010       -0.00165251    0.00000000
                                                     2        0.1200000       -0.10937202    0.00000000
                                                     2        0.1400000        0.35668905    0.00000000
                                                     2        0.1800000       -0.51696033    0.00000000
                                                     2        0.2400000        0.52446472    0.00000000
                                                     2        0.4000000       -0.07754493    0.00000000
                                                     2        0.8000000       -1.90560988    0.00000000
                                                     2        1.7000000        0.19857963    0.00000000
                                      S - G
                                                     0        0.0000010       -0.03845181    0.00000000
                                                     2        0.1400000        0.42024558    0.00000000
                                                     2        0.4000000       -4.10467779    0.00000000
                                                     2        1.3000000        9.99571838    0.00000000
                                      P - G
                                                     0        0.0000010        0.33206183    0.00000000
                                                     2        0.1200000       -0.18708141    0.00000000
                                                     2        0.2800000       -0.18179081    0.00000000
                                                     2        0.7000000        1.18820394    0.00000000
                                      D - G
                                                     0        0.0000010       -0.57891674    0.00000000
                                                     2        0.1200000        0.60487490    0.00000000
                                                     2        0.2400000       -0.24931464    0.00000000
                                                     2        0.3000000       -2.75054612    0.00000000
                                                     2        1.0000000       15.96776040    0.00000000
                                      F - G
                                                     0        0.0000010        0.37449041    0.00000000
                                                     2        0.1200000       -0.63373642    0.00000000
                                                     2        0.1400000       -0.08412804    0.00000000
                                                     2        0.2800000        2.62321406    0.00000000
                                                     2        0.6000000       -2.68223623    0.00000000
    5          6            6
                                      G and up 
                                                     0        0.0000010       -0.00286759    0.00000000
                                                     2        0.1200000        0.03193960    0.00000000
                                                     2        0.1600000       -0.04027782    0.00000000
                                                     2        0.2600000        0.24782456    0.00000000
                                                     2        0.4000000       -0.62266671    0.00000000
                                                     2        0.7000000        0.35695227    0.00000000
                                      S - G
                                                     0        0.0000010       -0.06602313    0.00000000
                                                     2        0.1200000        1.47277455    0.00000000
                                                     2        0.1600000       -4.06924166    0.00000000
                                                     2        0.3000000        5.02952802    0.00000000
                                                     2        0.7000000       -5.65856978    0.00000000
                                                     2        1.7000000        8.57604414    0.00000000
                                      P - G
                                                     0        0.0000010        0.49434425    0.00000000
                                                     2        0.1200000       -1.37391547    0.00000000
                                                     2        0.1600000        3.65411806    0.00000000
                                                     2        0.2800000       -7.36479843    0.00000000
                                                     2        0.6000000       17.22091285    0.00000000
                                                     2        1.1000000      -23.50107827    0.00000000
                                                     2        3.0000000       16.29464063    0.00000000
                                      D - G
                                                     0        0.0000010       -0.28693103    0.00000000
                                                     2        0.1200000        0.12273044    0.00000000
                                                     2        0.3000000       -0.43416384    0.00000000
                                                     2        0.7000000        2.23358493    0.00000000
                                      F - G
                                                     0        0.0000010        0.07263570    0.00000000
                                                     2        0.1400000       -0.76152861    0.00000000
                                                     2        0.2200000        1.98045593    0.00000000
                                                     2        0.4000000       -2.42426427    0.00000000
                                                     2        0.7000000        0.52335237    0.00000000
    6          7            7
                                      G and up 
                                                     0        0.0000010        0.00420138    0.00000000
                                                     2        0.1200000        0.05872431    0.00000000
                                                     2        0.1400000       -0.08436978    0.00000000
                                                     2        0.2000000        0.05409159    0.00000000
                                                     2        0.2600000        0.14199713    0.00000000
                                                     2        0.6000000       -0.79062770    0.00000000
                                                     2        0.7000000       -0.14441060    0.00000000
                                                     2        1.5000000        0.73772979    0.00000000
                                      S - G
                                                     0        0.0000010       -0.03094411    0.00000000
                                                     2        0.1200000        0.65332522    0.00000000
                                                     2        0.1800000       -1.38149133    0.00000000
                                                     2        1.3000000        3.29267299    0.00000000
                                      P - G
                                                     0        0.0000010        0.07303105    0.00000000
                                                     2        0.1200000        0.23145115    0.00000000
                                                     2        0.2000000       -1.20679699    0.00000000
                                                     2        0.4000000        1.75088447    0.00000000
                                                     2        1.2000000       -0.67486559    0.00000000
                                      D - G
                                                     0        0.0000010        0.07560739    0.00000000
                                                     2        0.3000000       -0.68679114    0.00000000
                                                     2        0.9000000        3.60133241    0.00000000
                                      F - G
                                                     0        0.0000010       -0.18221184    0.00000000
                                                     2        0.1200000       -0.39369067    0.00000000
                                                     2        0.1800000        0.72091725    0.00000000
                                                     2        0.6000000        0.15946111    0.00000000
    7          6            6
                                      G and up 
                                                     0        0.0000010       -0.00286759    0.00000000
                                                     2        0.1200000        0.03193960    0.00000000
                                                     2        0.1600000       -0.04027782    0.00000000
                                                     2        0.2600000        0.24782456    0.00000000
                                                     2        0.4000000       -0.62266671    0.00000000
                                                     2        0.7000000        0.35695227    0.00000000
                                      S - G
                                                     0        0.0000010       -0.06602313    0.00000000
                                                     2        0.1200000        1.47277455    0.00000000
                                                     2        0.1600000       -4.06924166    0.00000000
                                                     2        0.3000000        5.02952802    0.00000000
                                                     2        0.7000000       -5.65856978    0.00000000
                                                     2        1.7000000        8.57604414    0.00000000
                                      P - G
                                                     0        0.0000010        0.49434425    0.00000000
                                                     2        0.1200000       -1.37391547    0.00000000
                                                     2        0.1600000        3.65411806    0.00000000
                                                     2        0.2800000       -7.36479843    0.00000000
                                                     2        0.6000000       17.22091285    0.00000000
                                                     2        1.1000000      -23.50107827    0.00000000
                                                     2        3.0000000       16.29464063    0.00000000
                                      D - G
                                                     0        0.0000010       -0.28693103    0.00000000
                                                     2        0.1200000        0.12273044    0.00000000
                                                     2        0.3000000       -0.43416384    0.00000000
                                                     2        0.7000000        2.23358493    0.00000000
                                      F - G
                                                     0        0.0000010        0.07263570    0.00000000
                                                     2        0.1400000       -0.76152861    0.00000000
                                                     2        0.2200000        1.98045593    0.00000000
                                                     2        0.4000000       -2.42426427    0.00000000
                                                     2        0.7000000        0.52335237    0.00000000
    8          1            1
                                      F and up 
                                                     0        0.0000010        0.00072061    0.00000000
                                                     2        0.1200000        0.03832357    0.00000000
                                                     2        0.1400000       -0.08683256    0.00000000
                                                     2        0.1800000        0.09312970    0.00000000
                                                     2        0.2800000       -0.02532572    0.00000000
                                                     2        0.4000000       -0.09430787    0.00000000
                                                     2        0.7000000        0.42710831    0.00000000
                                                     2        1.2000000       -2.11746981    0.00000000
                                      S - F
                                                     0        0.0000010        0.14449603    0.00000000
                                                     2        0.1200000       -0.56378993    0.00000000
                                                     2        0.1400000        0.63941249    0.00000000
                                                     2        0.2600000       -0.58461015    0.00000000
                                                     2        0.5000000        1.00157293    0.00000000
                                                     2        1.8000000       -0.14135838    0.00000000
                                      P - F
                                                     0        0.0000010       -0.09353646    0.00000000
                                                     2        0.1200000        0.31768975    0.00000000
                                                     2        0.2000000       -0.71747951    0.00000000
                                                     2        0.4000000        0.65752308    0.00000000
                                                     2        1.7000000        2.94052587    0.00000000
                                      D - F
                                                     0        0.0000010       -0.04491202    0.00000000
                                                     2        0.1200000       -0.02862031    0.00000000
                                                     2        0.1800000       -0.21515263    0.00000000
                                                     2        0.3000000        0.80560647    0.00000000
                                                     2        0.4000000        0.47351754    0.00000000
                                                     2        0.7000000       -4.57051794    0.00000000
                                                     2        1.6000000       18.53737826    0.00000000
    9          1            1
                                      F and up 
                                                     0        0.0000010        0.00072061    0.00000000
                                                     2        0.1200000        0.03832357    0.00000000
                                                     2        0.1400000       -0.08683256    0.00000000
                                                     2        0.1800000        0.09312970    0.00000000
                                                     2        0.2800000       -0.02532572    0.00000000
                                                     2        0.4000000       -0.09430787    0.00000000
                                                     2        0.7000000        0.42710831    0.00000000
                                                     2        1.2000000       -2.11746981    0.00000000
                                      S - F
                                                     0        0.0000010        0.14449603    0.00000000
                                                     2        0.1200000       -0.56378993    0.00000000
                                                     2        0.1400000        0.63941249    0.00000000
                                                     2        0.2600000       -0.58461015    0.00000000
                                                     2        0.5000000        1.00157293    0.00000000
                                                     2        1.8000000       -0.14135838    0.00000000
                                      P - F
                                                     0        0.0000010       -0.09353646    0.00000000
                                                     2        0.1200000        0.31768975    0.00000000
                                                     2        0.2000000       -0.71747951    0.00000000
                                                     2        0.4000000        0.65752308    0.00000000
                                                     2        1.7000000        2.94052587    0.00000000
                                      D - F
                                                     0        0.0000010       -0.04491202    0.00000000
                                                     2        0.1200000       -0.02862031    0.00000000
                                                     2        0.1800000       -0.21515263    0.00000000
                                                     2        0.3000000        0.80560647    0.00000000
                                                     2        0.4000000        0.47351754    0.00000000
                                                     2        0.7000000       -4.57051794    0.00000000
                                                     2        1.6000000       18.53737826    0.00000000
   10          1            1
                                      F and up 
                                                     0        0.0000010        0.00072061    0.00000000
                                                     2        0.1200000        0.03832357    0.00000000
                                                     2        0.1400000       -0.08683256    0.00000000
                                                     2        0.1800000        0.09312970    0.00000000
                                                     2        0.2800000       -0.02532572    0.00000000
                                                     2        0.4000000       -0.09430787    0.00000000
                                                     2        0.7000000        0.42710831    0.00000000
                                                     2        1.2000000       -2.11746981    0.00000000
                                      S - F
                                                     0        0.0000010        0.14449603    0.00000000
                                                     2        0.1200000       -0.56378993    0.00000000
                                                     2        0.1400000        0.63941249    0.00000000
                                                     2        0.2600000       -0.58461015    0.00000000
                                                     2        0.5000000        1.00157293    0.00000000
                                                     2        1.8000000       -0.14135838    0.00000000
                                      P - F
                                                     0        0.0000010       -0.09353646    0.00000000
                                                     2        0.1200000        0.31768975    0.00000000
                                                     2        0.2000000       -0.71747951    0.00000000
                                                     2        0.4000000        0.65752308    0.00000000
                                                     2        1.7000000        2.94052587    0.00000000
                                      D - F
                                                     0        0.0000010       -0.04491202    0.00000000
                                                     2        0.1200000       -0.02862031    0.00000000
                                                     2        0.1800000       -0.21515263    0.00000000
                                                     2        0.3000000        0.80560647    0.00000000
                                                     2        0.4000000        0.47351754    0.00000000
                                                     2        0.7000000       -4.57051794    0.00000000
                                                     2        1.6000000       18.53737826    0.00000000
   11          1            1
                                      F and up 
                                                     0        0.0000010        0.00072061    0.00000000
                                                     2        0.1200000        0.03832357    0.00000000
                                                     2        0.1400000       -0.08683256    0.00000000
                                                     2        0.1800000        0.09312970    0.00000000
                                                     2        0.2800000       -0.02532572    0.00000000
                                                     2        0.4000000       -0.09430787    0.00000000
                                                     2        0.7000000        0.42710831    0.00000000
                                                     2        1.2000000       -2.11746981    0.00000000
                                      S - F
                                                     0        0.0000010        0.14449603    0.00000000
                                                     2        0.1200000       -0.56378993    0.00000000
                                                     2        0.1400000        0.63941249    0.00000000
                                                     2        0.2600000       -0.58461015    0.00000000
                                                     2        0.5000000        1.00157293    0.00000000
                                                     2        1.8000000       -0.14135838    0.00000000
                                      P - F
                                                     0        0.0000010       -0.09353646    0.00000000
                                                     2        0.1200000        0.31768975    0.00000000
                                                     2        0.2000000       -0.71747951    0.00000000
                                                     2        0.4000000        0.65752308    0.00000000
                                                     2        1.7000000        2.94052587    0.00000000
                                      D - F
                                                     0        0.0000010       -0.04491202    0.00000000
                                                     2        0.1200000       -0.02862031    0.00000000
                                                     2        0.1800000       -0.21515263    0.00000000
                                                     2        0.3000000        0.80560647    0.00000000
                                                     2        0.4000000        0.47351754    0.00000000
                                                     2        0.7000000       -4.57051794    0.00000000
                                                     2        1.6000000       18.53737826    0.00000000
   12          1            1
                                      F and up 
                                                     0        0.0000010        0.00072061    0.00000000
                                                     2        0.1200000        0.03832357    0.00000000
                                                     2        0.1400000       -0.08683256    0.00000000
                                                     2        0.1800000        0.09312970    0.00000000
                                                     2        0.2800000       -0.02532572    0.00000000
                                                     2        0.4000000       -0.09430787    0.00000000
                                                     2        0.7000000        0.42710831    0.00000000
                                                     2        1.2000000       -2.11746981    0.00000000
                                      S - F
                                                     0        0.0000010        0.14449603    0.00000000
                                                     2        0.1200000       -0.56378993    0.00000000
                                                     2        0.1400000        0.63941249    0.00000000
                                                     2        0.2600000       -0.58461015    0.00000000
                                                     2        0.5000000        1.00157293    0.00000000
                                                     2        1.8000000       -0.14135838    0.00000000
                                      P - F
                                                     0        0.0000010       -0.09353646    0.00000000
                                                     2        0.1200000        0.31768975    0.00000000
                                                     2        0.2000000       -0.71747951    0.00000000
                                                     2        0.4000000        0.65752308    0.00000000
                                                     2        1.7000000        2.94052587    0.00000000
                                      D - F
                                                     0        0.0000010       -0.04491202    0.00000000
                                                     2        0.1200000       -0.02862031    0.00000000
                                                     2        0.1800000       -0.21515263    0.00000000
                                                     2        0.3000000        0.80560647    0.00000000
                                                     2        0.4000000        0.47351754    0.00000000
                                                     2        0.7000000       -4.57051794    0.00000000
                                                     2        1.6000000       18.53737826    0.00000000
   13          1            1
                                      F and up 
                                                     0        0.0000010        0.00072061    0.00000000
                                                     2        0.1200000        0.03832357    0.00000000
                                                     2        0.1400000       -0.08683256    0.00000000
                                                     2        0.1800000        0.09312970    0.00000000
                                                     2        0.2800000       -0.02532572    0.00000000
                                                     2        0.4000000       -0.09430787    0.00000000
                                                     2        0.7000000        0.42710831    0.00000000
                                                     2        1.2000000       -2.11746981    0.00000000
                                      S - F
                                                     0        0.0000010        0.14449603    0.00000000
                                                     2        0.1200000       -0.56378993    0.00000000
                                                     2        0.1400000        0.63941249    0.00000000
                                                     2        0.2600000       -0.58461015    0.00000000
                                                     2        0.5000000        1.00157293    0.00000000
                                                     2        1.8000000       -0.14135838    0.00000000
                                      P - F
                                                     0        0.0000010       -0.09353646    0.00000000
                                                     2        0.1200000        0.31768975    0.00000000
                                                     2        0.2000000       -0.71747951    0.00000000
                                                     2        0.4000000        0.65752308    0.00000000
                                                     2        1.7000000        2.94052587    0.00000000
                                      D - F
                                                     0        0.0000010       -0.04491202    0.00000000
                                                     2        0.1200000       -0.02862031    0.00000000
                                                     2        0.1800000       -0.21515263    0.00000000
                                                     2        0.3000000        0.80560647    0.00000000
                                                     2        0.4000000        0.47351754    0.00000000
                                                     2        0.7000000       -4.57051794    0.00000000
                                                     2        1.6000000       18.53737826    0.00000000
   14          1            1
                                      F and up 
                                                     0        0.0000010        0.00072061    0.00000000
                                                     2        0.1200000        0.03832357    0.00000000
                                                     2        0.1400000       -0.08683256    0.00000000
                                                     2        0.1800000        0.09312970    0.00000000
                                                     2        0.2800000       -0.02532572    0.00000000
                                                     2        0.4000000       -0.09430787    0.00000000
                                                     2        0.7000000        0.42710831    0.00000000
                                                     2        1.2000000       -2.11746981    0.00000000
                                      S - F
                                                     0        0.0000010        0.14449603    0.00000000
                                                     2        0.1200000       -0.56378993    0.00000000
                                                     2        0.1400000        0.63941249    0.00000000
                                                     2        0.2600000       -0.58461015    0.00000000
                                                     2        0.5000000        1.00157293    0.00000000
                                                     2        1.8000000       -0.14135838    0.00000000
                                      P - F
                                                     0        0.0000010       -0.09353646    0.00000000
                                                     2        0.1200000        0.31768975    0.00000000
                                                     2        0.2000000       -0.71747951    0.00000000
                                                     2        0.4000000        0.65752308    0.00000000
                                                     2        1.7000000        2.94052587    0.00000000
                                      D - F
                                                     0        0.0000010       -0.04491202    0.00000000
                                                     2        0.1200000       -0.02862031    0.00000000
                                                     2        0.1800000       -0.21515263    0.00000000
                                                     2        0.3000000        0.80560647    0.00000000
                                                     2        0.4000000        0.47351754    0.00000000
                                                     2        0.7000000       -4.57051794    0.00000000
                                                     2        1.6000000       18.53737826    0.00000000
 ======================================================================================================
   224 basis functions,   378 primitive gaussians,   238 cartesian basis functions
    26 alpha electrons       26 beta electrons
       nuclear repulsion energy       307.5346189432 Hartrees.
 NAtoms=   14 NActive=   14 NUniq=   14 SFac= 1.00D+00 NAtFMM=   60 NAOKFM=F Big=F
   1 Symmetry operations used in ECPInt.
 ECPInt:  NShTT=    4851 NPrTT=   22491 LenC2=    4851 LenP2D=   18000.
 LDataN:  DoStor=T MaxTD1= 6 Len=  172
 Initial guess from the checkpoint file:  "Grambow2020_wb97xd3_007370_forward_mol2.chk"
 B after Tr=    -0.446026    0.296925   -0.016286
         Rot=    0.984571    0.010189   -0.152468    0.085265 Ang=  20.16 deg.
 >>>>>>>>>> Convergence criterion not met.
 SCF Done:  E(RHF) =  -324.193741254     A.U. after    2 cycles
            NFock=  1  Conv=0.39D+00     -V/T= 2.0174

 **********************************************************************

            Population analysis using the SCF Density.

 **********************************************************************

 Orbital symmetries:
       Occupied  (A) (A) (A) (A) (A) (A) (A) (A) (A) (A) (A) (A)
                 (A) (A) (A) (A) (A) (A) (A) (A) (A) (A) (A) (A)
                 (A) (A)
       Virtual   (A) (A) (A) (A) (A) (A) (A) (A) (A) (A) (A) (A)
                 (A) (A) (A) (A) (A) (A) (A) (A) (A) (A) (A) (A)
                 (A) (A) (A) (A) (A) (A) (A) (A) (A) (A) (A) (A)
                 (A) (A) (A) (A) (A) (A) (A) (A) (A) (A) (A) (A)
                 (A) (A) (A) (A) (A) (A) (A) (A) (A) (A) (A) (A)
                 (A) (A) (A) (A) (A) (A) (A) (A) (A) (A) (A) (A)
                 (A) (A) (A) (A) (A) (A) (A) (A) (A) (A) (A) (A)
                 (A) (A) (A) (A) (A) (A) (A) (A) (A) (A) (A) (A)
                 (A) (A) (A) (A) (A) (A) (A) (A) (A) (A) (A) (A)
                 (A) (A) (A) (A) (A) (A) (A) (A) (A) (A) (A) (A)
                 (A) (A) (A) (A) (A) (A) (A) (A) (A) (A) (A) (A)
                 (A) (A) (A) (A) (A) (A) (A) (A) (A) (A) (A) (A)
                 (A) (A) (A) (A) (A) (A) (A) (A) (A) (A) (A) (A)
                 (A) (A) (A) (A) (A) (A) (A) (A) (A) (A) (A) (A)
                 (A) (A) (A) (A) (A) (A) (A) (A) (A) (A) (A) (A)
                 (A) (A) (A) (A) (A) (A) (A) (A) (A) (A) (A) (A)
                 (A) (A) (A) (A) (A) (A)
 The electronic state is 1-A.
 Alpha  occ. eigenvalues --  -21.08257 -15.71866 -11.46745 -11.44993 -11.43534
 Alpha  occ. eigenvalues --  -11.41162 -11.36987  -1.80927  -1.40348  -1.25643
 Alpha  occ. eigenvalues --   -1.03036  -0.92439  -0.85333  -0.75715  -0.68553
 Alpha  occ. eigenvalues --   -0.66290  -0.63993  -0.58425  -0.57246  -0.52929
 Alpha  occ. eigenvalues --   -0.50939  -0.44544  -0.42374  -0.38631  -0.33010
 Alpha  occ. eigenvalues --   -0.28544
 Alpha virt. eigenvalues --    0.03554   0.05216   0.05410   0.05530   0.05859
 Alpha virt. eigenvalues --    0.06218   0.06835   0.09865   0.10614   0.12385
 Alpha virt. eigenvalues --    0.12732   0.13182   0.13470   0.13956   0.14287
 Alpha virt. eigenvalues --    0.14830   0.15974   0.16657   0.17106   0.17370
 Alpha virt. eigenvalues --    0.17875   0.18676   0.19859   0.20441   0.22929
 Alpha virt. eigenvalues --    0.23365   0.25015   0.25415   0.27271   0.27878
 Alpha virt. eigenvalues --    0.29951   0.30730   0.31457   0.32644   0.33199
 Alpha virt. eigenvalues --    0.34135   0.34494   0.35057   0.36433   0.38318
 Alpha virt. eigenvalues --    0.38766   0.39085   0.41067   0.41869   0.42085
 Alpha virt. eigenvalues --    0.43513   0.44254   0.44705   0.45699   0.47271
 Alpha virt. eigenvalues --    0.47967   0.48333   0.49331   0.49987   0.52439
 Alpha virt. eigenvalues --    0.54141   0.55482   0.56258   0.56839   0.57565
 Alpha virt. eigenvalues --    0.58765   0.60251   0.60590   0.62317   0.62472
 Alpha virt. eigenvalues --    0.63884   0.65316   0.65856   0.67020   0.67408
 Alpha virt. eigenvalues --    0.69118   0.69806   0.71774   0.72385   0.73523
 Alpha virt. eigenvalues --    0.74610   0.75019   0.76539   0.77714   0.77958
 Alpha virt. eigenvalues --    0.79778   0.80508   0.81794   0.82501   0.83510
 Alpha virt. eigenvalues --    0.83957   0.85437   0.86178   0.86789   0.89552
 Alpha virt. eigenvalues --    0.90513   0.91397   0.94006   0.96827   0.97437
 Alpha virt. eigenvalues --    0.99306   1.00887   1.02760   1.05553   1.08831
 Alpha virt. eigenvalues --    1.10544   1.15457   1.16772   1.19825   1.22463
 Alpha virt. eigenvalues --    1.25923   1.29313   1.31361   1.34465   1.38530
 Alpha virt. eigenvalues --    1.40343   1.41678   1.46066   1.50062   1.55894
 Alpha virt. eigenvalues --    1.60144   1.63636   1.66484   1.72527   1.73828
 Alpha virt. eigenvalues --    1.79029   1.80433   1.81822   1.87189   1.89688
 Alpha virt. eigenvalues --    1.90791   1.90953   1.92041   1.93246   1.95428
 Alpha virt. eigenvalues --    1.98200   1.98858   2.01124   2.04902   2.06180
 Alpha virt. eigenvalues --    2.10240   2.11305   2.15539   2.17133   2.18516
 Alpha virt. eigenvalues --    2.19897   2.21142   2.22222   2.25361   2.25939
 Alpha virt. eigenvalues --    2.29081   2.31388   2.34550   2.37069   2.39211
 Alpha virt. eigenvalues --    2.41263   2.46253   2.47404   2.52033   2.53093
 Alpha virt. eigenvalues --    2.56270   2.58384   2.63140   2.65343   2.68628
 Alpha virt. eigenvalues --    2.70925   2.74309   2.74690   2.76662   2.79668
 Alpha virt. eigenvalues --    2.81117   2.84153   2.89650   2.95472   2.96346
 Alpha virt. eigenvalues --    3.01569   3.03262   3.06321   3.09095   3.19531
 Alpha virt. eigenvalues --    3.20589   3.24935   3.31067   3.37365   3.41231
 Alpha virt. eigenvalues --    3.42904   3.48446   3.51400   3.60662   3.67739
 Alpha virt. eigenvalues --    3.74479   3.84775   3.86681   3.91632   3.97803
 Alpha virt. eigenvalues --    4.03731   4.11635   4.23311   6.07716   6.15384
 Alpha virt. eigenvalues --    6.21089   6.36121   6.44983
          Condensed to atoms (all electrons):
 Mulliken charges:
               1
     1  C   -2.321420
     2  C   -0.892315
     3  C   -1.901252
     4  O   -3.250939
     5  C    1.857976
     6  N   -3.334061
     7  C    0.242592
     8  H    1.316068
     9  H    1.202263
    10  H    1.269136
    11  H    1.356140
    12  H    1.327678
    13  H    1.777873
    14  H    1.350262
 Sum of Mulliken charges =  -0.00000
 Mulliken charges with hydrogens summed into heavy atoms:
               1
     1  C    0.196911
     2  C    0.376821
     3  C    0.782566
     4  O   -3.250939
     5  C    3.635850
     6  N   -3.334061
     7  C    1.592854
 Electronic spatial extent (au):  <R**2>=            604.9948
 Charge=             -0.0000 electrons
 Dipole moment (field-independent basis, Debye):
    X=             -0.3949    Y=              2.0564    Z=              0.0749  Tot=              2.0953

 Test job not archived.
 1\1\GINC-SE162\SP\RHF\Aug-CC-pVDZ\C5H7N1O1\OHZDE\09-Apr-2025\0\\#t hf 
 aug-cc-pvdz iop(5/13=1,5/36=2,99/5=2) pseudo=read geom=check guess=(re
 ad,tcheck) scf=(maxcycle=1)\\title\\0,1\C,0,-1.39738794,-0.43404229,0.
 37139511\C,0,-0.65406958,0.48090601,-0.54947624\C,0,0.47701115,1.33001
 972,-0.03863933\O,0,1.36679456,0.62270296,0.8298372\C,0,1.57916563,-0.
 68583704,0.5737042\N,0,0.85275671,-1.4840323,-0.07376103\C,0,-0.383989
 37,-0.99161877,-0.59385991\H,0,-1.12341621,-0.43974568,1.41946263\H,0,
 -2.4446086,-0.61848144,0.1722204\H,0,-1.20067528,0.92427333,-1.3736387
 8\H,0,0.12371836,2.1842206,0.54031489\H,0,1.06061821,1.70492936,-0.885
 65878\H,0,2.50157803,-1.02450313,1.03716568\H,0,-0.75749567,-1.5687913
 4,-1.42906603\\Version=ES64L-G16RevC.01\State=1-A\HF=-324.1937413\RMSD
 =3.925e-01\Dipole=-0.2930292,0.7701677,-0.0236457\Quadrupole=1.630063,
 -2.3618825,0.7318195,0.7226459,1.1050001,-0.8261303\PG=C01 [X(C5H7N1O1
 )]\\@


 THIS CURIOUS WORLD WHICH WE INHABIT IS MORE WONDERFUL THAN IT IS CONVENIENT;
 MORE BEAUTIFUL THAN IT IS USEFUL;
 IT IS MORE TO BE ADMIRED THAN IT IS TO BE USED.

                                                                 -- THOREAU
 Job cpu time:       0 days  0 hours  0 minutes 55.8 seconds.
 Elapsed time:       0 days  0 hours  0 minutes  4.4 seconds.
 File lengths (MBytes):  RWF=     10 Int=      0 D2E=      0 Chk=      7 Scr=      1
 Normal termination of Gaussian 16 at Wed Apr  9 18:39:37 2025.
