 Entering Gaussian System, Link 0=g16
 Input=Grambow2020_wb97xd3_006602_forward_mol1.gjf
 Output=Grambow2020_wb97xd3_006602_forward_mol1.log
 Initial command:
 /arc/software/Gaussian/g16.c01/l1.exe "/tmp/slurm/4880257/Gau-1842784.inp" -scrdir="/tmp/slurm/4880257/"
 Entering Link 1 = /arc/software/Gaussian/g16.c01/l1.exe PID=   1842785.
  
 Copyright (c) 1988-2019, Gaussian, Inc.  All Rights Reserved.
  
 This is part of the Gaussian(R) 16 program.  It is based on
 the Gaussian(R) 09 system (copyright 2009, Gaussian, Inc.),
 the Gaussian(R) 03 system (copyright 2003, Gaussian, Inc.),
 the Gaussian(R) 98 system (copyright 1998, Gaussian, Inc.),
 the Gaussian(R) 94 system (copyright 1995, Gaussian, Inc.),
 the Gaussian 92(TM) system (copyright 1992, Gaussian, Inc.),
 the Gaussian 90(TM) system (copyright 1990, Gaussian, Inc.),
 the Gaussian 88(TM) system (copyright 1988, Gaussian, Inc.),
 the Gaussian 86(TM) system (copyright 1986, Carnegie Mellon
 University), and the Gaussian 82(TM) system (copyright 1983,
 Carnegie Mellon University). Gaussian is a federally registered
 trademark of Gaussian, Inc.
  
 This software contains proprietary and confidential information,
 including trade secrets, belonging to Gaussian, Inc.
  
 This software is provided under written license and may be
 used, copied, transmitted, or stored only in accord with that
 written license.
  
 The following legend is applicable only to US Government
 contracts under FAR:
  
                    RESTRICTED RIGHTS LEGEND
  
 Use, reproduction and disclosure by the US Government is
 subject to restrictions as set forth in subparagraphs (a)
 and (c) of the Commercial Computer Software - Restricted
 Rights clause in FAR 52.227-19.
  
 Gaussian, Inc.
 340 Quinnipiac St., Bldg. 40, Wallingford CT 06492
  
  
 ---------------------------------------------------------------
 Warning -- This program may not be used in any manner that
 competes with the business of Gaussian, Inc. or will provide
 assistance to any competitor of Gaussian, Inc.  The licensee
 of this program is prohibited from giving any competitor of
 Gaussian, Inc. access to this program.  By using this program,
 the user acknowledges that Gaussian, Inc. is engaged in the
 business of creating and licensing software in the field of
 computational chemistry and represents and warrants to the
 licensee that it is not a competitor of Gaussian, Inc. and that
 it will not use this program in any manner prohibited above.
 ---------------------------------------------------------------
  

 Cite this work as:
 Gaussian 16, Revision C.01,
 M. J. Frisch, G. W. Trucks, H. B. Schlegel, G. E. Scuseria, 
 M. A. Robb, J. R. Cheeseman, G. Scalmani, V. Barone, 
 G. A. Petersson, H. Nakatsuji, X. Li, M. Caricato, A. V. Marenich, 
 J. Bloino, B. G. Janesko, R. Gomperts, B. Mennucci, H. P. Hratchian, 
 J. V. Ortiz, A. F. Izmaylov, J. L. Sonnenberg, D. Williams-Young, 
 F. Ding, F. Lipparini, F. Egidi, J. Goings, B. Peng, A. Petrone, 
 T. Henderson, D. Ranasinghe, V. G. Zakrzewski, J. Gao, N. Rega, 
 G. Zheng, W. Liang, M. Hada, M. Ehara, K. Toyota, R. Fukuda, 
 J. Hasegawa, M. Ishida, T. Nakajima, Y. Honda, O. Kitao, H. Nakai, 
 T. Vreven, K. Throssell, J. A. Montgomery, Jr., J. E. Peralta, 
 F. Ogliaro, M. J. Bearpark, J. J. Heyd, E. N. Brothers, K. N. Kudin, 
 V. N. Staroverov, T. A. Keith, R. Kobayashi, J. Normand, 
 K. Raghavachari, A. P. Rendell, J. C. Burant, S. S. Iyengar, 
 J. Tomasi, M. Cossi, J. M. Millam, M. Klene, C. Adamo, R. Cammi, 
 J. W. Ochterski, R. L. Martin, K. Morokuma, O. Farkas, 
 J. B. Foresman, and D. J. Fox, Gaussian, Inc., Wallingford CT, 2019.
 
 ******************************************
 Gaussian 16:  ES64L-G16RevC.01  3-Jul-2019
                 9-Apr-2025 
 ******************************************
 %nprocs=16
 Will use up to   16 processors via shared memory.
 %mem=30GB
 %chk=Grambow2020_wb97xd3_006602_forward_mol1.chk
 ----------------------------------------------------------------------
 #t hf aug-cc-pvdz symm=none int=(grid=ultrafine) guess=(read,tcheck) s
 table=(opt,rrhf)
 ----------------------------------------------------------------------
 -----
 title
 -----
 Symbolic Z-matrix:
 Charge =  0 Multiplicity = 1
 C                    -2.20434  -0.74579  -0.10889 
 C                    -0.85577  -0.22836  -0.56061 
 O                    -0.99179   1.16004  -0.79676 
 C                     0.22456  -0.49105   0.48706 
 N                     1.50328   0.03404   0.07454 
 C                     2.18357   1.01162   0.58323 
 O                     3.26546   1.1542   -0.08119 
 H                    -2.16701  -1.82056   0.07744 
 H                    -2.95617  -0.55239  -0.87358 
 H                    -2.51574  -0.24149   0.80826 
 H                    -0.56004  -0.73505  -1.49005 
 H                    -0.15744   1.4864   -1.14246 
 H                    -0.08218  -0.02821   1.43119 
 H                     0.31527  -1.56817   0.65264 
 H                     2.62857   0.14885  -0.6378 
 H                     1.91668   1.63387   1.43614 
 
                    Distance matrix (angstroms):
                    1          2          3          4          5
     1  C    0.000000
     2  C    1.513414   0.000000
     3  O    2.361271   1.414893   0.000000
     4  C    2.513873   1.527652   2.419462   0.000000
     5  N    3.793176   2.457108   2.872706   1.442573   0.000000
     6  C    4.777153   3.476130   3.465444   2.470829   1.295076
     7  O    5.790460   4.373314   4.316981   3.503837   2.093875
     8  H    1.091441   2.159065   3.321042   2.766762   4.112246
     9  H    1.089684   2.148167   2.607118   3.460073   4.596684
    10  H    1.091995   2.151624   2.619687   2.770319   4.094722
    11  H    2.147430   1.099115   2.063600   2.141048   2.701247
    12  H    3.200112   1.940778   0.960294   2.590669   2.519612
    13  H    2.718514   2.146110   2.683856   1.095312   2.087594
    14  H    2.757651   2.153694   3.354444   1.093540   2.076689
    15  H    4.943392   3.505548   3.762288   2.730214   1.336750
    16  H    5.003265   3.891195   3.697238   2.877385   2.141102
                    6          7          8          9         10
     6  C    0.000000
     7  O    1.277606   0.000000
     8  H    5.215802   6.195655   0.000000
     9  H    5.566442   6.499925   1.770726   0.000000
    10  H    4.868714   6.013430   1.774595   1.766133   0.000000
    11  H    3.857035   4.493177   2.493536   2.480898   3.057879
    12  H    2.946815   3.599018   4.057402   3.473014   3.514606
    13  H    2.633228   3.859027   3.064589   3.721096   2.521059
    14  H    3.186014   4.080866   2.560520   3.750128   3.130320
    15  H    1.559907   1.313840   5.233332   5.633529   5.357926
    16  H    1.088983   2.086045   5.518668   5.818864   4.853609
                   11         12         13         14         15
    11  H    0.000000
    12  H    2.284244   0.000000
    13  H    3.043297   2.987200   0.000000
    14  H    2.459955   3.574387   1.770764   0.000000
    15  H    3.416847   3.131387   3.414711   3.156705   0.000000
    16  H    4.506499   3.312534   2.599608   3.664897   2.648264
                   16
    16  H    0.000000
 Symmetry turned off by external request.
 Rotational constants (GHZ):           7.1542299           1.2720644           1.1591855
   242 basis functions,   400 primitive gaussians,   256 cartesian basis functions
    28 alpha electrons       28 beta electrons
       nuclear repulsion energy       314.1742343294 Hartrees.
 NAtoms=   16 NActive=   16 NUniq=   16 SFac= 1.00D+00 NAtFMM=   60 NAOKFM=F Big=F
 ExpMin= 2.97D-02 ExpMax= 1.17D+04 ExpMxC= 4.01D+02 IAcc=3 IRadAn=         5 AccDes= 0.00D+00
 Harris functional with IExCor=  205 and IRadAn=       5 diagonalized for initial guess.
 HarFok:  IExCor=  205 AccDes= 0.00D+00 IRadAn=         5 IDoV= 1 UseB2=F ITyADJ=14
 ICtDFT=  3500011 ScaDFX=  1.000000  1.000000  1.000000  1.000000
 FoFCou: FMM=F IPFlag=           0 FMFlag=      100000 FMFlg1=           0
         NFxFlg=           0 DoJE=T BraDBF=F KetDBF=T FulRan=T
         wScrn=  0.000000 ICntrl=       500 IOpCl=  0 I1Cent=   200000004 NGrid=           0
         NMat0=    1 NMatS0=      1 NMatT0=    0 NMatD0=    1 NMtDS0=    0 NMtDT0=    0
 Symmetry not used in FoFCou.
 SCF Done:  E(RHF) =  -360.852574333     A.U. after   14 cycles
            NFock= 14  Conv=0.66D-08     -V/T= 2.0011

 **********************************************************************

            Population analysis using the SCF Density.

 **********************************************************************

 Alpha  occ. eigenvalues --  -20.57149 -20.56508 -15.58117 -11.37096 -11.29341
 Alpha  occ. eigenvalues --  -11.27947 -11.22841  -1.42853  -1.37558  -1.21974
 Alpha  occ. eigenvalues --   -1.05369  -0.95804  -0.83764  -0.82165  -0.72320
 Alpha  occ. eigenvalues --   -0.71669  -0.66208  -0.63875  -0.59637  -0.58506
 Alpha  occ. eigenvalues --   -0.56383  -0.54370  -0.53749  -0.51738  -0.49944
 Alpha  occ. eigenvalues --   -0.45592  -0.44269  -0.38710
 Alpha virt. eigenvalues --    0.03394   0.03925   0.04671   0.04831   0.06278
 Alpha virt. eigenvalues --    0.06853   0.07155   0.07332   0.08554   0.10458
 Alpha virt. eigenvalues --    0.12094   0.12752   0.13510   0.14129   0.14461
 Alpha virt. eigenvalues --    0.15568   0.15903   0.16297   0.17037   0.17560
 Alpha virt. eigenvalues --    0.18251   0.18510   0.19144   0.19858   0.21161
 Alpha virt. eigenvalues --    0.22005   0.22734   0.24180   0.24868   0.27196
 Alpha virt. eigenvalues --    0.28064   0.28839   0.30163   0.31039   0.31332
 Alpha virt. eigenvalues --    0.32069   0.32578   0.33649   0.33943   0.34927
 Alpha virt. eigenvalues --    0.35557   0.36909   0.38562   0.39070   0.39742
 Alpha virt. eigenvalues --    0.41546   0.41651   0.42704   0.43495   0.43923
 Alpha virt. eigenvalues --    0.44793   0.46181   0.46872   0.47882   0.48876
 Alpha virt. eigenvalues --    0.49290   0.50112   0.51122   0.52852   0.53489
 Alpha virt. eigenvalues --    0.53799   0.54338   0.55324   0.56236   0.57742
 Alpha virt. eigenvalues --    0.59211   0.59718   0.60698   0.61629   0.62785
 Alpha virt. eigenvalues --    0.63083   0.63884   0.64596   0.65346   0.66584
 Alpha virt. eigenvalues --    0.67641   0.68606   0.68924   0.70246   0.71670
 Alpha virt. eigenvalues --    0.73005   0.73618   0.74671   0.76014   0.78109
 Alpha virt. eigenvalues --    0.78678   0.79905   0.80298   0.81632   0.82733
 Alpha virt. eigenvalues --    0.83768   0.84869   0.86608   0.87554   0.90054
 Alpha virt. eigenvalues --    0.91158   0.91697   0.93085   0.93816   0.95920
 Alpha virt. eigenvalues --    0.96210   0.99239   1.00281   1.02293   1.04322
 Alpha virt. eigenvalues --    1.05598   1.07396   1.07866   1.13436   1.14319
 Alpha virt. eigenvalues --    1.15927   1.20058   1.20944   1.22016   1.24790
 Alpha virt. eigenvalues --    1.25948   1.27740   1.29146   1.31603   1.32413
 Alpha virt. eigenvalues --    1.35106   1.38366   1.41077   1.42089   1.43026
 Alpha virt. eigenvalues --    1.43558   1.51316   1.53409   1.54583   1.57874
 Alpha virt. eigenvalues --    1.60091   1.60838   1.65590   1.67515   1.69616
 Alpha virt. eigenvalues --    1.72008   1.73412   1.74273   1.77186   1.79924
 Alpha virt. eigenvalues --    1.82929   1.84805   1.86723   1.88363   1.89902
 Alpha virt. eigenvalues --    1.92410   1.94688   1.97116   1.97757   1.99736
 Alpha virt. eigenvalues --    2.01033   2.03411   2.05313   2.07738   2.12458
 Alpha virt. eigenvalues --    2.14392   2.15929   2.17928   2.18558   2.19703
 Alpha virt. eigenvalues --    2.22439   2.23569   2.23853   2.26146   2.28055
 Alpha virt. eigenvalues --    2.29877   2.32186   2.33384   2.36320   2.38173
 Alpha virt. eigenvalues --    2.41110   2.44590   2.48455   2.50290   2.54302
 Alpha virt. eigenvalues --    2.55024   2.59712   2.60900   2.65143   2.67376
 Alpha virt. eigenvalues --    2.70391   2.72548   2.75232   2.76527   2.80245
 Alpha virt. eigenvalues --    2.82705   2.84900   2.87149   2.89033   2.90297
 Alpha virt. eigenvalues --    2.92488   2.96868   3.02267   3.06044   3.11584
 Alpha virt. eigenvalues --    3.13994   3.17967   3.25486   3.30017   3.35631
 Alpha virt. eigenvalues --    3.42648   3.45729   3.52180   3.64493   3.74598
 Alpha virt. eigenvalues --    3.77530   3.82133   3.86039   3.90855   3.98336
 Alpha virt. eigenvalues --    4.02220   4.02973   4.12766   4.42907
          Condensed to atoms (all electrons):
 Mulliken charges:
               1
     1  C    0.520894
     2  C    0.357051
     3  O   -0.779307
     4  C    0.735685
     5  N   -0.744273
     6  C    0.780857
     7  O   -0.789665
     8  H   -0.004164
     9  H   -0.044580
    10  H    0.006909
    11  H   -0.163764
    12  H    0.139129
    13  H   -0.148793
    14  H   -0.176486
    15  H    0.427285
    16  H   -0.116777
 Sum of Mulliken charges =  -0.00000
 Mulliken charges with hydrogens summed into heavy atoms:
               1
     1  C    0.479060
     2  C    0.193287
     3  O   -0.640178
     4  C    0.410406
     5  N   -0.744273
     6  C    0.664080
     7  O   -0.362381
 Electronic spatial extent (au):  <R**2>=           1058.5789
 Charge=              0.0000 electrons
 Dipole moment (field-independent basis, Debye):
    X=             -1.4301    Y=             -1.5466    Z=              1.2452  Tot=              2.4470
 NROrb=    242 NOA=    28 NOB=    28 NVA=   214 NVB=   214

 **** Warning!!: The largest alpha MO coefficient is  0.44243868D+02

    12 initial guesses have been made.
 Iteration     1 Dimension    12 NMult     0 NNew     12
 New state      1 was old state      2
 Iteration     2 Dimension    24 NMult    12 NNew     12
 New state      1 was old state     11
 Iteration     3 Dimension    27 NMult    24 NNew      3
 Iteration     4 Dimension    30 NMult    27 NNew      3
 Iteration     5 Dimension    33 NMult    30 NNew      3
 Iteration     6 Dimension    36 NMult    33 NNew      3
 Iteration     7 Dimension    39 NMult    36 NNew      3
 Iteration     8 Dimension    42 NMult    39 NNew      3
 ***********************************************************************
 Stability analysis using <AA,BB:AA,BB> singles matrix:
 ***********************************************************************
 Ground to excited state transition densities written to RWF  633

 Eigenvectors of the stability matrix:
 
 Excited state symmetry could not be determined.
 Eigenvector   1:      Singlet-?Sym  Eigenvalue= 0.2261093  <S**2>=0.000
      27 -> 55        -0.10710
      28 -> 37        -0.11746
      28 -> 38         0.30624
      28 -> 40         0.10110
      28 -> 41         0.11581
      28 -> 42        -0.21972
      28 -> 43        -0.16038
      28 -> 50         0.19860
      28 -> 51        -0.19239
 The wavefunction is stable under the perturbations considered.
 The wavefunction is already stable.

 **********************************************************************

            Population analysis using the SCF Density.

 **********************************************************************

 Alpha  occ. eigenvalues --  -20.57149 -20.56508 -15.58117 -11.37096 -11.29341
 Alpha  occ. eigenvalues --  -11.27947 -11.22841  -1.42853  -1.37558  -1.21974
 Alpha  occ. eigenvalues --   -1.05369  -0.95804  -0.83764  -0.82165  -0.72320
 Alpha  occ. eigenvalues --   -0.71669  -0.66208  -0.63875  -0.59637  -0.58506
 Alpha  occ. eigenvalues --   -0.56383  -0.54370  -0.53749  -0.51738  -0.49944
 Alpha  occ. eigenvalues --   -0.45592  -0.44269  -0.38710
 Alpha virt. eigenvalues --    0.03394   0.03925   0.04671   0.04831   0.06278
 Alpha virt. eigenvalues --    0.06853   0.07155   0.07332   0.08554   0.10458
 Alpha virt. eigenvalues --    0.12094   0.12752   0.13510   0.14129   0.14461
 Alpha virt. eigenvalues --    0.15568   0.15903   0.16297   0.17037   0.17560
 Alpha virt. eigenvalues --    0.18251   0.18510   0.19144   0.19858   0.21161
 Alpha virt. eigenvalues --    0.22005   0.22734   0.24180   0.24868   0.27196
 Alpha virt. eigenvalues --    0.28064   0.28839   0.30163   0.31039   0.31332
 Alpha virt. eigenvalues --    0.32069   0.32578   0.33649   0.33943   0.34927
 Alpha virt. eigenvalues --    0.35557   0.36909   0.38562   0.39070   0.39742
 Alpha virt. eigenvalues --    0.41546   0.41651   0.42704   0.43495   0.43923
 Alpha virt. eigenvalues --    0.44793   0.46181   0.46872   0.47882   0.48876
 Alpha virt. eigenvalues --    0.49290   0.50112   0.51122   0.52852   0.53489
 Alpha virt. eigenvalues --    0.53799   0.54338   0.55324   0.56236   0.57742
 Alpha virt. eigenvalues --    0.59211   0.59718   0.60698   0.61629   0.62785
 Alpha virt. eigenvalues --    0.63083   0.63884   0.64596   0.65346   0.66584
 Alpha virt. eigenvalues --    0.67641   0.68606   0.68924   0.70246   0.71670
 Alpha virt. eigenvalues --    0.73005   0.73618   0.74671   0.76014   0.78109
 Alpha virt. eigenvalues --    0.78678   0.79905   0.80298   0.81632   0.82733
 Alpha virt. eigenvalues --    0.83768   0.84869   0.86608   0.87554   0.90054
 Alpha virt. eigenvalues --    0.91158   0.91697   0.93085   0.93816   0.95920
 Alpha virt. eigenvalues --    0.96210   0.99239   1.00281   1.02293   1.04322
 Alpha virt. eigenvalues --    1.05598   1.07396   1.07866   1.13436   1.14319
 Alpha virt. eigenvalues --    1.15927   1.20058   1.20944   1.22016   1.24790
 Alpha virt. eigenvalues --    1.25948   1.27740   1.29146   1.31603   1.32413
 Alpha virt. eigenvalues --    1.35106   1.38366   1.41077   1.42089   1.43026
 Alpha virt. eigenvalues --    1.43558   1.51316   1.53409   1.54583   1.57874
 Alpha virt. eigenvalues --    1.60091   1.60838   1.65590   1.67515   1.69616
 Alpha virt. eigenvalues --    1.72008   1.73412   1.74273   1.77186   1.79924
 Alpha virt. eigenvalues --    1.82929   1.84805   1.86723   1.88363   1.89902
 Alpha virt. eigenvalues --    1.92410   1.94688   1.97116   1.97757   1.99736
 Alpha virt. eigenvalues --    2.01033   2.03411   2.05313   2.07738   2.12458
 Alpha virt. eigenvalues --    2.14392   2.15929   2.17928   2.18558   2.19703
 Alpha virt. eigenvalues --    2.22439   2.23569   2.23853   2.26146   2.28055
 Alpha virt. eigenvalues --    2.29877   2.32186   2.33384   2.36320   2.38173
 Alpha virt. eigenvalues --    2.41110   2.44590   2.48455   2.50290   2.54302
 Alpha virt. eigenvalues --    2.55024   2.59712   2.60900   2.65143   2.67376
 Alpha virt. eigenvalues --    2.70391   2.72548   2.75232   2.76527   2.80245
 Alpha virt. eigenvalues --    2.82705   2.84900   2.87149   2.89033   2.90297
 Alpha virt. eigenvalues --    2.92488   2.96868   3.02267   3.06044   3.11584
 Alpha virt. eigenvalues --    3.13994   3.17967   3.25486   3.30017   3.35631
 Alpha virt. eigenvalues --    3.42648   3.45729   3.52180   3.64493   3.74598
 Alpha virt. eigenvalues --    3.77530   3.82133   3.86039   3.90855   3.98336
 Alpha virt. eigenvalues --    4.02220   4.02973   4.12766   4.42907
          Condensed to atoms (all electrons):
 Mulliken charges:
               1
     1  C    0.520894
     2  C    0.357051
     3  O   -0.779307
     4  C    0.735685
     5  N   -0.744273
     6  C    0.780857
     7  O   -0.789665
     8  H   -0.004164
     9  H   -0.044580
    10  H    0.006909
    11  H   -0.163764
    12  H    0.139129
    13  H   -0.148793
    14  H   -0.176486
    15  H    0.427285
    16  H   -0.116777
 Sum of Mulliken charges =  -0.00000
 Mulliken charges with hydrogens summed into heavy atoms:
               1
     1  C    0.479060
     2  C    0.193287
     3  O   -0.640178
     4  C    0.410406
     5  N   -0.744273
     6  C    0.664080
     7  O   -0.362381
 Electronic spatial extent (au):  <R**2>=           1058.5789
 Charge=              0.0000 electrons
 Dipole moment (field-independent basis, Debye):
    X=             -1.4301    Y=             -1.5466    Z=              1.2452  Tot=              2.4470
 Unable to Open any file for archive entry.
 1\1\GINC-SE229\Stability\RHF\Aug-CC-pVDZ\C4H9N1O2\OHZDE\09-Apr-2025\0\
 \#t hf aug-cc-pvdz symm=none int=(grid=ultrafine) guess=(read,tcheck) 
 stable=(opt,rrhf)\\title\\0,1\C,0,-2.20433646,-0.74578832,-0.10888769\
 C,0,-0.85576865,-0.22836151,-0.56061322\O,0,-0.9917945,1.16003874,-0.7
 9675871\C,0,0.22455626,-0.4910538,0.4870556\N,0,1.50327851,0.03403596,
 0.07454227\C,0,2.18356633,1.01161975,0.58322608\O,0,3.26546369,1.15419
 849,-0.08118826\H,0,-2.16701177,-1.82055945,0.07743717\H,0,-2.9561693,
 -0.55238504,-0.87358031\H,0,-2.515738,-0.24148504,0.80826038\H,0,-0.56
 003776,-0.73505282,-1.49005433\H,0,-0.15744176,1.48640244,-1.14245654\
 H,0,-0.08217993,-0.02820549,1.4311916\H,0,0.31526665,-1.56817173,0.652
 63911\H,0,2.62857093,0.14885127,-0.63780218\H,0,1.91667979,1.63387056,
 1.43613904\\Version=ES64L-G16RevC.01\HF=-360.8525743\RMSD=6.597e-09\Di
 pole=-0.5626322,-0.6084715,0.489908\Quadrupole=-7.601508,2.3896058,5.2
 119022,-0.3718529,0.6803883,1.9075709\PG=Unknown\\@
 The archive entry for this job was punched.


 LORD, MAN... WERE YE BUT WHYLES WHERE I AM, 
 THE GENTILES YE WAD NE'ER ENVY 'EM.        
 IT'S TRUE, THEY NEEDNA STARVE OR SWEAT,     
 THRO' WINTER'S CAULD OR SIMMER'S HEAT...  
 THEY'VE NAE SAIR WARK TO CRAZE THEIR BANES, 
 AND FILL AULD AGE WITH GRIPS AN' GRANES...  
                                             
 BUT HUMAN BODIES ARE SIC FOOLS              
 FOR A' THEIR COLLEGES AND SCHOOLS,           
 THAT WHEN NAE REAL ILLS PERPLEX THEM,       
 THEY MAK ENOW THEMSELVES TO VEX THEM,       
 AN' AYE THE LESS THEY HAE TO STURT THEM,    
 IN LIKE PROPORTION LESS WILL HURT THEM....  
                                             
                (ROBERT BURNS 'THE TWA DOGS')
 Job cpu time:       0 days  0 hours  8 minutes 47.5 seconds.
 Elapsed time:       0 days  0 hours  0 minutes 38.8 seconds.
 File lengths (MBytes):  RWF=    268 Int=      0 D2E=      0 Chk=      8 Scr=      1
 Normal termination of Gaussian 16 at Wed Apr  9 18:07:48 2025.
 Initial command:
 /arc/software/Gaussian/g16.c01/l1.exe "/tmp/slurm/4880257/Gau-1842784.inp" -scrdir="/tmp/slurm/4880257/"
 Entering Link 1 = /arc/software/Gaussian/g16.c01/l1.exe PID=   1843065.
  
 Copyright (c) 1988-2019, Gaussian, Inc.  All Rights Reserved.
  
 This is part of the Gaussian(R) 16 program.  It is based on
 the Gaussian(R) 09 system (copyright 2009, Gaussian, Inc.),
 the Gaussian(R) 03 system (copyright 2003, Gaussian, Inc.),
 the Gaussian(R) 98 system (copyright 1998, Gaussian, Inc.),
 the Gaussian(R) 94 system (copyright 1995, Gaussian, Inc.),
 the Gaussian 92(TM) system (copyright 1992, Gaussian, Inc.),
 the Gaussian 90(TM) system (copyright 1990, Gaussian, Inc.),
 the Gaussian 88(TM) system (copyright 1988, Gaussian, Inc.),
 the Gaussian 86(TM) system (copyright 1986, Carnegie Mellon
 University), and the Gaussian 82(TM) system (copyright 1983,
 Carnegie Mellon University). Gaussian is a federally registered
 trademark of Gaussian, Inc.
  
 This software contains proprietary and confidential information,
 including trade secrets, belonging to Gaussian, Inc.
  
 This software is provided under written license and may be
 used, copied, transmitted, or stored only in accord with that
 written license.
  
 The following legend is applicable only to US Government
 contracts under FAR:
  
                    RESTRICTED RIGHTS LEGEND
  
 Use, reproduction and disclosure by the US Government is
 subject to restrictions as set forth in subparagraphs (a)
 and (c) of the Commercial Computer Software - Restricted
 Rights clause in FAR 52.227-19.
  
 Gaussian, Inc.
 340 Quinnipiac St., Bldg. 40, Wallingford CT 06492
  
  
 ---------------------------------------------------------------
 Warning -- This program may not be used in any manner that
 competes with the business of Gaussian, Inc. or will provide
 assistance to any competitor of Gaussian, Inc.  The licensee
 of this program is prohibited from giving any competitor of
 Gaussian, Inc. access to this program.  By using this program,
 the user acknowledges that Gaussian, Inc. is engaged in the
 business of creating and licensing software in the field of
 computational chemistry and represents and warrants to the
 licensee that it is not a competitor of Gaussian, Inc. and that
 it will not use this program in any manner prohibited above.
 ---------------------------------------------------------------
  

 Cite this work as:
 Gaussian 16, Revision C.01,
 M. J. Frisch, G. W. Trucks, H. B. Schlegel, G. E. Scuseria, 
 M. A. Robb, J. R. Cheeseman, G. Scalmani, V. Barone, 
 G. A. Petersson, H. Nakatsuji, X. Li, M. Caricato, A. V. Marenich, 
 J. Bloino, B. G. Janesko, R. Gomperts, B. Mennucci, H. P. Hratchian, 
 J. V. Ortiz, A. F. Izmaylov, J. L. Sonnenberg, D. Williams-Young, 
 F. Ding, F. Lipparini, F. Egidi, J. Goings, B. Peng, A. Petrone, 
 T. Henderson, D. Ranasinghe, V. G. Zakrzewski, J. Gao, N. Rega, 
 G. Zheng, W. Liang, M. Hada, M. Ehara, K. Toyota, R. Fukuda, 
 J. Hasegawa, M. Ishida, T. Nakajima, Y. Honda, O. Kitao, H. Nakai, 
 T. Vreven, K. Throssell, J. A. Montgomery, Jr., J. E. Peralta, 
 F. Ogliaro, M. J. Bearpark, J. J. Heyd, E. N. Brothers, K. N. Kudin, 
 V. N. Staroverov, T. A. Keith, R. Kobayashi, J. Normand, 
 K. Raghavachari, A. P. Rendell, J. C. Burant, S. S. Iyengar, 
 J. Tomasi, M. Cossi, J. M. Millam, M. Klene, C. Adamo, R. Cammi, 
 J. W. Ochterski, R. L. Martin, K. Morokuma, O. Farkas, 
 J. B. Foresman, and D. J. Fox, Gaussian, Inc., Wallingford CT, 2019.
 
 ******************************************
 Gaussian 16:  ES64L-G16RevC.01  3-Jul-2019
                 9-Apr-2025 
 ******************************************
 %nprocs=16
 Will use up to   16 processors via shared memory.
 %mem=30GB
 %chk=Grambow2020_wb97xd3_006602_forward_mol1.chk
 ----------------------------------------------------------------------
 #t hf aug-cc-pvdz iop(5/13=1,5/36=2,99/5=2) pseudo=read geom=check gue
 ss=(read,tcheck) scf=(maxcycle=1)
 ----------------------------------------------------------------------
 -----
 title
 -----
 Structure from the checkpoint file:  "Grambow2020_wb97xd3_006602_forward_mol1.chk"
 Charge =  0 Multiplicity = 1
 Z-Matrix found in chk file.
 C,0,-2.20433646,-0.74578832,-0.10888769
 C,0,-0.85576865,-0.22836151,-0.56061322
 O,0,-0.9917945,1.16003874,-0.79675871
 C,0,0.22455626,-0.4910538,0.4870556
 N,0,1.50327851,0.03403596,0.07454227
 C,0,2.18356633,1.01161975,0.58322608
 O,0,3.26546369,1.15419849,-0.08118826
 H,0,-2.16701177,-1.82055945,0.07743717
 H,0,-2.9561693,-0.55238504,-0.87358031
 H,0,-2.515738,-0.24148504,0.80826038
 H,0,-0.56003776,-0.73505282,-1.49005433
 H,0,-0.15744176,1.48640244,-1.14245654
 H,0,-0.08217993,-0.02820549,1.4311916
 H,0,0.31526665,-1.56817173,0.65263911
 H,0,2.62857093,0.14885127,-0.63780218
 H,0,1.91667979,1.63387056,1.43613904
 Recover connectivity data from disk.
                    Distance matrix (angstroms):
                    1          2          3          4          5
     1  C    0.000000
     2  C    1.513414   0.000000
     3  O    2.361271   1.414893   0.000000
     4  C    2.513873   1.527652   2.419462   0.000000
     5  N    3.793176   2.457108   2.872706   1.442573   0.000000
     6  C    4.777153   3.476130   3.465444   2.470829   1.295076
     7  O    5.790460   4.373314   4.316981   3.503837   2.093875
     8  H    1.091441   2.159065   3.321042   2.766762   4.112246
     9  H    1.089684   2.148167   2.607118   3.460073   4.596684
    10  H    1.091995   2.151624   2.619687   2.770319   4.094722
    11  H    2.147430   1.099115   2.063600   2.141048   2.701247
    12  H    3.200112   1.940778   0.960294   2.590669   2.519612
    13  H    2.718514   2.146110   2.683856   1.095312   2.087594
    14  H    2.757651   2.153694   3.354444   1.093540   2.076689
    15  H    4.943392   3.505548   3.762288   2.730214   1.336750
    16  H    5.003265   3.891195   3.697238   2.877385   2.141102
                    6          7          8          9         10
     6  C    0.000000
     7  O    1.277606   0.000000
     8  H    5.215802   6.195655   0.000000
     9  H    5.566442   6.499925   1.770726   0.000000
    10  H    4.868714   6.013430   1.774595   1.766133   0.000000
    11  H    3.857035   4.493177   2.493536   2.480898   3.057879
    12  H    2.946815   3.599018   4.057402   3.473014   3.514606
    13  H    2.633228   3.859027   3.064589   3.721096   2.521059
    14  H    3.186014   4.080866   2.560520   3.750128   3.130320
    15  H    1.559907   1.313840   5.233332   5.633529   5.357926
    16  H    1.088983   2.086045   5.518668   5.818864   4.853609
                   11         12         13         14         15
    11  H    0.000000
    12  H    2.284244   0.000000
    13  H    3.043297   2.987200   0.000000
    14  H    2.459955   3.574387   1.770764   0.000000
    15  H    3.416847   3.131387   3.414711   3.156705   0.000000
    16  H    4.506499   3.312534   2.599608   3.664897   2.648264
                   16
    16  H    0.000000
 Framework group  C1[X(C4H9NO2)]
 Deg. of freedom    42
                         Standard orientation:                         
 ---------------------------------------------------------------------
 Center     Atomic      Atomic             Coordinates (Angstroms)
 Number     Number       Type             X           Y           Z
 ---------------------------------------------------------------------
      1          6           0       -2.748389   -0.347272    0.071338
      2          6           0       -1.364485    0.083007   -0.364657
      3          8           0       -1.139856    1.379302    0.156002
      4          6           0       -0.293948   -0.887332    0.131438
      5          7           0        1.029344   -0.459393   -0.251685
      6          6           0        2.000004   -0.046361    0.499611
      7          8           0        3.004312    0.236039   -0.237879
      8          1           0       -2.986911   -1.340587   -0.312948
      9          1           0       -3.494227    0.355848   -0.298473
     10          1           0       -2.812802   -0.368132    1.161232
     11          1           0       -1.316991    0.111271   -1.462382
     12          1           0       -0.288840    1.686187   -0.166112
     13          1           0       -0.362412   -0.957702    1.222341
     14          1           0       -0.484221   -1.880915   -0.283794
     15          1           0        2.062570   -0.181871   -1.053138
     16          1           0        2.003689    0.056667    1.583704
 ---------------------------------------------------------------------
 Rotational constants (GHZ):           7.1542299           1.2720644           1.1591855
 ======================================================================================================
                                       Pseudopotential Parameters
 ======================================================================================================
  Center     Atomic      Valence      Angular      Power
  Number     Number     Electrons     Momentum     of R      Exponent        Coefficient   SO-Coeffient
 ======================================================================================================
    1          6            6
                                      G and up 
                                                     0        0.0000010       -0.00286759    0.00000000
                                                     2        0.1200000        0.03193960    0.00000000
                                                     2        0.1600000       -0.04027782    0.00000000
                                                     2        0.2600000        0.24782456    0.00000000
                                                     2        0.4000000       -0.62266671    0.00000000
                                                     2        0.7000000        0.35695227    0.00000000
                                      S - G
                                                     0        0.0000010       -0.06602313    0.00000000
                                                     2        0.1200000        1.47277455    0.00000000
                                                     2        0.1600000       -4.06924166    0.00000000
                                                     2        0.3000000        5.02952802    0.00000000
                                                     2        0.7000000       -5.65856978    0.00000000
                                                     2        1.7000000        8.57604414    0.00000000
                                      P - G
                                                     0        0.0000010        0.49434425    0.00000000
                                                     2        0.1200000       -1.37391547    0.00000000
                                                     2        0.1600000        3.65411806    0.00000000
                                                     2        0.2800000       -7.36479843    0.00000000
                                                     2        0.6000000       17.22091285    0.00000000
                                                     2        1.1000000      -23.50107827    0.00000000
                                                     2        3.0000000       16.29464063    0.00000000
                                      D - G
                                                     0        0.0000010       -0.28693103    0.00000000
                                                     2        0.1200000        0.12273044    0.00000000
                                                     2        0.3000000       -0.43416384    0.00000000
                                                     2        0.7000000        2.23358493    0.00000000
                                      F - G
                                                     0        0.0000010        0.07263570    0.00000000
                                                     2        0.1400000       -0.76152861    0.00000000
                                                     2        0.2200000        1.98045593    0.00000000
                                                     2        0.4000000       -2.42426427    0.00000000
                                                     2        0.7000000        0.52335237    0.00000000
    2          6            6
                                      G and up 
                                                     0        0.0000010       -0.00286759    0.00000000
                                                     2        0.1200000        0.03193960    0.00000000
                                                     2        0.1600000       -0.04027782    0.00000000
                                                     2        0.2600000        0.24782456    0.00000000
                                                     2        0.4000000       -0.62266671    0.00000000
                                                     2        0.7000000        0.35695227    0.00000000
                                      S - G
                                                     0        0.0000010       -0.06602313    0.00000000
                                                     2        0.1200000        1.47277455    0.00000000
                                                     2        0.1600000       -4.06924166    0.00000000
                                                     2        0.3000000        5.02952802    0.00000000
                                                     2        0.7000000       -5.65856978    0.00000000
                                                     2        1.7000000        8.57604414    0.00000000
                                      P - G
                                                     0        0.0000010        0.49434425    0.00000000
                                                     2        0.1200000       -1.37391547    0.00000000
                                                     2        0.1600000        3.65411806    0.00000000
                                                     2        0.2800000       -7.36479843    0.00000000
                                                     2        0.6000000       17.22091285    0.00000000
                                                     2        1.1000000      -23.50107827    0.00000000
                                                     2        3.0000000       16.29464063    0.00000000
                                      D - G
                                                     0        0.0000010       -0.28693103    0.00000000
                                                     2        0.1200000        0.12273044    0.00000000
                                                     2        0.3000000       -0.43416384    0.00000000
                                                     2        0.7000000        2.23358493    0.00000000
                                      F - G
                                                     0        0.0000010        0.07263570    0.00000000
                                                     2        0.1400000       -0.76152861    0.00000000
                                                     2        0.2200000        1.98045593    0.00000000
                                                     2        0.4000000       -2.42426427    0.00000000
                                                     2        0.7000000        0.52335237    0.00000000
    3          8            8
                                      G and up 
                                                     0        0.0000010       -0.00165251    0.00000000
                                                     2        0.1200000       -0.10937202    0.00000000
                                                     2        0.1400000        0.35668905    0.00000000
                                                     2        0.1800000       -0.51696033    0.00000000
                                                     2        0.2400000        0.52446472    0.00000000
                                                     2        0.4000000       -0.07754493    0.00000000
                                                     2        0.8000000       -1.90560988    0.00000000
                                                     2        1.7000000        0.19857963    0.00000000
                                      S - G
                                                     0        0.0000010       -0.03845181    0.00000000
                                                     2        0.1400000        0.42024558    0.00000000
                                                     2        0.4000000       -4.10467779    0.00000000
                                                     2        1.3000000        9.99571838    0.00000000
                                      P - G
                                                     0        0.0000010        0.33206183    0.00000000
                                                     2        0.1200000       -0.18708141    0.00000000
                                                     2        0.2800000       -0.18179081    0.00000000
                                                     2        0.7000000        1.18820394    0.00000000
                                      D - G
                                                     0        0.0000010       -0.57891674    0.00000000
                                                     2        0.1200000        0.60487490    0.00000000
                                                     2        0.2400000       -0.24931464    0.00000000
                                                     2        0.3000000       -2.75054612    0.00000000
                                                     2        1.0000000       15.96776040    0.00000000
                                      F - G
                                                     0        0.0000010        0.37449041    0.00000000
                                                     2        0.1200000       -0.63373642    0.00000000
                                                     2        0.1400000       -0.08412804    0.00000000
                                                     2        0.2800000        2.62321406    0.00000000
                                                     2        0.6000000       -2.68223623    0.00000000
    4          6            6
                                      G and up 
                                                     0        0.0000010       -0.00286759    0.00000000
                                                     2        0.1200000        0.03193960    0.00000000
                                                     2        0.1600000       -0.04027782    0.00000000
                                                     2        0.2600000        0.24782456    0.00000000
                                                     2        0.4000000       -0.62266671    0.00000000
                                                     2        0.7000000        0.35695227    0.00000000
                                      S - G
                                                     0        0.0000010       -0.06602313    0.00000000
                                                     2        0.1200000        1.47277455    0.00000000
                                                     2        0.1600000       -4.06924166    0.00000000
                                                     2        0.3000000        5.02952802    0.00000000
                                                     2        0.7000000       -5.65856978    0.00000000
                                                     2        1.7000000        8.57604414    0.00000000
                                      P - G
                                                     0        0.0000010        0.49434425    0.00000000
                                                     2        0.1200000       -1.37391547    0.00000000
                                                     2        0.1600000        3.65411806    0.00000000
                                                     2        0.2800000       -7.36479843    0.00000000
                                                     2        0.6000000       17.22091285    0.00000000
                                                     2        1.1000000      -23.50107827    0.00000000
                                                     2        3.0000000       16.29464063    0.00000000
                                      D - G
                                                     0        0.0000010       -0.28693103    0.00000000
                                                     2        0.1200000        0.12273044    0.00000000
                                                     2        0.3000000       -0.43416384    0.00000000
                                                     2        0.7000000        2.23358493    0.00000000
                                      F - G
                                                     0        0.0000010        0.07263570    0.00000000
                                                     2        0.1400000       -0.76152861    0.00000000
                                                     2        0.2200000        1.98045593    0.00000000
                                                     2        0.4000000       -2.42426427    0.00000000
                                                     2        0.7000000        0.52335237    0.00000000
    5          7            7
                                      G and up 
                                                     0        0.0000010        0.00420138    0.00000000
                                                     2        0.1200000        0.05872431    0.00000000
                                                     2        0.1400000       -0.08436978    0.00000000
                                                     2        0.2000000        0.05409159    0.00000000
                                                     2        0.2600000        0.14199713    0.00000000
                                                     2        0.6000000       -0.79062770    0.00000000
                                                     2        0.7000000       -0.14441060    0.00000000
                                                     2        1.5000000        0.73772979    0.00000000
                                      S - G
                                                     0        0.0000010       -0.03094411    0.00000000
                                                     2        0.1200000        0.65332522    0.00000000
                                                     2        0.1800000       -1.38149133    0.00000000
                                                     2        1.3000000        3.29267299    0.00000000
                                      P - G
                                                     0        0.0000010        0.07303105    0.00000000
                                                     2        0.1200000        0.23145115    0.00000000
                                                     2        0.2000000       -1.20679699    0.00000000
                                                     2        0.4000000        1.75088447    0.00000000
                                                     2        1.2000000       -0.67486559    0.00000000
                                      D - G
                                                     0        0.0000010        0.07560739    0.00000000
                                                     2        0.3000000       -0.68679114    0.00000000
                                                     2        0.9000000        3.60133241    0.00000000
                                      F - G
                                                     0        0.0000010       -0.18221184    0.00000000
                                                     2        0.1200000       -0.39369067    0.00000000
                                                     2        0.1800000        0.72091725    0.00000000
                                                     2        0.6000000        0.15946111    0.00000000
    6          6            6
                                      G and up 
                                                     0        0.0000010       -0.00286759    0.00000000
                                                     2        0.1200000        0.03193960    0.00000000
                                                     2        0.1600000       -0.04027782    0.00000000
                                                     2        0.2600000        0.24782456    0.00000000
                                                     2        0.4000000       -0.62266671    0.00000000
                                                     2        0.7000000        0.35695227    0.00000000
                                      S - G
                                                     0        0.0000010       -0.06602313    0.00000000
                                                     2        0.1200000        1.47277455    0.00000000
                                                     2        0.1600000       -4.06924166    0.00000000
                                                     2        0.3000000        5.02952802    0.00000000
                                                     2        0.7000000       -5.65856978    0.00000000
                                                     2        1.7000000        8.57604414    0.00000000
                                      P - G
                                                     0        0.0000010        0.49434425    0.00000000
                                                     2        0.1200000       -1.37391547    0.00000000
                                                     2        0.1600000        3.65411806    0.00000000
                                                     2        0.2800000       -7.36479843    0.00000000
                                                     2        0.6000000       17.22091285    0.00000000
                                                     2        1.1000000      -23.50107827    0.00000000
                                                     2        3.0000000       16.29464063    0.00000000
                                      D - G
                                                     0        0.0000010       -0.28693103    0.00000000
                                                     2        0.1200000        0.12273044    0.00000000
                                                     2        0.3000000       -0.43416384    0.00000000
                                                     2        0.7000000        2.23358493    0.00000000
                                      F - G
                                                     0        0.0000010        0.07263570    0.00000000
                                                     2        0.1400000       -0.76152861    0.00000000
                                                     2        0.2200000        1.98045593    0.00000000
                                                     2        0.4000000       -2.42426427    0.00000000
                                                     2        0.7000000        0.52335237    0.00000000
    7          8            8
                                      G and up 
                                                     0        0.0000010       -0.00165251    0.00000000
                                                     2        0.1200000       -0.10937202    0.00000000
                                                     2        0.1400000        0.35668905    0.00000000
                                                     2        0.1800000       -0.51696033    0.00000000
                                                     2        0.2400000        0.52446472    0.00000000
                                                     2        0.4000000       -0.07754493    0.00000000
                                                     2        0.8000000       -1.90560988    0.00000000
                                                     2        1.7000000        0.19857963    0.00000000
                                      S - G
                                                     0        0.0000010       -0.03845181    0.00000000
                                                     2        0.1400000        0.42024558    0.00000000
                                                     2        0.4000000       -4.10467779    0.00000000
                                                     2        1.3000000        9.99571838    0.00000000
                                      P - G
                                                     0        0.0000010        0.33206183    0.00000000
                                                     2        0.1200000       -0.18708141    0.00000000
                                                     2        0.2800000       -0.18179081    0.00000000
                                                     2        0.7000000        1.18820394    0.00000000
                                      D - G
                                                     0        0.0000010       -0.57891674    0.00000000
                                                     2        0.1200000        0.60487490    0.00000000
                                                     2        0.2400000       -0.24931464    0.00000000
                                                     2        0.3000000       -2.75054612    0.00000000
                                                     2        1.0000000       15.96776040    0.00000000
                                      F - G
                                                     0        0.0000010        0.37449041    0.00000000
                                                     2        0.1200000       -0.63373642    0.00000000
                                                     2        0.1400000       -0.08412804    0.00000000
                                                     2        0.2800000        2.62321406    0.00000000
                                                     2        0.6000000       -2.68223623    0.00000000
    8          1            1
                                      F and up 
                                                     0        0.0000010        0.00072061    0.00000000
                                                     2        0.1200000        0.03832357    0.00000000
                                                     2        0.1400000       -0.08683256    0.00000000
                                                     2        0.1800000        0.09312970    0.00000000
                                                     2        0.2800000       -0.02532572    0.00000000
                                                     2        0.4000000       -0.09430787    0.00000000
                                                     2        0.7000000        0.42710831    0.00000000
                                                     2        1.2000000       -2.11746981    0.00000000
                                      S - F
                                                     0        0.0000010        0.14449603    0.00000000
                                                     2        0.1200000       -0.56378993    0.00000000
                                                     2        0.1400000        0.63941249    0.00000000
                                                     2        0.2600000       -0.58461015    0.00000000
                                                     2        0.5000000        1.00157293    0.00000000
                                                     2        1.8000000       -0.14135838    0.00000000
                                      P - F
                                                     0        0.0000010       -0.09353646    0.00000000
                                                     2        0.1200000        0.31768975    0.00000000
                                                     2        0.2000000       -0.71747951    0.00000000
                                                     2        0.4000000        0.65752308    0.00000000
                                                     2        1.7000000        2.94052587    0.00000000
                                      D - F
                                                     0        0.0000010       -0.04491202    0.00000000
                                                     2        0.1200000       -0.02862031    0.00000000
                                                     2        0.1800000       -0.21515263    0.00000000
                                                     2        0.3000000        0.80560647    0.00000000
                                                     2        0.4000000        0.47351754    0.00000000
                                                     2        0.7000000       -4.57051794    0.00000000
                                                     2        1.6000000       18.53737826    0.00000000
    9          1            1
                                      F and up 
                                                     0        0.0000010        0.00072061    0.00000000
                                                     2        0.1200000        0.03832357    0.00000000
                                                     2        0.1400000       -0.08683256    0.00000000
                                                     2        0.1800000        0.09312970    0.00000000
                                                     2        0.2800000       -0.02532572    0.00000000
                                                     2        0.4000000       -0.09430787    0.00000000
                                                     2        0.7000000        0.42710831    0.00000000
                                                     2        1.2000000       -2.11746981    0.00000000
                                      S - F
                                                     0        0.0000010        0.14449603    0.00000000
                                                     2        0.1200000       -0.56378993    0.00000000
                                                     2        0.1400000        0.63941249    0.00000000
                                                     2        0.2600000       -0.58461015    0.00000000
                                                     2        0.5000000        1.00157293    0.00000000
                                                     2        1.8000000       -0.14135838    0.00000000
                                      P - F
                                                     0        0.0000010       -0.09353646    0.00000000
                                                     2        0.1200000        0.31768975    0.00000000
                                                     2        0.2000000       -0.71747951    0.00000000
                                                     2        0.4000000        0.65752308    0.00000000
                                                     2        1.7000000        2.94052587    0.00000000
                                      D - F
                                                     0        0.0000010       -0.04491202    0.00000000
                                                     2        0.1200000       -0.02862031    0.00000000
                                                     2        0.1800000       -0.21515263    0.00000000
                                                     2        0.3000000        0.80560647    0.00000000
                                                     2        0.4000000        0.47351754    0.00000000
                                                     2        0.7000000       -4.57051794    0.00000000
                                                     2        1.6000000       18.53737826    0.00000000
   10          1            1
                                      F and up 
                                                     0        0.0000010        0.00072061    0.00000000
                                                     2        0.1200000        0.03832357    0.00000000
                                                     2        0.1400000       -0.08683256    0.00000000
                                                     2        0.1800000        0.09312970    0.00000000
                                                     2        0.2800000       -0.02532572    0.00000000
                                                     2        0.4000000       -0.09430787    0.00000000
                                                     2        0.7000000        0.42710831    0.00000000
                                                     2        1.2000000       -2.11746981    0.00000000
                                      S - F
                                                     0        0.0000010        0.14449603    0.00000000
                                                     2        0.1200000       -0.56378993    0.00000000
                                                     2        0.1400000        0.63941249    0.00000000
                                                     2        0.2600000       -0.58461015    0.00000000
                                                     2        0.5000000        1.00157293    0.00000000
                                                     2        1.8000000       -0.14135838    0.00000000
                                      P - F
                                                     0        0.0000010       -0.09353646    0.00000000
                                                     2        0.1200000        0.31768975    0.00000000
                                                     2        0.2000000       -0.71747951    0.00000000
                                                     2        0.4000000        0.65752308    0.00000000
                                                     2        1.7000000        2.94052587    0.00000000
                                      D - F
                                                     0        0.0000010       -0.04491202    0.00000000
                                                     2        0.1200000       -0.02862031    0.00000000
                                                     2        0.1800000       -0.21515263    0.00000000
                                                     2        0.3000000        0.80560647    0.00000000
                                                     2        0.4000000        0.47351754    0.00000000
                                                     2        0.7000000       -4.57051794    0.00000000
                                                     2        1.6000000       18.53737826    0.00000000
   11          1            1
                                      F and up 
                                                     0        0.0000010        0.00072061    0.00000000
                                                     2        0.1200000        0.03832357    0.00000000
                                                     2        0.1400000       -0.08683256    0.00000000
                                                     2        0.1800000        0.09312970    0.00000000
                                                     2        0.2800000       -0.02532572    0.00000000
                                                     2        0.4000000       -0.09430787    0.00000000
                                                     2        0.7000000        0.42710831    0.00000000
                                                     2        1.2000000       -2.11746981    0.00000000
                                      S - F
                                                     0        0.0000010        0.14449603    0.00000000
                                                     2        0.1200000       -0.56378993    0.00000000
                                                     2        0.1400000        0.63941249    0.00000000
                                                     2        0.2600000       -0.58461015    0.00000000
                                                     2        0.5000000        1.00157293    0.00000000
                                                     2        1.8000000       -0.14135838    0.00000000
                                      P - F
                                                     0        0.0000010       -0.09353646    0.00000000
                                                     2        0.1200000        0.31768975    0.00000000
                                                     2        0.2000000       -0.71747951    0.00000000
                                                     2        0.4000000        0.65752308    0.00000000
                                                     2        1.7000000        2.94052587    0.00000000
                                      D - F
                                                     0        0.0000010       -0.04491202    0.00000000
                                                     2        0.1200000       -0.02862031    0.00000000
                                                     2        0.1800000       -0.21515263    0.00000000
                                                     2        0.3000000        0.80560647    0.00000000
                                                     2        0.4000000        0.47351754    0.00000000
                                                     2        0.7000000       -4.57051794    0.00000000
                                                     2        1.6000000       18.53737826    0.00000000
   12          1            1
                                      F and up 
                                                     0        0.0000010        0.00072061    0.00000000
                                                     2        0.1200000        0.03832357    0.00000000
                                                     2        0.1400000       -0.08683256    0.00000000
                                                     2        0.1800000        0.09312970    0.00000000
                                                     2        0.2800000       -0.02532572    0.00000000
                                                     2        0.4000000       -0.09430787    0.00000000
                                                     2        0.7000000        0.42710831    0.00000000
                                                     2        1.2000000       -2.11746981    0.00000000
                                      S - F
                                                     0        0.0000010        0.14449603    0.00000000
                                                     2        0.1200000       -0.56378993    0.00000000
                                                     2        0.1400000        0.63941249    0.00000000
                                                     2        0.2600000       -0.58461015    0.00000000
                                                     2        0.5000000        1.00157293    0.00000000
                                                     2        1.8000000       -0.14135838    0.00000000
                                      P - F
                                                     0        0.0000010       -0.09353646    0.00000000
                                                     2        0.1200000        0.31768975    0.00000000
                                                     2        0.2000000       -0.71747951    0.00000000
                                                     2        0.4000000        0.65752308    0.00000000
                                                     2        1.7000000        2.94052587    0.00000000
                                      D - F
                                                     0        0.0000010       -0.04491202    0.00000000
                                                     2        0.1200000       -0.02862031    0.00000000
                                                     2        0.1800000       -0.21515263    0.00000000
                                                     2        0.3000000        0.80560647    0.00000000
                                                     2        0.4000000        0.47351754    0.00000000
                                                     2        0.7000000       -4.57051794    0.00000000
                                                     2        1.6000000       18.53737826    0.00000000
   13          1            1
                                      F and up 
                                                     0        0.0000010        0.00072061    0.00000000
                                                     2        0.1200000        0.03832357    0.00000000
                                                     2        0.1400000       -0.08683256    0.00000000
                                                     2        0.1800000        0.09312970    0.00000000
                                                     2        0.2800000       -0.02532572    0.00000000
                                                     2        0.4000000       -0.09430787    0.00000000
                                                     2        0.7000000        0.42710831    0.00000000
                                                     2        1.2000000       -2.11746981    0.00000000
                                      S - F
                                                     0        0.0000010        0.14449603    0.00000000
                                                     2        0.1200000       -0.56378993    0.00000000
                                                     2        0.1400000        0.63941249    0.00000000
                                                     2        0.2600000       -0.58461015    0.00000000
                                                     2        0.5000000        1.00157293    0.00000000
                                                     2        1.8000000       -0.14135838    0.00000000
                                      P - F
                                                     0        0.0000010       -0.09353646    0.00000000
                                                     2        0.1200000        0.31768975    0.00000000
                                                     2        0.2000000       -0.71747951    0.00000000
                                                     2        0.4000000        0.65752308    0.00000000
                                                     2        1.7000000        2.94052587    0.00000000
                                      D - F
                                                     0        0.0000010       -0.04491202    0.00000000
                                                     2        0.1200000       -0.02862031    0.00000000
                                                     2        0.1800000       -0.21515263    0.00000000
                                                     2        0.3000000        0.80560647    0.00000000
                                                     2        0.4000000        0.47351754    0.00000000
                                                     2        0.7000000       -4.57051794    0.00000000
                                                     2        1.6000000       18.53737826    0.00000000
   14          1            1
                                      F and up 
                                                     0        0.0000010        0.00072061    0.00000000
                                                     2        0.1200000        0.03832357    0.00000000
                                                     2        0.1400000       -0.08683256    0.00000000
                                                     2        0.1800000        0.09312970    0.00000000
                                                     2        0.2800000       -0.02532572    0.00000000
                                                     2        0.4000000       -0.09430787    0.00000000
                                                     2        0.7000000        0.42710831    0.00000000
                                                     2        1.2000000       -2.11746981    0.00000000
                                      S - F
                                                     0        0.0000010        0.14449603    0.00000000
                                                     2        0.1200000       -0.56378993    0.00000000
                                                     2        0.1400000        0.63941249    0.00000000
                                                     2        0.2600000       -0.58461015    0.00000000
                                                     2        0.5000000        1.00157293    0.00000000
                                                     2        1.8000000       -0.14135838    0.00000000
                                      P - F
                                                     0        0.0000010       -0.09353646    0.00000000
                                                     2        0.1200000        0.31768975    0.00000000
                                                     2        0.2000000       -0.71747951    0.00000000
                                                     2        0.4000000        0.65752308    0.00000000
                                                     2        1.7000000        2.94052587    0.00000000
                                      D - F
                                                     0        0.0000010       -0.04491202    0.00000000
                                                     2        0.1200000       -0.02862031    0.00000000
                                                     2        0.1800000       -0.21515263    0.00000000
                                                     2        0.3000000        0.80560647    0.00000000
                                                     2        0.4000000        0.47351754    0.00000000
                                                     2        0.7000000       -4.57051794    0.00000000
                                                     2        1.6000000       18.53737826    0.00000000
   15          1            1
                                      F and up 
                                                     0        0.0000010        0.00072061    0.00000000
                                                     2        0.1200000        0.03832357    0.00000000
                                                     2        0.1400000       -0.08683256    0.00000000
                                                     2        0.1800000        0.09312970    0.00000000
                                                     2        0.2800000       -0.02532572    0.00000000
                                                     2        0.4000000       -0.09430787    0.00000000
                                                     2        0.7000000        0.42710831    0.00000000
                                                     2        1.2000000       -2.11746981    0.00000000
                                      S - F
                                                     0        0.0000010        0.14449603    0.00000000
                                                     2        0.1200000       -0.56378993    0.00000000
                                                     2        0.1400000        0.63941249    0.00000000
                                                     2        0.2600000       -0.58461015    0.00000000
                                                     2        0.5000000        1.00157293    0.00000000
                                                     2        1.8000000       -0.14135838    0.00000000
                                      P - F
                                                     0        0.0000010       -0.09353646    0.00000000
                                                     2        0.1200000        0.31768975    0.00000000
                                                     2        0.2000000       -0.71747951    0.00000000
                                                     2        0.4000000        0.65752308    0.00000000
                                                     2        1.7000000        2.94052587    0.00000000
                                      D - F
                                                     0        0.0000010       -0.04491202    0.00000000
                                                     2        0.1200000       -0.02862031    0.00000000
                                                     2        0.1800000       -0.21515263    0.00000000
                                                     2        0.3000000        0.80560647    0.00000000
                                                     2        0.4000000        0.47351754    0.00000000
                                                     2        0.7000000       -4.57051794    0.00000000
                                                     2        1.6000000       18.53737826    0.00000000
   16          1            1
                                      F and up 
                                                     0        0.0000010        0.00072061    0.00000000
                                                     2        0.1200000        0.03832357    0.00000000
                                                     2        0.1400000       -0.08683256    0.00000000
                                                     2        0.1800000        0.09312970    0.00000000
                                                     2        0.2800000       -0.02532572    0.00000000
                                                     2        0.4000000       -0.09430787    0.00000000
                                                     2        0.7000000        0.42710831    0.00000000
                                                     2        1.2000000       -2.11746981    0.00000000
                                      S - F
                                                     0        0.0000010        0.14449603    0.00000000
                                                     2        0.1200000       -0.56378993    0.00000000
                                                     2        0.1400000        0.63941249    0.00000000
                                                     2        0.2600000       -0.58461015    0.00000000
                                                     2        0.5000000        1.00157293    0.00000000
                                                     2        1.8000000       -0.14135838    0.00000000
                                      P - F
                                                     0        0.0000010       -0.09353646    0.00000000
                                                     2        0.1200000        0.31768975    0.00000000
                                                     2        0.2000000       -0.71747951    0.00000000
                                                     2        0.4000000        0.65752308    0.00000000
                                                     2        1.7000000        2.94052587    0.00000000
                                      D - F
                                                     0        0.0000010       -0.04491202    0.00000000
                                                     2        0.1200000       -0.02862031    0.00000000
                                                     2        0.1800000       -0.21515263    0.00000000
                                                     2        0.3000000        0.80560647    0.00000000
                                                     2        0.4000000        0.47351754    0.00000000
                                                     2        0.7000000       -4.57051794    0.00000000
                                                     2        1.6000000       18.53737826    0.00000000
 ======================================================================================================
   242 basis functions,   400 primitive gaussians,   256 cartesian basis functions
    28 alpha electrons       28 beta electrons
       nuclear repulsion energy       314.1742343294 Hartrees.
 NAtoms=   16 NActive=   16 NUniq=   16 SFac= 1.00D+00 NAtFMM=   60 NAOKFM=F Big=F
   1 Symmetry operations used in ECPInt.
 ECPInt:  NShTT=    5886 NPrTT=   25542 LenC2=    5854 LenP2D=   19931.
 LDataN:  DoStor=T MaxTD1= 6 Len=  172
 Initial guess from the checkpoint file:  "Grambow2020_wb97xd3_006602_forward_mol1.chk"
 B after Tr=    -0.803693   -0.342151    0.035355
         Rot=    0.951146   -0.271046   -0.088532    0.118392 Ang= -35.97 deg.
 >>>>>>>>>> Convergence criterion not met.
 SCF Done:  E(RHF) =  -362.518063589     A.U. after    2 cycles
            NFock=  1  Conv=0.41D+00     -V/T= 2.0306

 **********************************************************************

            Population analysis using the SCF Density.

 **********************************************************************

 Orbital symmetries:
       Occupied  (A) (A) (A) (A) (A) (A) (A) (A) (A) (A) (A) (A)
                 (A) (A) (A) (A) (A) (A) (A) (A) (A) (A) (A) (A)
                 (A) (A) (A) (A)
       Virtual   (A) (A) (A) (A) (A) (A) (A) (A) (A) (A) (A) (A)
                 (A) (A) (A) (A) (A) (A) (A) (A) (A) (A) (A) (A)
                 (A) (A) (A) (A) (A) (A) (A) (A) (A) (A) (A) (A)
                 (A) (A) (A) (A) (A) (A) (A) (A) (A) (A) (A) (A)
                 (A) (A) (A) (A) (A) (A) (A) (A) (A) (A) (A) (A)
                 (A) (A) (A) (A) (A) (A) (A) (A) (A) (A) (A) (A)
                 (A) (A) (A) (A) (A) (A) (A) (A) (A) (A) (A) (A)
                 (A) (A) (A) (A) (A) (A) (A) (A) (A) (A) (A) (A)
                 (A) (A) (A) (A) (A) (A) (A) (A) (A) (A) (A) (A)
                 (A) (A) (A) (A) (A) (A) (A) (A) (A) (A) (A) (A)
                 (A) (A) (A) (A) (A) (A) (A) (A) (A) (A) (A) (A)
                 (A) (A) (A) (A) (A) (A) (A) (A) (A) (A) (A) (A)
                 (A) (A) (A) (A) (A) (A) (A) (A) (A) (A) (A) (A)
                 (A) (A) (A) (A) (A) (A) (A) (A) (A) (A) (A) (A)
                 (A) (A) (A) (A) (A) (A) (A) (A) (A) (A) (A) (A)
                 (A) (A) (A) (A) (A) (A) (A) (A) (A) (A) (A) (A)
                 (A) (A) (A) (A) (A) (A) (A) (A) (A) (A) (A) (A)
                 (A) (A) (A) (A) (A) (A) (A) (A) (A) (A)
 The electronic state is 1-A.
 Alpha  occ. eigenvalues --  -21.06857 -21.04868 -15.73568 -11.48831 -11.46843
 Alpha  occ. eigenvalues --  -11.42275 -11.36952  -1.76324  -1.72261  -1.36754
 Alpha  occ. eigenvalues --   -1.15109  -1.01561  -0.87000  -0.84741  -0.71016
 Alpha  occ. eigenvalues --   -0.67639  -0.64541  -0.59532  -0.55333  -0.52834
 Alpha  occ. eigenvalues --   -0.51654  -0.49768  -0.48807  -0.46964  -0.41056
 Alpha  occ. eigenvalues --   -0.34014  -0.32778  -0.29181
 Alpha virt. eigenvalues --    0.03953   0.04839   0.05470   0.05782   0.05869
 Alpha virt. eigenvalues --    0.06438   0.06626   0.07113   0.08365   0.10707
 Alpha virt. eigenvalues --    0.12235   0.12828   0.13448   0.14075   0.14621
 Alpha virt. eigenvalues --    0.15435   0.15620   0.15695   0.17336   0.17705
 Alpha virt. eigenvalues --    0.18277   0.18783   0.19140   0.19760   0.20492
 Alpha virt. eigenvalues --    0.21849   0.23149   0.24372   0.24705   0.26816
 Alpha virt. eigenvalues --    0.27462   0.28783   0.29725   0.30778   0.31124
 Alpha virt. eigenvalues --    0.31445   0.32385   0.33556   0.34317   0.34969
 Alpha virt. eigenvalues --    0.35367   0.36799   0.38036   0.39090   0.40212
 Alpha virt. eigenvalues --    0.40740   0.41465   0.42413   0.43155   0.44452
 Alpha virt. eigenvalues --    0.45014   0.45902   0.46949   0.47547   0.48468
 Alpha virt. eigenvalues --    0.48857   0.49907   0.51059   0.52294   0.53377
 Alpha virt. eigenvalues --    0.54176   0.55852   0.56174   0.56850   0.58032
 Alpha virt. eigenvalues --    0.59229   0.60204   0.60731   0.62137   0.64167
 Alpha virt. eigenvalues --    0.64335   0.65262   0.65837   0.66659   0.67962
 Alpha virt. eigenvalues --    0.68992   0.69541   0.69864   0.71304   0.72448
 Alpha virt. eigenvalues --    0.73539   0.74854   0.75635   0.78454   0.79509
 Alpha virt. eigenvalues --    0.80271   0.80743   0.81282   0.83121   0.85102
 Alpha virt. eigenvalues --    0.86253   0.86737   0.88423   0.89964   0.91354
 Alpha virt. eigenvalues --    0.92497   0.93674   0.94941   0.96983   0.98329
 Alpha virt. eigenvalues --    0.99697   1.00644   1.01196   1.03968   1.06934
 Alpha virt. eigenvalues --    1.09124   1.13189   1.14062   1.16918   1.19124
 Alpha virt. eigenvalues --    1.19652   1.23919   1.28885   1.30210   1.34241
 Alpha virt. eigenvalues --    1.34943   1.36105   1.40258   1.41846   1.43655
 Alpha virt. eigenvalues --    1.47728   1.52754   1.53883   1.55585   1.61272
 Alpha virt. eigenvalues --    1.62683   1.71658   1.73635   1.75750   1.79829
 Alpha virt. eigenvalues --    1.81191   1.82687   1.83727   1.88589   1.91871
 Alpha virt. eigenvalues --    1.92393   1.95100   1.99023   1.99733   2.00540
 Alpha virt. eigenvalues --    2.02628   2.06378   2.07159   2.08169   2.12509
 Alpha virt. eigenvalues --    2.14360   2.15063   2.17776   2.21176   2.22582
 Alpha virt. eigenvalues --    2.25050   2.26609   2.30337   2.31518   2.35723
 Alpha virt. eigenvalues --    2.38449   2.40235   2.41236   2.43019   2.46674
 Alpha virt. eigenvalues --    2.50187   2.51037   2.55008   2.55784   2.57381
 Alpha virt. eigenvalues --    2.59771   2.61525   2.63533   2.68420   2.70726
 Alpha virt. eigenvalues --    2.73528   2.74298   2.77018   2.77993   2.83537
 Alpha virt. eigenvalues --    2.88801   2.91018   2.94850   2.96994   2.99648
 Alpha virt. eigenvalues --    3.06116   3.06678   3.11635   3.12661   3.15863
 Alpha virt. eigenvalues --    3.18492   3.19044   3.26909   3.29167   3.29920
 Alpha virt. eigenvalues --    3.37490   3.42044   3.50600   3.55652   3.59915
 Alpha virt. eigenvalues --    3.73335   3.74953   3.78672   3.81957   3.87813
 Alpha virt. eigenvalues --    3.92727   3.94048   4.06847   4.29756   6.02187
 Alpha virt. eigenvalues --    6.04743   6.10482   6.14066   6.17785   6.21716
 Alpha virt. eigenvalues --    6.26438   6.30902   6.33537   6.97897
          Condensed to atoms (all electrons):
 Mulliken charges:
               1
     1  C   -3.734672
     2  C    0.910264
     3  O   -3.054256
     4  C   -2.074087
     5  N   -2.908851
     6  C    2.122004
     7  O   -2.508545
     8  H    1.226106
     9  H    1.149331
    10  H    1.191337
    11  H    1.783253
    12  H    0.791483
    13  H    1.725398
    14  H    1.380412
    15  H    0.413410
    16  H    1.587412
 Sum of Mulliken charges =   0.00000
 Mulliken charges with hydrogens summed into heavy atoms:
               1
     1  C   -0.167898
     2  C    2.693517
     3  O   -2.262773
     4  C    1.031723
     5  N   -2.908851
     6  C    3.709415
     7  O   -2.095135
 Electronic spatial extent (au):  <R**2>=           1033.6592
 Charge=              0.0000 electrons
 Dipole moment (field-independent basis, Debye):
    X=             -0.8104    Y=             -0.6420    Z=              0.7053  Tot=              1.2515

 Test job not archived.
 1\1\GINC-SE229\SP\RHF\Aug-CC-pVDZ\C4H9N1O2\OHZDE\09-Apr-2025\0\\#t hf 
 aug-cc-pvdz iop(5/13=1,5/36=2,99/5=2) pseudo=read geom=check guess=(re
 ad,tcheck) scf=(maxcycle=1)\\title\\0,1\C,0,-2.20433646,-0.74578832,-0
 .10888769\C,0,-0.85576865,-0.22836151,-0.56061322\O,0,-0.9917945,1.160
 03874,-0.79675871\C,0,0.22455626,-0.4910538,0.4870556\N,0,1.50327851,0
 .03403596,0.07454227\C,0,2.18356633,1.01161975,0.58322608\O,0,3.265463
 69,1.15419849,-0.08118826\H,0,-2.16701177,-1.82055945,0.07743717\H,0,-
 2.9561693,-0.55238504,-0.87358031\H,0,-2.515738,-0.24148504,0.80826038
 \H,0,-0.56003776,-0.73505282,-1.49005433\H,0,-0.15744176,1.48640244,-1
 .14245654\H,0,-0.08217993,-0.02820549,1.4311916\H,0,0.31526665,-1.5681
 7173,0.65263911\H,0,2.62857093,0.14885127,-0.63780218\H,0,1.91667979,1
 .63387056,1.43613904\\Version=ES64L-G16RevC.01\State=1-A\HF=-362.51806
 36\RMSD=4.099e-01\Dipole=-0.3246803,-0.1582433,0.3346382\Quadrupole=-3
 .6848538,1.1717068,2.513147,0.6258922,0.2458054,1.1172349\PG=C01 [X(C4
 H9N1O2)]\\@


 NOTHING RESEMBLES A NEW PHENOMENON AS MUCH AS A MISTAKE.

                               -- ENRICO FERMI (?)
 Job cpu time:       0 days  0 hours  1 minutes  7.5 seconds.
 Elapsed time:       0 days  0 hours  0 minutes  5.1 seconds.
 File lengths (MBytes):  RWF=     14 Int=      0 D2E=      0 Chk=      8 Scr=      1
 Normal termination of Gaussian 16 at Wed Apr  9 18:07:53 2025.
