 Entering Gaussian System, Link 0=g16
 Input=Grambow2020_wb97xd3_007621_forward_mol1.gjf
 Output=Grambow2020_wb97xd3_007621_forward_mol1.log
 Initial command:
 /arc/software/Gaussian/g16.c01/l1.exe "/tmp/slurm/4881776/Gau-992250.inp" -scrdir="/tmp/slurm/4881776/"
 Entering Link 1 = /arc/software/Gaussian/g16.c01/l1.exe PID=    992251.
  
 Copyright (c) 1988-2019, Gaussian, Inc.  All Rights Reserved.
  
 This is part of the Gaussian(R) 16 program.  It is based on
 the Gaussian(R) 09 system (copyright 2009, Gaussian, Inc.),
 the Gaussian(R) 03 system (copyright 2003, Gaussian, Inc.),
 the Gaussian(R) 98 system (copyright 1998, Gaussian, Inc.),
 the Gaussian(R) 94 system (copyright 1995, Gaussian, Inc.),
 the Gaussian 92(TM) system (copyright 1992, Gaussian, Inc.),
 the Gaussian 90(TM) system (copyright 1990, Gaussian, Inc.),
 the Gaussian 88(TM) system (copyright 1988, Gaussian, Inc.),
 the Gaussian 86(TM) system (copyright 1986, Carnegie Mellon
 University), and the Gaussian 82(TM) system (copyright 1983,
 Carnegie Mellon University). Gaussian is a federally registered
 trademark of Gaussian, Inc.
  
 This software contains proprietary and confidential information,
 including trade secrets, belonging to Gaussian, Inc.
  
 This software is provided under written license and may be
 used, copied, transmitted, or stored only in accord with that
 written license.
  
 The following legend is applicable only to US Government
 contracts under FAR:
  
                    RESTRICTED RIGHTS LEGEND
  
 Use, reproduction and disclosure by the US Government is
 subject to restrictions as set forth in subparagraphs (a)
 and (c) of the Commercial Computer Software - Restricted
 Rights clause in FAR 52.227-19.
  
 Gaussian, Inc.
 340 Quinnipiac St., Bldg. 40, Wallingford CT 06492
  
  
 ---------------------------------------------------------------
 Warning -- This program may not be used in any manner that
 competes with the business of Gaussian, Inc. or will provide
 assistance to any competitor of Gaussian, Inc.  The licensee
 of this program is prohibited from giving any competitor of
 Gaussian, Inc. access to this program.  By using this program,
 the user acknowledges that Gaussian, Inc. is engaged in the
 business of creating and licensing software in the field of
 computational chemistry and represents and warrants to the
 licensee that it is not a competitor of Gaussian, Inc. and that
 it will not use this program in any manner prohibited above.
 ---------------------------------------------------------------
  

 Cite this work as:
 Gaussian 16, Revision C.01,
 M. J. Frisch, G. W. Trucks, H. B. Schlegel, G. E. Scuseria, 
 M. A. Robb, J. R. Cheeseman, G. Scalmani, V. Barone, 
 G. A. Petersson, H. Nakatsuji, X. Li, M. Caricato, A. V. Marenich, 
 J. Bloino, B. G. Janesko, R. Gomperts, B. Mennucci, H. P. Hratchian, 
 J. V. Ortiz, A. F. Izmaylov, J. L. Sonnenberg, D. Williams-Young, 
 F. Ding, F. Lipparini, F. Egidi, J. Goings, B. Peng, A. Petrone, 
 T. Henderson, D. Ranasinghe, V. G. Zakrzewski, J. Gao, N. Rega, 
 G. Zheng, W. Liang, M. Hada, M. Ehara, K. Toyota, R. Fukuda, 
 J. Hasegawa, M. Ishida, T. Nakajima, Y. Honda, O. Kitao, H. Nakai, 
 T. Vreven, K. Throssell, J. A. Montgomery, Jr., J. E. Peralta, 
 F. Ogliaro, M. J. Bearpark, J. J. Heyd, E. N. Brothers, K. N. Kudin, 
 V. N. Staroverov, T. A. Keith, R. Kobayashi, J. Normand, 
 K. Raghavachari, A. P. Rendell, J. C. Burant, S. S. Iyengar, 
 J. Tomasi, M. Cossi, J. M. Millam, M. Klene, C. Adamo, R. Cammi, 
 J. W. Ochterski, R. L. Martin, K. Morokuma, O. Farkas, 
 J. B. Foresman, and D. J. Fox, Gaussian, Inc., Wallingford CT, 2019.
 
 ******************************************
 Gaussian 16:  ES64L-G16RevC.01  3-Jul-2019
                 9-Apr-2025 
 ******************************************
 %nprocs=16
 Will use up to   16 processors via shared memory.
 %mem=30GB
 %chk=Grambow2020_wb97xd3_007621_forward_mol1.chk
 ----------------------------------------------------------------------
 #t hf aug-cc-pvdz symm=none int=(grid=ultrafine) guess=(read,tcheck) s
 table=(opt,rrhf)
 ----------------------------------------------------------------------
 -----
 title
 -----
 Symbolic Z-matrix:
 Charge =  0 Multiplicity = 1
 C                    -1.76067   0.61885   1.19119 
 C                    -0.98768  -0.75517   0.03723 
 N                    -0.88791   0.97484  -0.31947 
 C                     0.06624  -0.04403  -0.69351 
 C                     1.43623   0.09928  -0.08433 
 C                     2.36403  -1.02509  -0.45215 
 O                     2.12741  -1.86535  -1.27637 
 H                    -1.02164   0.68618   1.97865 
 H                    -2.27943   1.57987   1.09504 
 H                    -2.51328  -0.12524   1.44992 
 H                    -1.76496  -1.09435  -0.65795 
 H                    -1.56072   1.12544  -1.06294 
 H                     0.07858  -0.19943  -1.76882 
 H                     1.36597   0.14402   1.00645 
 H                     1.91698   1.0336   -0.4006 
 H                     3.33348  -1.02942   0.08886 
 
                    Distance matrix (angstroms):
                    1          2          3          4          5
     1  C    0.000000
     2  C    1.953728   0.000000
     3  N    1.780597   1.769219   0.000000
     4  C    2.707230   1.466442   1.445131   0.000000
     5  C    3.480957   2.572977   2.494696   1.506161   0.000000
     6  C    4.734575   3.397985   3.820001   2.510095   1.503431
     7  O    5.232326   3.558349   4.251408   2.811645   2.399675
     8  H    1.082028   2.418211   2.320028   2.976091   3.262124
     9  H    1.096325   2.870539   2.074420   3.367213   4.170034
    10  H    1.089509   2.172546   2.642488   3.354818   4.242990
    11  H    2.520787   1.096579   2.272739   2.111332   3.464307
    12  H    2.318987   2.252877   1.013953   2.037431   3.315474
    13  H    3.579671   2.169698   2.100861   1.086544   2.184014
    14  H    3.167882   2.699558   2.743774   2.148151   1.093957
    15  H    4.028763   3.439258   2.806678   2.161565   1.097320
    16  H    5.466468   4.330164   4.690833   3.501140   2.214389
                    6          7          8          9         10
     6  C    0.000000
     7  O    1.200565   0.000000
     8  H    4.505547   5.198265   0.000000
     9  H    5.544484   6.075636   1.778055   0.000000
    10  H    5.311847   5.656560   1.778468   1.757280   0.000000
    11  H    4.134697   4.015904   3.267178   3.238686   2.437676
    12  H    4.516800   4.753175   3.120059   2.319461   2.964124
    13  H    2.763802   2.686168   4.004780   4.114337   4.133222
    14  H    2.119065   3.135060   2.634349   3.918989   3.913791
    15  H    2.107305   3.035649   3.796973   4.488341   4.939085
    16  H    1.110201   2.004300   5.047936   6.271009   6.070802
                   11         12         13         14         15
    11  H    0.000000
    12  H    2.265658   0.000000
    13  H    2.331004   2.222802   0.000000
    14  H    3.755867   3.716324   3.078543   0.000000
    15  H    4.260416   3.541401   2.602325   1.753500   0.000000
    16  H    5.153259   5.470214   3.838517   2.467796   2.549924
                   16
    16  H    0.000000
 Symmetry turned off by external request.
 Rotational constants (GHZ):           6.9046388           1.4084710           1.3550926
   242 basis functions,   400 primitive gaussians,   256 cartesian basis functions
    27 alpha electrons       27 beta electrons
       nuclear repulsion energy       295.5272280374 Hartrees.
 NAtoms=   16 NActive=   16 NUniq=   16 SFac= 1.00D+00 NAtFMM=   60 NAOKFM=F Big=F
 ExpMin= 2.97D-02 ExpMax= 1.17D+04 ExpMxC= 4.01D+02 IAcc=3 IRadAn=         5 AccDes= 0.00D+00
 Harris functional with IExCor=  205 and IRadAn=       5 diagonalized for initial guess.
 HarFok:  IExCor=  205 AccDes= 0.00D+00 IRadAn=         5 IDoV= 1 UseB2=F ITyADJ=14
 ICtDFT=  3500011 ScaDFX=  1.000000  1.000000  1.000000  1.000000
 FoFCou: FMM=F IPFlag=           0 FMFlag=      100000 FMFlg1=           0
         NFxFlg=           0 DoJE=T BraDBF=F KetDBF=T FulRan=T
         wScrn=  0.000000 ICntrl=       500 IOpCl=  0 I1Cent=   200000004 NGrid=           0
         NMat0=    1 NMatS0=      1 NMatT0=    0 NMatD0=    1 NMtDS0=    0 NMtDT0=    0
 Symmetry not used in FoFCou.
 SCF Done:  E(RHF) =  -323.699706519     A.U. after   15 cycles
            NFock= 15  Conv=0.70D-08     -V/T= 2.0010

 **********************************************************************

            Population analysis using the SCF Density.

 **********************************************************************

 Alpha  occ. eigenvalues --  -20.56721 -15.61385 -11.34014 -11.29926 -11.26884
 Alpha  occ. eigenvalues --  -11.24495 -11.23633  -1.40364  -1.26273  -1.04598
 Alpha  occ. eigenvalues --   -0.95523  -0.91016  -0.82052  -0.74301  -0.71823
 Alpha  occ. eigenvalues --   -0.66981  -0.62519  -0.61026  -0.59858  -0.57528
 Alpha  occ. eigenvalues --   -0.55813  -0.52409  -0.49776  -0.48766  -0.42548
 Alpha  occ. eigenvalues --   -0.40263  -0.30864
 Alpha virt. eigenvalues --    0.03154   0.03791   0.04263   0.04920   0.06065
 Alpha virt. eigenvalues --    0.06264   0.06931   0.07886   0.09074   0.10123
 Alpha virt. eigenvalues --    0.11575   0.12018   0.13132   0.13747   0.14245
 Alpha virt. eigenvalues --    0.14847   0.15238   0.16129   0.16464   0.16544
 Alpha virt. eigenvalues --    0.16873   0.17457   0.17995   0.18660   0.19207
 Alpha virt. eigenvalues --    0.19599   0.20292   0.22032   0.22828   0.24159
 Alpha virt. eigenvalues --    0.24935   0.26466   0.27530   0.28989   0.29642
 Alpha virt. eigenvalues --    0.30272   0.31619   0.32397   0.33719   0.34378
 Alpha virt. eigenvalues --    0.34710   0.35446   0.35949   0.36395   0.37960
 Alpha virt. eigenvalues --    0.38599   0.40582   0.41729   0.42843   0.43217
 Alpha virt. eigenvalues --    0.43708   0.44823   0.45283   0.46257   0.46789
 Alpha virt. eigenvalues --    0.47240   0.48497   0.49520   0.50317   0.50427
 Alpha virt. eigenvalues --    0.51001   0.52118   0.53113   0.54831   0.55569
 Alpha virt. eigenvalues --    0.56178   0.57699   0.59071   0.59540   0.60759
 Alpha virt. eigenvalues --    0.61160   0.61721   0.62863   0.64226   0.64928
 Alpha virt. eigenvalues --    0.66087   0.66512   0.67005   0.67540   0.68562
 Alpha virt. eigenvalues --    0.70456   0.72233   0.73188   0.74025   0.74858
 Alpha virt. eigenvalues --    0.75187   0.75993   0.76589   0.77601   0.78842
 Alpha virt. eigenvalues --    0.79863   0.81198   0.82594   0.83639   0.84461
 Alpha virt. eigenvalues --    0.85752   0.86714   0.87149   0.89209   0.89918
 Alpha virt. eigenvalues --    0.91990   0.93207   0.94475   0.95648   0.96407
 Alpha virt. eigenvalues --    0.99523   1.02701   1.03437   1.04256   1.06675
 Alpha virt. eigenvalues --    1.09220   1.10640   1.12519   1.13376   1.15878
 Alpha virt. eigenvalues --    1.17965   1.18569   1.21281   1.23413   1.26483
 Alpha virt. eigenvalues --    1.29186   1.29806   1.30466   1.32137   1.35344
 Alpha virt. eigenvalues --    1.38051   1.38611   1.41610   1.43888   1.47458
 Alpha virt. eigenvalues --    1.49139   1.52578   1.54683   1.56760   1.60177
 Alpha virt. eigenvalues --    1.62276   1.62972   1.64347   1.67854   1.69448
 Alpha virt. eigenvalues --    1.70595   1.72432   1.74542   1.78401   1.80447
 Alpha virt. eigenvalues --    1.81861   1.84493   1.85953   1.87869   1.89644
 Alpha virt. eigenvalues --    1.91357   1.93278   1.96459   1.98291   2.00538
 Alpha virt. eigenvalues --    2.01413   2.03147   2.05520   2.05919   2.09534
 Alpha virt. eigenvalues --    2.11243   2.13595   2.17353   2.18664   2.19986
 Alpha virt. eigenvalues --    2.20325   2.24536   2.25798   2.29028   2.32059
 Alpha virt. eigenvalues --    2.32278   2.35804   2.37780   2.39448   2.40899
 Alpha virt. eigenvalues --    2.42024   2.42858   2.44723   2.48065   2.48717
 Alpha virt. eigenvalues --    2.50784   2.55162   2.58176   2.59105   2.60706
 Alpha virt. eigenvalues --    2.65458   2.69418   2.70929   2.76846   2.79247
 Alpha virt. eigenvalues --    2.80544   2.82826   2.83826   2.86548   2.91162
 Alpha virt. eigenvalues --    2.94363   2.96999   2.98467   3.03060   3.03633
 Alpha virt. eigenvalues --    3.05584   3.12204   3.15842   3.23385   3.27412
 Alpha virt. eigenvalues --    3.34792   3.40164   3.58133   3.63320   3.76722
 Alpha virt. eigenvalues --    3.80634   3.84746   3.90321   3.96523   4.15185
          Condensed to atoms (all electrons):
 Mulliken charges:
               1
     1  C    0.746239
     2  C   -0.133276
     3  N   -0.626465
     4  C    0.729973
     5  C    0.044862
     6  C    0.923505
     7  O   -0.695178
     8  H   -0.128250
     9  H   -0.190917
    10  H   -0.011718
    11  H   -0.198262
    12  H   -0.020223
    13  H   -0.361857
    14  H   -0.001147
    15  H    0.039959
    16  H   -0.117246
 Sum of Mulliken charges =  -0.00000
 Mulliken charges with hydrogens summed into heavy atoms:
               1
     1  C    0.415355
     2  C   -0.331538
     3  N   -0.646688
     4  C    0.368116
     5  C    0.083674
     6  C    0.806259
     7  O   -0.695178
 Electronic spatial extent (au):  <R**2>=            959.1452
 Charge=              0.0000 electrons
 Dipole moment (field-independent basis, Debye):
    X=             -0.9303    Y=              3.1438    Z=              0.7670  Tot=              3.3671
 NROrb=    242 NOA=    27 NOB=    27 NVA=   215 NVB=   215

 **** Warning!!: The largest alpha MO coefficient is  0.62936880D+02

    12 initial guesses have been made.
 Iteration     1 Dimension    12 NMult     0 NNew     12
 Iteration     2 Dimension    24 NMult    12 NNew     12
 Iteration     3 Dimension    27 NMult    24 NNew      3
 Iteration     4 Dimension    30 NMult    27 NNew      3
 Iteration     5 Dimension    33 NMult    30 NNew      3
 Iteration     6 Dimension    36 NMult    33 NNew      3
 Iteration     7 Dimension    39 NMult    36 NNew      3
 ***********************************************************************
 Stability analysis using <AA,BB:AA,BB> singles matrix:
 ***********************************************************************
 Ground to excited state transition densities written to RWF  633

 Eigenvectors of the stability matrix:
 
 Excited state symmetry could not be determined.
 Eigenvector   1:      Singlet-?Sym  Eigenvalue= 0.1700551  <S**2>=0.000
      27 -> 28         0.11116
      27 -> 30        -0.19533
      27 -> 31         0.20954
      27 -> 32         0.10983
      27 -> 37         0.14339
      27 -> 38         0.21636
      27 -> 39         0.18931
      27 -> 40        -0.13386
      27 -> 41         0.11311
      27 -> 45        -0.21157
      27 -> 47        -0.13650
      27 -> 55        -0.12773
      27 -> 56         0.11765
      27 -> 57        -0.21758
      27 -> 59         0.11738
 The wavefunction is stable under the perturbations considered.
 The wavefunction is already stable.

 **********************************************************************

            Population analysis using the SCF Density.

 **********************************************************************

 Alpha  occ. eigenvalues --  -20.56721 -15.61385 -11.34014 -11.29926 -11.26884
 Alpha  occ. eigenvalues --  -11.24495 -11.23633  -1.40364  -1.26273  -1.04598
 Alpha  occ. eigenvalues --   -0.95523  -0.91016  -0.82052  -0.74301  -0.71823
 Alpha  occ. eigenvalues --   -0.66981  -0.62519  -0.61026  -0.59858  -0.57528
 Alpha  occ. eigenvalues --   -0.55813  -0.52409  -0.49776  -0.48766  -0.42548
 Alpha  occ. eigenvalues --   -0.40263  -0.30864
 Alpha virt. eigenvalues --    0.03154   0.03791   0.04263   0.04920   0.06065
 Alpha virt. eigenvalues --    0.06264   0.06931   0.07886   0.09074   0.10123
 Alpha virt. eigenvalues --    0.11575   0.12018   0.13132   0.13747   0.14245
 Alpha virt. eigenvalues --    0.14847   0.15238   0.16129   0.16464   0.16544
 Alpha virt. eigenvalues --    0.16873   0.17457   0.17995   0.18660   0.19207
 Alpha virt. eigenvalues --    0.19599   0.20292   0.22032   0.22828   0.24159
 Alpha virt. eigenvalues --    0.24935   0.26466   0.27530   0.28989   0.29642
 Alpha virt. eigenvalues --    0.30272   0.31619   0.32397   0.33719   0.34378
 Alpha virt. eigenvalues --    0.34710   0.35446   0.35949   0.36395   0.37960
 Alpha virt. eigenvalues --    0.38599   0.40582   0.41729   0.42843   0.43217
 Alpha virt. eigenvalues --    0.43708   0.44823   0.45283   0.46257   0.46789
 Alpha virt. eigenvalues --    0.47240   0.48497   0.49520   0.50317   0.50427
 Alpha virt. eigenvalues --    0.51001   0.52118   0.53113   0.54831   0.55569
 Alpha virt. eigenvalues --    0.56178   0.57699   0.59071   0.59540   0.60759
 Alpha virt. eigenvalues --    0.61160   0.61721   0.62863   0.64226   0.64928
 Alpha virt. eigenvalues --    0.66087   0.66512   0.67005   0.67540   0.68562
 Alpha virt. eigenvalues --    0.70456   0.72233   0.73188   0.74025   0.74858
 Alpha virt. eigenvalues --    0.75187   0.75993   0.76589   0.77601   0.78842
 Alpha virt. eigenvalues --    0.79863   0.81198   0.82594   0.83639   0.84461
 Alpha virt. eigenvalues --    0.85752   0.86714   0.87149   0.89209   0.89918
 Alpha virt. eigenvalues --    0.91990   0.93207   0.94475   0.95648   0.96407
 Alpha virt. eigenvalues --    0.99523   1.02701   1.03437   1.04256   1.06675
 Alpha virt. eigenvalues --    1.09220   1.10640   1.12519   1.13376   1.15878
 Alpha virt. eigenvalues --    1.17965   1.18569   1.21281   1.23413   1.26483
 Alpha virt. eigenvalues --    1.29186   1.29806   1.30466   1.32137   1.35344
 Alpha virt. eigenvalues --    1.38051   1.38611   1.41610   1.43888   1.47458
 Alpha virt. eigenvalues --    1.49139   1.52578   1.54683   1.56760   1.60177
 Alpha virt. eigenvalues --    1.62276   1.62972   1.64347   1.67854   1.69448
 Alpha virt. eigenvalues --    1.70595   1.72432   1.74542   1.78401   1.80447
 Alpha virt. eigenvalues --    1.81861   1.84493   1.85953   1.87869   1.89644
 Alpha virt. eigenvalues --    1.91357   1.93278   1.96459   1.98291   2.00538
 Alpha virt. eigenvalues --    2.01413   2.03147   2.05520   2.05919   2.09534
 Alpha virt. eigenvalues --    2.11243   2.13595   2.17353   2.18664   2.19986
 Alpha virt. eigenvalues --    2.20325   2.24536   2.25798   2.29028   2.32059
 Alpha virt. eigenvalues --    2.32278   2.35804   2.37780   2.39448   2.40899
 Alpha virt. eigenvalues --    2.42024   2.42858   2.44723   2.48065   2.48717
 Alpha virt. eigenvalues --    2.50784   2.55162   2.58176   2.59105   2.60706
 Alpha virt. eigenvalues --    2.65458   2.69418   2.70929   2.76846   2.79247
 Alpha virt. eigenvalues --    2.80544   2.82826   2.83826   2.86548   2.91162
 Alpha virt. eigenvalues --    2.94363   2.96999   2.98467   3.03060   3.03633
 Alpha virt. eigenvalues --    3.05584   3.12204   3.15842   3.23385   3.27412
 Alpha virt. eigenvalues --    3.34792   3.40164   3.58133   3.63320   3.76722
 Alpha virt. eigenvalues --    3.80634   3.84746   3.90321   3.96523   4.15185
          Condensed to atoms (all electrons):
 Mulliken charges:
               1
     1  C    0.746239
     2  C   -0.133276
     3  N   -0.626465
     4  C    0.729973
     5  C    0.044862
     6  C    0.923505
     7  O   -0.695178
     8  H   -0.128250
     9  H   -0.190917
    10  H   -0.011718
    11  H   -0.198262
    12  H   -0.020223
    13  H   -0.361857
    14  H   -0.001147
    15  H    0.039959
    16  H   -0.117246
 Sum of Mulliken charges =  -0.00000
 Mulliken charges with hydrogens summed into heavy atoms:
               1
     1  C    0.415355
     2  C   -0.331538
     3  N   -0.646688
     4  C    0.368116
     5  C    0.083674
     6  C    0.806259
     7  O   -0.695178
 Electronic spatial extent (au):  <R**2>=            959.1452
 Charge=              0.0000 electrons
 Dipole moment (field-independent basis, Debye):
    X=             -0.9303    Y=              3.1438    Z=              0.7670  Tot=              3.3671
 Unable to Open any file for archive entry.
 1\1\GINC-SE116\Stability\RHF\Aug-CC-pVDZ\C5H9N1O1\OHZDE\09-Apr-2025\0\
 \#t hf aug-cc-pvdz symm=none int=(grid=ultrafine) guess=(read,tcheck) 
 stable=(opt,rrhf)\\title\\0,1\C,0,-1.76066722,0.61884611,1.19118949\C,
 0,-0.98768049,-0.75517408,0.03723366\N,0,-0.88790705,0.97483913,-0.319
 46769\C,0,0.06623669,-0.04403418,-0.69351321\C,0,1.43623038,0.09927867
 ,-0.08433304\C,0,2.36402824,-1.02509169,-0.45214794\O,0,2.12741389,-1.
 86534566,-1.27637098\H,0,-1.0216375,0.68618336,1.97864507\H,0,-2.27942
 798,1.57987132,1.09503642\H,0,-2.51327809,-0.12523958,1.44992217\H,0,-
 1.76496342,-1.09435054,-0.65794756\H,0,-1.5607175,1.1254406,-1.0629360
 9\H,0,0.07858273,-0.19942708,-1.76881661\H,0,1.36597385,0.14401788,1.0
 0644897\H,0,1.91698288,1.03360391,-0.40060054\H,0,3.33348159,-1.029421
 18,0.08885787\\Version=ES64L-G16RevC.01\HF=-323.6997065\RMSD=7.008e-09
 \Dipole=-0.3660177,1.2368516,0.3017601\Quadrupole=5.0513922,-5.7554406
 ,0.7040484,2.1193699,4.0292687,-2.8066571\PG=Unknown\\@
 The archive entry for this job was punched.


 THOSE WHO ARE UNABLE TO LEARN FROM PAST MEETINGS
 ARE CONDEMNED TO REPEAT THEM.
 Job cpu time:       0 days  0 hours  9 minutes  6.1 seconds.
 Elapsed time:       0 days  0 hours  0 minutes 39.1 seconds.
 File lengths (MBytes):  RWF=    255 Int=      0 D2E=      0 Chk=      8 Scr=      1
 Normal termination of Gaussian 16 at Wed Apr  9 18:45:45 2025.
 Initial command:
 /arc/software/Gaussian/g16.c01/l1.exe "/tmp/slurm/4881776/Gau-992250.inp" -scrdir="/tmp/slurm/4881776/"
 Entering Link 1 = /arc/software/Gaussian/g16.c01/l1.exe PID=    992470.
  
 Copyright (c) 1988-2019, Gaussian, Inc.  All Rights Reserved.
  
 This is part of the Gaussian(R) 16 program.  It is based on
 the Gaussian(R) 09 system (copyright 2009, Gaussian, Inc.),
 the Gaussian(R) 03 system (copyright 2003, Gaussian, Inc.),
 the Gaussian(R) 98 system (copyright 1998, Gaussian, Inc.),
 the Gaussian(R) 94 system (copyright 1995, Gaussian, Inc.),
 the Gaussian 92(TM) system (copyright 1992, Gaussian, Inc.),
 the Gaussian 90(TM) system (copyright 1990, Gaussian, Inc.),
 the Gaussian 88(TM) system (copyright 1988, Gaussian, Inc.),
 the Gaussian 86(TM) system (copyright 1986, Carnegie Mellon
 University), and the Gaussian 82(TM) system (copyright 1983,
 Carnegie Mellon University). Gaussian is a federally registered
 trademark of Gaussian, Inc.
  
 This software contains proprietary and confidential information,
 including trade secrets, belonging to Gaussian, Inc.
  
 This software is provided under written license and may be
 used, copied, transmitted, or stored only in accord with that
 written license.
  
 The following legend is applicable only to US Government
 contracts under FAR:
  
                    RESTRICTED RIGHTS LEGEND
  
 Use, reproduction and disclosure by the US Government is
 subject to restrictions as set forth in subparagraphs (a)
 and (c) of the Commercial Computer Software - Restricted
 Rights clause in FAR 52.227-19.
  
 Gaussian, Inc.
 340 Quinnipiac St., Bldg. 40, Wallingford CT 06492
  
  
 ---------------------------------------------------------------
 Warning -- This program may not be used in any manner that
 competes with the business of Gaussian, Inc. or will provide
 assistance to any competitor of Gaussian, Inc.  The licensee
 of this program is prohibited from giving any competitor of
 Gaussian, Inc. access to this program.  By using this program,
 the user acknowledges that Gaussian, Inc. is engaged in the
 business of creating and licensing software in the field of
 computational chemistry and represents and warrants to the
 licensee that it is not a competitor of Gaussian, Inc. and that
 it will not use this program in any manner prohibited above.
 ---------------------------------------------------------------
  

 Cite this work as:
 Gaussian 16, Revision C.01,
 M. J. Frisch, G. W. Trucks, H. B. Schlegel, G. E. Scuseria, 
 M. A. Robb, J. R. Cheeseman, G. Scalmani, V. Barone, 
 G. A. Petersson, H. Nakatsuji, X. Li, M. Caricato, A. V. Marenich, 
 J. Bloino, B. G. Janesko, R. Gomperts, B. Mennucci, H. P. Hratchian, 
 J. V. Ortiz, A. F. Izmaylov, J. L. Sonnenberg, D. Williams-Young, 
 F. Ding, F. Lipparini, F. Egidi, J. Goings, B. Peng, A. Petrone, 
 T. Henderson, D. Ranasinghe, V. G. Zakrzewski, J. Gao, N. Rega, 
 G. Zheng, W. Liang, M. Hada, M. Ehara, K. Toyota, R. Fukuda, 
 J. Hasegawa, M. Ishida, T. Nakajima, Y. Honda, O. Kitao, H. Nakai, 
 T. Vreven, K. Throssell, J. A. Montgomery, Jr., J. E. Peralta, 
 F. Ogliaro, M. J. Bearpark, J. J. Heyd, E. N. Brothers, K. N. Kudin, 
 V. N. Staroverov, T. A. Keith, R. Kobayashi, J. Normand, 
 K. Raghavachari, A. P. Rendell, J. C. Burant, S. S. Iyengar, 
 J. Tomasi, M. Cossi, J. M. Millam, M. Klene, C. Adamo, R. Cammi, 
 J. W. Ochterski, R. L. Martin, K. Morokuma, O. Farkas, 
 J. B. Foresman, and D. J. Fox, Gaussian, Inc., Wallingford CT, 2019.
 
 ******************************************
 Gaussian 16:  ES64L-G16RevC.01  3-Jul-2019
                 9-Apr-2025 
 ******************************************
 %nprocs=16
 Will use up to   16 processors via shared memory.
 %mem=30GB
 %chk=Grambow2020_wb97xd3_007621_forward_mol1.chk
 ----------------------------------------------------------------------
 #t hf aug-cc-pvdz iop(5/13=1,5/36=2,99/5=2) pseudo=read geom=check gue
 ss=(read,tcheck) scf=(maxcycle=1)
 ----------------------------------------------------------------------
 -----
 title
 -----
 Structure from the checkpoint file:  "Grambow2020_wb97xd3_007621_forward_mol1.chk"
 Charge =  0 Multiplicity = 1
 Z-Matrix found in chk file.
 C,0,-1.76066722,0.61884611,1.19118949
 C,0,-0.98768049,-0.75517408,0.03723366
 N,0,-0.88790705,0.97483913,-0.31946769
 C,0,0.06623669,-0.04403418,-0.69351321
 C,0,1.43623038,0.09927867,-0.08433304
 C,0,2.36402824,-1.02509169,-0.45214794
 O,0,2.12741389,-1.86534566,-1.27637098
 H,0,-1.0216375,0.68618336,1.97864507
 H,0,-2.27942798,1.57987132,1.09503642
 H,0,-2.51327809,-0.12523958,1.44992217
 H,0,-1.76496342,-1.09435054,-0.65794756
 H,0,-1.5607175,1.1254406,-1.06293609
 H,0,0.07858273,-0.19942708,-1.76881661
 H,0,1.36597385,0.14401788,1.00644897
 H,0,1.91698288,1.03360391,-0.40060054
 H,0,3.33348159,-1.02942118,0.08885787
 Recover connectivity data from disk.
                    Distance matrix (angstroms):
                    1          2          3          4          5
     1  C    0.000000
     2  C    1.953728   0.000000
     3  N    1.780597   1.769219   0.000000
     4  C    2.707230   1.466442   1.445131   0.000000
     5  C    3.480957   2.572977   2.494696   1.506161   0.000000
     6  C    4.734575   3.397985   3.820001   2.510095   1.503431
     7  O    5.232326   3.558349   4.251408   2.811645   2.399675
     8  H    1.082028   2.418211   2.320028   2.976091   3.262124
     9  H    1.096325   2.870539   2.074420   3.367213   4.170034
    10  H    1.089509   2.172546   2.642488   3.354818   4.242990
    11  H    2.520787   1.096579   2.272739   2.111332   3.464307
    12  H    2.318987   2.252877   1.013953   2.037431   3.315474
    13  H    3.579671   2.169698   2.100861   1.086544   2.184014
    14  H    3.167882   2.699558   2.743774   2.148151   1.093957
    15  H    4.028763   3.439258   2.806678   2.161565   1.097320
    16  H    5.466468   4.330164   4.690833   3.501140   2.214389
                    6          7          8          9         10
     6  C    0.000000
     7  O    1.200565   0.000000
     8  H    4.505547   5.198265   0.000000
     9  H    5.544484   6.075636   1.778055   0.000000
    10  H    5.311847   5.656560   1.778468   1.757280   0.000000
    11  H    4.134697   4.015904   3.267178   3.238686   2.437676
    12  H    4.516800   4.753175   3.120059   2.319461   2.964124
    13  H    2.763802   2.686168   4.004780   4.114337   4.133222
    14  H    2.119065   3.135060   2.634349   3.918989   3.913791
    15  H    2.107305   3.035649   3.796973   4.488341   4.939085
    16  H    1.110201   2.004300   5.047936   6.271009   6.070802
                   11         12         13         14         15
    11  H    0.000000
    12  H    2.265658   0.000000
    13  H    2.331004   2.222802   0.000000
    14  H    3.755867   3.716324   3.078543   0.000000
    15  H    4.260416   3.541401   2.602325   1.753500   0.000000
    16  H    5.153259   5.470214   3.838517   2.467796   2.549924
                   16
    16  H    0.000000
 Framework group  C1[X(C5H9NO)]
 Deg. of freedom    42
                         Standard orientation:                         
 ---------------------------------------------------------------------
 Center     Atomic      Atomic             Coordinates (Angstroms)
 Number     Number       Type             X           Y           Z
 ---------------------------------------------------------------------
      1          6           0       -2.529655   -0.245611   -0.599413
      2          6           0       -0.944257    0.891430   -0.495953
      3          7           0       -1.460093   -0.170007    0.822152
      4          6           0       -0.107129    0.231325    0.510988
      5          6           0        0.819522   -0.883644    0.102717
      6          6           0        2.191382   -0.399235   -0.276298
      7          8           0        2.589614    0.721865   -0.115352
      8          1           0       -2.167809   -1.074187   -1.193815
      9          1           0       -3.339972   -0.591537    0.053006
     10          1           0       -2.948746    0.522721   -1.248303
     11          1           0       -1.255622    1.879945   -0.137655
     12          1           0       -1.868479    0.451877    1.511051
     13          1           0        0.300478    0.880385    1.281152
     14          1           0        0.403012   -1.434535   -0.745683
     15          1           0        0.945128   -1.613696    0.912260
     16          1           0        2.856570   -1.171429   -0.716512
 ---------------------------------------------------------------------
 Rotational constants (GHZ):           6.9046388           1.4084710           1.3550926
 ======================================================================================================
                                       Pseudopotential Parameters
 ======================================================================================================
  Center     Atomic      Valence      Angular      Power
  Number     Number     Electrons     Momentum     of R      Exponent        Coefficient   SO-Coeffient
 ======================================================================================================
    1          6            6
                                      G and up 
                                                     0        0.0000010       -0.00286759    0.00000000
                                                     2        0.1200000        0.03193960    0.00000000
                                                     2        0.1600000       -0.04027782    0.00000000
                                                     2        0.2600000        0.24782456    0.00000000
                                                     2        0.4000000       -0.62266671    0.00000000
                                                     2        0.7000000        0.35695227    0.00000000
                                      S - G
                                                     0        0.0000010       -0.06602313    0.00000000
                                                     2        0.1200000        1.47277455    0.00000000
                                                     2        0.1600000       -4.06924166    0.00000000
                                                     2        0.3000000        5.02952802    0.00000000
                                                     2        0.7000000       -5.65856978    0.00000000
                                                     2        1.7000000        8.57604414    0.00000000
                                      P - G
                                                     0        0.0000010        0.49434425    0.00000000
                                                     2        0.1200000       -1.37391547    0.00000000
                                                     2        0.1600000        3.65411806    0.00000000
                                                     2        0.2800000       -7.36479843    0.00000000
                                                     2        0.6000000       17.22091285    0.00000000
                                                     2        1.1000000      -23.50107827    0.00000000
                                                     2        3.0000000       16.29464063    0.00000000
                                      D - G
                                                     0        0.0000010       -0.28693103    0.00000000
                                                     2        0.1200000        0.12273044    0.00000000
                                                     2        0.3000000       -0.43416384    0.00000000
                                                     2        0.7000000        2.23358493    0.00000000
                                      F - G
                                                     0        0.0000010        0.07263570    0.00000000
                                                     2        0.1400000       -0.76152861    0.00000000
                                                     2        0.2200000        1.98045593    0.00000000
                                                     2        0.4000000       -2.42426427    0.00000000
                                                     2        0.7000000        0.52335237    0.00000000
    2          6            6
                                      G and up 
                                                     0        0.0000010       -0.00286759    0.00000000
                                                     2        0.1200000        0.03193960    0.00000000
                                                     2        0.1600000       -0.04027782    0.00000000
                                                     2        0.2600000        0.24782456    0.00000000
                                                     2        0.4000000       -0.62266671    0.00000000
                                                     2        0.7000000        0.35695227    0.00000000
                                      S - G
                                                     0        0.0000010       -0.06602313    0.00000000
                                                     2        0.1200000        1.47277455    0.00000000
                                                     2        0.1600000       -4.06924166    0.00000000
                                                     2        0.3000000        5.02952802    0.00000000
                                                     2        0.7000000       -5.65856978    0.00000000
                                                     2        1.7000000        8.57604414    0.00000000
                                      P - G
                                                     0        0.0000010        0.49434425    0.00000000
                                                     2        0.1200000       -1.37391547    0.00000000
                                                     2        0.1600000        3.65411806    0.00000000
                                                     2        0.2800000       -7.36479843    0.00000000
                                                     2        0.6000000       17.22091285    0.00000000
                                                     2        1.1000000      -23.50107827    0.00000000
                                                     2        3.0000000       16.29464063    0.00000000
                                      D - G
                                                     0        0.0000010       -0.28693103    0.00000000
                                                     2        0.1200000        0.12273044    0.00000000
                                                     2        0.3000000       -0.43416384    0.00000000
                                                     2        0.7000000        2.23358493    0.00000000
                                      F - G
                                                     0        0.0000010        0.07263570    0.00000000
                                                     2        0.1400000       -0.76152861    0.00000000
                                                     2        0.2200000        1.98045593    0.00000000
                                                     2        0.4000000       -2.42426427    0.00000000
                                                     2        0.7000000        0.52335237    0.00000000
    3          7            7
                                      G and up 
                                                     0        0.0000010        0.00420138    0.00000000
                                                     2        0.1200000        0.05872431    0.00000000
                                                     2        0.1400000       -0.08436978    0.00000000
                                                     2        0.2000000        0.05409159    0.00000000
                                                     2        0.2600000        0.14199713    0.00000000
                                                     2        0.6000000       -0.79062770    0.00000000
                                                     2        0.7000000       -0.14441060    0.00000000
                                                     2        1.5000000        0.73772979    0.00000000
                                      S - G
                                                     0        0.0000010       -0.03094411    0.00000000
                                                     2        0.1200000        0.65332522    0.00000000
                                                     2        0.1800000       -1.38149133    0.00000000
                                                     2        1.3000000        3.29267299    0.00000000
                                      P - G
                                                     0        0.0000010        0.07303105    0.00000000
                                                     2        0.1200000        0.23145115    0.00000000
                                                     2        0.2000000       -1.20679699    0.00000000
                                                     2        0.4000000        1.75088447    0.00000000
                                                     2        1.2000000       -0.67486559    0.00000000
                                      D - G
                                                     0        0.0000010        0.07560739    0.00000000
                                                     2        0.3000000       -0.68679114    0.00000000
                                                     2        0.9000000        3.60133241    0.00000000
                                      F - G
                                                     0        0.0000010       -0.18221184    0.00000000
                                                     2        0.1200000       -0.39369067    0.00000000
                                                     2        0.1800000        0.72091725    0.00000000
                                                     2        0.6000000        0.15946111    0.00000000
    4          6            6
                                      G and up 
                                                     0        0.0000010       -0.00286759    0.00000000
                                                     2        0.1200000        0.03193960    0.00000000
                                                     2        0.1600000       -0.04027782    0.00000000
                                                     2        0.2600000        0.24782456    0.00000000
                                                     2        0.4000000       -0.62266671    0.00000000
                                                     2        0.7000000        0.35695227    0.00000000
                                      S - G
                                                     0        0.0000010       -0.06602313    0.00000000
                                                     2        0.1200000        1.47277455    0.00000000
                                                     2        0.1600000       -4.06924166    0.00000000
                                                     2        0.3000000        5.02952802    0.00000000
                                                     2        0.7000000       -5.65856978    0.00000000
                                                     2        1.7000000        8.57604414    0.00000000
                                      P - G
                                                     0        0.0000010        0.49434425    0.00000000
                                                     2        0.1200000       -1.37391547    0.00000000
                                                     2        0.1600000        3.65411806    0.00000000
                                                     2        0.2800000       -7.36479843    0.00000000
                                                     2        0.6000000       17.22091285    0.00000000
                                                     2        1.1000000      -23.50107827    0.00000000
                                                     2        3.0000000       16.29464063    0.00000000
                                      D - G
                                                     0        0.0000010       -0.28693103    0.00000000
                                                     2        0.1200000        0.12273044    0.00000000
                                                     2        0.3000000       -0.43416384    0.00000000
                                                     2        0.7000000        2.23358493    0.00000000
                                      F - G
                                                     0        0.0000010        0.07263570    0.00000000
                                                     2        0.1400000       -0.76152861    0.00000000
                                                     2        0.2200000        1.98045593    0.00000000
                                                     2        0.4000000       -2.42426427    0.00000000
                                                     2        0.7000000        0.52335237    0.00000000
    5          6            6
                                      G and up 
                                                     0        0.0000010       -0.00286759    0.00000000
                                                     2        0.1200000        0.03193960    0.00000000
                                                     2        0.1600000       -0.04027782    0.00000000
                                                     2        0.2600000        0.24782456    0.00000000
                                                     2        0.4000000       -0.62266671    0.00000000
                                                     2        0.7000000        0.35695227    0.00000000
                                      S - G
                                                     0        0.0000010       -0.06602313    0.00000000
                                                     2        0.1200000        1.47277455    0.00000000
                                                     2        0.1600000       -4.06924166    0.00000000
                                                     2        0.3000000        5.02952802    0.00000000
                                                     2        0.7000000       -5.65856978    0.00000000
                                                     2        1.7000000        8.57604414    0.00000000
                                      P - G
                                                     0        0.0000010        0.49434425    0.00000000
                                                     2        0.1200000       -1.37391547    0.00000000
                                                     2        0.1600000        3.65411806    0.00000000
                                                     2        0.2800000       -7.36479843    0.00000000
                                                     2        0.6000000       17.22091285    0.00000000
                                                     2        1.1000000      -23.50107827    0.00000000
                                                     2        3.0000000       16.29464063    0.00000000
                                      D - G
                                                     0        0.0000010       -0.28693103    0.00000000
                                                     2        0.1200000        0.12273044    0.00000000
                                                     2        0.3000000       -0.43416384    0.00000000
                                                     2        0.7000000        2.23358493    0.00000000
                                      F - G
                                                     0        0.0000010        0.07263570    0.00000000
                                                     2        0.1400000       -0.76152861    0.00000000
                                                     2        0.2200000        1.98045593    0.00000000
                                                     2        0.4000000       -2.42426427    0.00000000
                                                     2        0.7000000        0.52335237    0.00000000
    6          6            6
                                      G and up 
                                                     0        0.0000010       -0.00286759    0.00000000
                                                     2        0.1200000        0.03193960    0.00000000
                                                     2        0.1600000       -0.04027782    0.00000000
                                                     2        0.2600000        0.24782456    0.00000000
                                                     2        0.4000000       -0.62266671    0.00000000
                                                     2        0.7000000        0.35695227    0.00000000
                                      S - G
                                                     0        0.0000010       -0.06602313    0.00000000
                                                     2        0.1200000        1.47277455    0.00000000
                                                     2        0.1600000       -4.06924166    0.00000000
                                                     2        0.3000000        5.02952802    0.00000000
                                                     2        0.7000000       -5.65856978    0.00000000
                                                     2        1.7000000        8.57604414    0.00000000
                                      P - G
                                                     0        0.0000010        0.49434425    0.00000000
                                                     2        0.1200000       -1.37391547    0.00000000
                                                     2        0.1600000        3.65411806    0.00000000
                                                     2        0.2800000       -7.36479843    0.00000000
                                                     2        0.6000000       17.22091285    0.00000000
                                                     2        1.1000000      -23.50107827    0.00000000
                                                     2        3.0000000       16.29464063    0.00000000
                                      D - G
                                                     0        0.0000010       -0.28693103    0.00000000
                                                     2        0.1200000        0.12273044    0.00000000
                                                     2        0.3000000       -0.43416384    0.00000000
                                                     2        0.7000000        2.23358493    0.00000000
                                      F - G
                                                     0        0.0000010        0.07263570    0.00000000
                                                     2        0.1400000       -0.76152861    0.00000000
                                                     2        0.2200000        1.98045593    0.00000000
                                                     2        0.4000000       -2.42426427    0.00000000
                                                     2        0.7000000        0.52335237    0.00000000
    7          8            8
                                      G and up 
                                                     0        0.0000010       -0.00165251    0.00000000
                                                     2        0.1200000       -0.10937202    0.00000000
                                                     2        0.1400000        0.35668905    0.00000000
                                                     2        0.1800000       -0.51696033    0.00000000
                                                     2        0.2400000        0.52446472    0.00000000
                                                     2        0.4000000       -0.07754493    0.00000000
                                                     2        0.8000000       -1.90560988    0.00000000
                                                     2        1.7000000        0.19857963    0.00000000
                                      S - G
                                                     0        0.0000010       -0.03845181    0.00000000
                                                     2        0.1400000        0.42024558    0.00000000
                                                     2        0.4000000       -4.10467779    0.00000000
                                                     2        1.3000000        9.99571838    0.00000000
                                      P - G
                                                     0        0.0000010        0.33206183    0.00000000
                                                     2        0.1200000       -0.18708141    0.00000000
                                                     2        0.2800000       -0.18179081    0.00000000
                                                     2        0.7000000        1.18820394    0.00000000
                                      D - G
                                                     0        0.0000010       -0.57891674    0.00000000
                                                     2        0.1200000        0.60487490    0.00000000
                                                     2        0.2400000       -0.24931464    0.00000000
                                                     2        0.3000000       -2.75054612    0.00000000
                                                     2        1.0000000       15.96776040    0.00000000
                                      F - G
                                                     0        0.0000010        0.37449041    0.00000000
                                                     2        0.1200000       -0.63373642    0.00000000
                                                     2        0.1400000       -0.08412804    0.00000000
                                                     2        0.2800000        2.62321406    0.00000000
                                                     2        0.6000000       -2.68223623    0.00000000
    8          1            1
                                      F and up 
                                                     0        0.0000010        0.00072061    0.00000000
                                                     2        0.1200000        0.03832357    0.00000000
                                                     2        0.1400000       -0.08683256    0.00000000
                                                     2        0.1800000        0.09312970    0.00000000
                                                     2        0.2800000       -0.02532572    0.00000000
                                                     2        0.4000000       -0.09430787    0.00000000
                                                     2        0.7000000        0.42710831    0.00000000
                                                     2        1.2000000       -2.11746981    0.00000000
                                      S - F
                                                     0        0.0000010        0.14449603    0.00000000
                                                     2        0.1200000       -0.56378993    0.00000000
                                                     2        0.1400000        0.63941249    0.00000000
                                                     2        0.2600000       -0.58461015    0.00000000
                                                     2        0.5000000        1.00157293    0.00000000
                                                     2        1.8000000       -0.14135838    0.00000000
                                      P - F
                                                     0        0.0000010       -0.09353646    0.00000000
                                                     2        0.1200000        0.31768975    0.00000000
                                                     2        0.2000000       -0.71747951    0.00000000
                                                     2        0.4000000        0.65752308    0.00000000
                                                     2        1.7000000        2.94052587    0.00000000
                                      D - F
                                                     0        0.0000010       -0.04491202    0.00000000
                                                     2        0.1200000       -0.02862031    0.00000000
                                                     2        0.1800000       -0.21515263    0.00000000
                                                     2        0.3000000        0.80560647    0.00000000
                                                     2        0.4000000        0.47351754    0.00000000
                                                     2        0.7000000       -4.57051794    0.00000000
                                                     2        1.6000000       18.53737826    0.00000000
    9          1            1
                                      F and up 
                                                     0        0.0000010        0.00072061    0.00000000
                                                     2        0.1200000        0.03832357    0.00000000
                                                     2        0.1400000       -0.08683256    0.00000000
                                                     2        0.1800000        0.09312970    0.00000000
                                                     2        0.2800000       -0.02532572    0.00000000
                                                     2        0.4000000       -0.09430787    0.00000000
                                                     2        0.7000000        0.42710831    0.00000000
                                                     2        1.2000000       -2.11746981    0.00000000
                                      S - F
                                                     0        0.0000010        0.14449603    0.00000000
                                                     2        0.1200000       -0.56378993    0.00000000
                                                     2        0.1400000        0.63941249    0.00000000
                                                     2        0.2600000       -0.58461015    0.00000000
                                                     2        0.5000000        1.00157293    0.00000000
                                                     2        1.8000000       -0.14135838    0.00000000
                                      P - F
                                                     0        0.0000010       -0.09353646    0.00000000
                                                     2        0.1200000        0.31768975    0.00000000
                                                     2        0.2000000       -0.71747951    0.00000000
                                                     2        0.4000000        0.65752308    0.00000000
                                                     2        1.7000000        2.94052587    0.00000000
                                      D - F
                                                     0        0.0000010       -0.04491202    0.00000000
                                                     2        0.1200000       -0.02862031    0.00000000
                                                     2        0.1800000       -0.21515263    0.00000000
                                                     2        0.3000000        0.80560647    0.00000000
                                                     2        0.4000000        0.47351754    0.00000000
                                                     2        0.7000000       -4.57051794    0.00000000
                                                     2        1.6000000       18.53737826    0.00000000
   10          1            1
                                      F and up 
                                                     0        0.0000010        0.00072061    0.00000000
                                                     2        0.1200000        0.03832357    0.00000000
                                                     2        0.1400000       -0.08683256    0.00000000
                                                     2        0.1800000        0.09312970    0.00000000
                                                     2        0.2800000       -0.02532572    0.00000000
                                                     2        0.4000000       -0.09430787    0.00000000
                                                     2        0.7000000        0.42710831    0.00000000
                                                     2        1.2000000       -2.11746981    0.00000000
                                      S - F
                                                     0        0.0000010        0.14449603    0.00000000
                                                     2        0.1200000       -0.56378993    0.00000000
                                                     2        0.1400000        0.63941249    0.00000000
                                                     2        0.2600000       -0.58461015    0.00000000
                                                     2        0.5000000        1.00157293    0.00000000
                                                     2        1.8000000       -0.14135838    0.00000000
                                      P - F
                                                     0        0.0000010       -0.09353646    0.00000000
                                                     2        0.1200000        0.31768975    0.00000000
                                                     2        0.2000000       -0.71747951    0.00000000
                                                     2        0.4000000        0.65752308    0.00000000
                                                     2        1.7000000        2.94052587    0.00000000
                                      D - F
                                                     0        0.0000010       -0.04491202    0.00000000
                                                     2        0.1200000       -0.02862031    0.00000000
                                                     2        0.1800000       -0.21515263    0.00000000
                                                     2        0.3000000        0.80560647    0.00000000
                                                     2        0.4000000        0.47351754    0.00000000
                                                     2        0.7000000       -4.57051794    0.00000000
                                                     2        1.6000000       18.53737826    0.00000000
   11          1            1
                                      F and up 
                                                     0        0.0000010        0.00072061    0.00000000
                                                     2        0.1200000        0.03832357    0.00000000
                                                     2        0.1400000       -0.08683256    0.00000000
                                                     2        0.1800000        0.09312970    0.00000000
                                                     2        0.2800000       -0.02532572    0.00000000
                                                     2        0.4000000       -0.09430787    0.00000000
                                                     2        0.7000000        0.42710831    0.00000000
                                                     2        1.2000000       -2.11746981    0.00000000
                                      S - F
                                                     0        0.0000010        0.14449603    0.00000000
                                                     2        0.1200000       -0.56378993    0.00000000
                                                     2        0.1400000        0.63941249    0.00000000
                                                     2        0.2600000       -0.58461015    0.00000000
                                                     2        0.5000000        1.00157293    0.00000000
                                                     2        1.8000000       -0.14135838    0.00000000
                                      P - F
                                                     0        0.0000010       -0.09353646    0.00000000
                                                     2        0.1200000        0.31768975    0.00000000
                                                     2        0.2000000       -0.71747951    0.00000000
                                                     2        0.4000000        0.65752308    0.00000000
                                                     2        1.7000000        2.94052587    0.00000000
                                      D - F
                                                     0        0.0000010       -0.04491202    0.00000000
                                                     2        0.1200000       -0.02862031    0.00000000
                                                     2        0.1800000       -0.21515263    0.00000000
                                                     2        0.3000000        0.80560647    0.00000000
                                                     2        0.4000000        0.47351754    0.00000000
                                                     2        0.7000000       -4.57051794    0.00000000
                                                     2        1.6000000       18.53737826    0.00000000
   12          1            1
                                      F and up 
                                                     0        0.0000010        0.00072061    0.00000000
                                                     2        0.1200000        0.03832357    0.00000000
                                                     2        0.1400000       -0.08683256    0.00000000
                                                     2        0.1800000        0.09312970    0.00000000
                                                     2        0.2800000       -0.02532572    0.00000000
                                                     2        0.4000000       -0.09430787    0.00000000
                                                     2        0.7000000        0.42710831    0.00000000
                                                     2        1.2000000       -2.11746981    0.00000000
                                      S - F
                                                     0        0.0000010        0.14449603    0.00000000
                                                     2        0.1200000       -0.56378993    0.00000000
                                                     2        0.1400000        0.63941249    0.00000000
                                                     2        0.2600000       -0.58461015    0.00000000
                                                     2        0.5000000        1.00157293    0.00000000
                                                     2        1.8000000       -0.14135838    0.00000000
                                      P - F
                                                     0        0.0000010       -0.09353646    0.00000000
                                                     2        0.1200000        0.31768975    0.00000000
                                                     2        0.2000000       -0.71747951    0.00000000
                                                     2        0.4000000        0.65752308    0.00000000
                                                     2        1.7000000        2.94052587    0.00000000
                                      D - F
                                                     0        0.0000010       -0.04491202    0.00000000
                                                     2        0.1200000       -0.02862031    0.00000000
                                                     2        0.1800000       -0.21515263    0.00000000
                                                     2        0.3000000        0.80560647    0.00000000
                                                     2        0.4000000        0.47351754    0.00000000
                                                     2        0.7000000       -4.57051794    0.00000000
                                                     2        1.6000000       18.53737826    0.00000000
   13          1            1
                                      F and up 
                                                     0        0.0000010        0.00072061    0.00000000
                                                     2        0.1200000        0.03832357    0.00000000
                                                     2        0.1400000       -0.08683256    0.00000000
                                                     2        0.1800000        0.09312970    0.00000000
                                                     2        0.2800000       -0.02532572    0.00000000
                                                     2        0.4000000       -0.09430787    0.00000000
                                                     2        0.7000000        0.42710831    0.00000000
                                                     2        1.2000000       -2.11746981    0.00000000
                                      S - F
                                                     0        0.0000010        0.14449603    0.00000000
                                                     2        0.1200000       -0.56378993    0.00000000
                                                     2        0.1400000        0.63941249    0.00000000
                                                     2        0.2600000       -0.58461015    0.00000000
                                                     2        0.5000000        1.00157293    0.00000000
                                                     2        1.8000000       -0.14135838    0.00000000
                                      P - F
                                                     0        0.0000010       -0.09353646    0.00000000
                                                     2        0.1200000        0.31768975    0.00000000
                                                     2        0.2000000       -0.71747951    0.00000000
                                                     2        0.4000000        0.65752308    0.00000000
                                                     2        1.7000000        2.94052587    0.00000000
                                      D - F
                                                     0        0.0000010       -0.04491202    0.00000000
                                                     2        0.1200000       -0.02862031    0.00000000
                                                     2        0.1800000       -0.21515263    0.00000000
                                                     2        0.3000000        0.80560647    0.00000000
                                                     2        0.4000000        0.47351754    0.00000000
                                                     2        0.7000000       -4.57051794    0.00000000
                                                     2        1.6000000       18.53737826    0.00000000
   14          1            1
                                      F and up 
                                                     0        0.0000010        0.00072061    0.00000000
                                                     2        0.1200000        0.03832357    0.00000000
                                                     2        0.1400000       -0.08683256    0.00000000
                                                     2        0.1800000        0.09312970    0.00000000
                                                     2        0.2800000       -0.02532572    0.00000000
                                                     2        0.4000000       -0.09430787    0.00000000
                                                     2        0.7000000        0.42710831    0.00000000
                                                     2        1.2000000       -2.11746981    0.00000000
                                      S - F
                                                     0        0.0000010        0.14449603    0.00000000
                                                     2        0.1200000       -0.56378993    0.00000000
                                                     2        0.1400000        0.63941249    0.00000000
                                                     2        0.2600000       -0.58461015    0.00000000
                                                     2        0.5000000        1.00157293    0.00000000
                                                     2        1.8000000       -0.14135838    0.00000000
                                      P - F
                                                     0        0.0000010       -0.09353646    0.00000000
                                                     2        0.1200000        0.31768975    0.00000000
                                                     2        0.2000000       -0.71747951    0.00000000
                                                     2        0.4000000        0.65752308    0.00000000
                                                     2        1.7000000        2.94052587    0.00000000
                                      D - F
                                                     0        0.0000010       -0.04491202    0.00000000
                                                     2        0.1200000       -0.02862031    0.00000000
                                                     2        0.1800000       -0.21515263    0.00000000
                                                     2        0.3000000        0.80560647    0.00000000
                                                     2        0.4000000        0.47351754    0.00000000
                                                     2        0.7000000       -4.57051794    0.00000000
                                                     2        1.6000000       18.53737826    0.00000000
   15          1            1
                                      F and up 
                                                     0        0.0000010        0.00072061    0.00000000
                                                     2        0.1200000        0.03832357    0.00000000
                                                     2        0.1400000       -0.08683256    0.00000000
                                                     2        0.1800000        0.09312970    0.00000000
                                                     2        0.2800000       -0.02532572    0.00000000
                                                     2        0.4000000       -0.09430787    0.00000000
                                                     2        0.7000000        0.42710831    0.00000000
                                                     2        1.2000000       -2.11746981    0.00000000
                                      S - F
                                                     0        0.0000010        0.14449603    0.00000000
                                                     2        0.1200000       -0.56378993    0.00000000
                                                     2        0.1400000        0.63941249    0.00000000
                                                     2        0.2600000       -0.58461015    0.00000000
                                                     2        0.5000000        1.00157293    0.00000000
                                                     2        1.8000000       -0.14135838    0.00000000
                                      P - F
                                                     0        0.0000010       -0.09353646    0.00000000
                                                     2        0.1200000        0.31768975    0.00000000
                                                     2        0.2000000       -0.71747951    0.00000000
                                                     2        0.4000000        0.65752308    0.00000000
                                                     2        1.7000000        2.94052587    0.00000000
                                      D - F
                                                     0        0.0000010       -0.04491202    0.00000000
                                                     2        0.1200000       -0.02862031    0.00000000
                                                     2        0.1800000       -0.21515263    0.00000000
                                                     2        0.3000000        0.80560647    0.00000000
                                                     2        0.4000000        0.47351754    0.00000000
                                                     2        0.7000000       -4.57051794    0.00000000
                                                     2        1.6000000       18.53737826    0.00000000
   16          1            1
                                      F and up 
                                                     0        0.0000010        0.00072061    0.00000000
                                                     2        0.1200000        0.03832357    0.00000000
                                                     2        0.1400000       -0.08683256    0.00000000
                                                     2        0.1800000        0.09312970    0.00000000
                                                     2        0.2800000       -0.02532572    0.00000000
                                                     2        0.4000000       -0.09430787    0.00000000
                                                     2        0.7000000        0.42710831    0.00000000
                                                     2        1.2000000       -2.11746981    0.00000000
                                      S - F
                                                     0        0.0000010        0.14449603    0.00000000
                                                     2        0.1200000       -0.56378993    0.00000000
                                                     2        0.1400000        0.63941249    0.00000000
                                                     2        0.2600000       -0.58461015    0.00000000
                                                     2        0.5000000        1.00157293    0.00000000
                                                     2        1.8000000       -0.14135838    0.00000000
                                      P - F
                                                     0        0.0000010       -0.09353646    0.00000000
                                                     2        0.1200000        0.31768975    0.00000000
                                                     2        0.2000000       -0.71747951    0.00000000
                                                     2        0.4000000        0.65752308    0.00000000
                                                     2        1.7000000        2.94052587    0.00000000
                                      D - F
                                                     0        0.0000010       -0.04491202    0.00000000
                                                     2        0.1200000       -0.02862031    0.00000000
                                                     2        0.1800000       -0.21515263    0.00000000
                                                     2        0.3000000        0.80560647    0.00000000
                                                     2        0.4000000        0.47351754    0.00000000
                                                     2        0.7000000       -4.57051794    0.00000000
                                                     2        1.6000000       18.53737826    0.00000000
 ======================================================================================================
   242 basis functions,   400 primitive gaussians,   256 cartesian basis functions
    27 alpha electrons       27 beta electrons
       nuclear repulsion energy       295.5272280374 Hartrees.
 NAtoms=   16 NActive=   16 NUniq=   16 SFac= 1.00D+00 NAtFMM=   60 NAOKFM=F Big=F
   1 Symmetry operations used in ECPInt.
 ECPInt:  NShTT=    5886 NPrTT=   25542 LenC2=    5869 LenP2D=   20176.
 LDataN:  DoStor=T MaxTD1= 6 Len=  172
 Initial guess from the checkpoint file:  "Grambow2020_wb97xd3_007621_forward_mol1.chk"
 B after Tr=    -0.749928   -0.224048   -0.035983
         Rot=   -0.302362    0.914966   -0.253149   -0.085617 Ang= 215.20 deg.
 >>>>>>>>>> Convergence criterion not met.
 SCF Done:  E(RHF) =  -325.226038981     A.U. after    2 cycles
            NFock=  1  Conv=0.45D+00     -V/T= 2.0200

 **********************************************************************

            Population analysis using the SCF Density.

 **********************************************************************

 Orbital symmetries:
       Occupied  (A) (A) (A) (A) (A) (A) (A) (A) (A) (A) (A) (A)
                 (A) (A) (A) (A) (A) (A) (A) (A) (A) (A) (A) (A)
                 (A) (A) (A)
       Virtual   (A) (A) (A) (A) (A) (A) (A) (A) (A) (A) (A) (A)
                 (A) (A) (A) (A) (A) (A) (A) (A) (A) (A) (A) (A)
                 (A) (A) (A) (A) (A) (A) (A) (A) (A) (A) (A) (A)
                 (A) (A) (A) (A) (A) (A) (A) (A) (A) (A) (A) (A)
                 (A) (A) (A) (A) (A) (A) (A) (A) (A) (A) (A) (A)
                 (A) (A) (A) (A) (A) (A) (A) (A) (A) (A) (A) (A)
                 (A) (A) (A) (A) (A) (A) (A) (A) (A) (A) (A) (A)
                 (A) (A) (A) (A) (A) (A) (A) (A) (A) (A) (A) (A)
                 (A) (A) (A) (A) (A) (A) (A) (A) (A) (A) (A) (A)
                 (A) (A) (A) (A) (A) (A) (A) (A) (A) (A) (A) (A)
                 (A) (A) (A) (A) (A) (A) (A) (A) (A) (A) (A) (A)
                 (A) (A) (A) (A) (A) (A) (A) (A) (A) (A) (A) (A)
                 (A) (A) (A) (A) (A) (A) (A) (A) (A) (A) (A) (A)
                 (A) (A) (A) (A) (A) (A) (A) (A) (A) (A) (A) (A)
                 (A) (A) (A) (A) (A) (A) (A) (A) (A) (A) (A) (A)
                 (A) (A) (A) (A) (A) (A) (A) (A) (A) (A) (A) (A)
                 (A) (A) (A) (A) (A) (A) (A) (A) (A) (A) (A) (A)
                 (A) (A) (A) (A) (A) (A) (A) (A) (A) (A) (A)
 The electronic state is 1-A.
 Alpha  occ. eigenvalues --  -21.06037 -15.76847 -11.48476 -11.45882 -11.43787
 Alpha  occ. eigenvalues --  -11.40014 -11.36661  -1.71181  -1.45734  -1.14673
 Alpha  occ. eigenvalues --   -1.02877  -0.95278  -0.85036  -0.76475  -0.72186
 Alpha  occ. eigenvalues --   -0.64717  -0.60700  -0.59151  -0.56971  -0.53002
 Alpha  occ. eigenvalues --   -0.50929  -0.48360  -0.46849  -0.42473  -0.37456
 Alpha  occ. eigenvalues --   -0.29157  -0.27720
 Alpha virt. eigenvalues --    0.03709   0.04821   0.05093   0.05640   0.05734
 Alpha virt. eigenvalues --    0.05958   0.06979   0.07505   0.08696   0.10392
 Alpha virt. eigenvalues --    0.11828   0.12114   0.12704   0.13856   0.14008
 Alpha virt. eigenvalues --    0.14716   0.15330   0.16075   0.16276   0.16387
 Alpha virt. eigenvalues --    0.17097   0.17568   0.17980   0.18657   0.19238
 Alpha virt. eigenvalues --    0.19784   0.20555   0.21922   0.23246   0.25004
 Alpha virt. eigenvalues --    0.25284   0.26427   0.28562   0.29391   0.29688
 Alpha virt. eigenvalues --    0.31318   0.32270   0.32489   0.34082   0.34446
 Alpha virt. eigenvalues --    0.34842   0.35914   0.36196   0.37462   0.37541
 Alpha virt. eigenvalues --    0.39484   0.40809   0.41021   0.42963   0.43597
 Alpha virt. eigenvalues --    0.44026   0.45009   0.45424   0.46308   0.46821
 Alpha virt. eigenvalues --    0.48544   0.49024   0.49460   0.50138   0.50440
 Alpha virt. eigenvalues --    0.51372   0.52217   0.53623   0.55120   0.55508
 Alpha virt. eigenvalues --    0.56499   0.57899   0.58749   0.60005   0.60519
 Alpha virt. eigenvalues --    0.61910   0.62969   0.63520   0.64620   0.65064
 Alpha virt. eigenvalues --    0.67180   0.67259   0.68166   0.69099   0.69885
 Alpha virt. eigenvalues --    0.71603   0.72705   0.74438   0.75206   0.75716
 Alpha virt. eigenvalues --    0.76501   0.76665   0.78965   0.79323   0.79758
 Alpha virt. eigenvalues --    0.81362   0.82413   0.84147   0.85291   0.87069
 Alpha virt. eigenvalues --    0.87468   0.88624   0.89835   0.90538   0.92143
 Alpha virt. eigenvalues --    0.93437   0.94442   0.95681   0.97524   0.97761
 Alpha virt. eigenvalues --    1.01282   1.05674   1.07149   1.08339   1.09964
 Alpha virt. eigenvalues --    1.14803   1.15821   1.17141   1.22284   1.25943
 Alpha virt. eigenvalues --    1.26620   1.28834   1.32390   1.34204   1.35825
 Alpha virt. eigenvalues --    1.38014   1.41354   1.41828   1.47145   1.49644
 Alpha virt. eigenvalues --    1.51070   1.55544   1.59036   1.61303   1.66643
 Alpha virt. eigenvalues --    1.70377   1.71740   1.75568   1.76684   1.80949
 Alpha virt. eigenvalues --    1.81118   1.84296   1.86581   1.88854   1.90835
 Alpha virt. eigenvalues --    1.92042   1.93950   1.97263   1.98772   2.00926
 Alpha virt. eigenvalues --    2.01571   2.04041   2.05334   2.07860   2.10390
 Alpha virt. eigenvalues --    2.12155   2.13974   2.15262   2.17508   2.18074
 Alpha virt. eigenvalues --    2.23523   2.25516   2.25962   2.30412   2.32486
 Alpha virt. eigenvalues --    2.36148   2.37191   2.38132   2.43091   2.45178
 Alpha virt. eigenvalues --    2.45749   2.49402   2.50751   2.53620   2.56013
 Alpha virt. eigenvalues --    2.61124   2.62082   2.63580   2.64842   2.68626
 Alpha virt. eigenvalues --    2.71479   2.74094   2.77650   2.80601   2.81678
 Alpha virt. eigenvalues --    2.83150   2.85146   2.87290   2.89790   2.95131
 Alpha virt. eigenvalues --    2.97507   3.01631   3.05983   3.07474   3.12338
 Alpha virt. eigenvalues --    3.14888   3.19793   3.22512   3.24502   3.29919
 Alpha virt. eigenvalues --    3.35343   3.39006   3.46828   3.48414   3.51798
 Alpha virt. eigenvalues --    3.58261   3.67257   3.72044   3.77150   3.82916
 Alpha virt. eigenvalues --    3.84209   3.86315   3.92819   4.01908   4.39244
 Alpha virt. eigenvalues --    6.04322   6.07079   6.12467   6.18511   6.47032
          Condensed to atoms (all electrons):
 Mulliken charges:
               1
     1  C   -3.312756
     2  C   -1.522874
     3  N   -1.895852
     4  C   -0.025236
     5  C   -3.331834
     6  C    1.463035
     7  O   -2.791738
     8  H    1.327989
     9  H    1.148598
    10  H    1.052716
    11  H    1.148999
    12  H    0.564822
    13  H    1.725857
    14  H    1.607656
    15  H    1.422983
    16  H    1.417635
 Sum of Mulliken charges =  -0.00000
 Mulliken charges with hydrogens summed into heavy atoms:
               1
     1  C    0.216547
     2  C   -0.373875
     3  N   -1.331030
     4  C    1.700622
     5  C   -0.301196
     6  C    2.880670
     7  O   -2.791738
 Electronic spatial extent (au):  <R**2>=            945.5647
 Charge=              0.0000 electrons
 Dipole moment (field-independent basis, Debye):
    X=             -1.5846    Y=             -0.7777    Z=              1.6655  Tot=              2.4268

 Test job not archived.
 1\1\GINC-SE116\SP\RHF\Aug-CC-pVDZ\C5H9N1O1\OHZDE\09-Apr-2025\0\\#t hf 
 aug-cc-pvdz iop(5/13=1,5/36=2,99/5=2) pseudo=read geom=check guess=(re
 ad,tcheck) scf=(maxcycle=1)\\title\\0,1\C,0,-1.76066722,0.61884611,1.1
 9118949\C,0,-0.98768049,-0.75517408,0.03723366\N,0,-0.88790705,0.97483
 913,-0.31946769\C,0,0.06623669,-0.04403418,-0.69351321\C,0,1.43623038,
 0.09927867,-0.08433304\C,0,2.36402824,-1.02509169,-0.45214794\O,0,2.12
 741389,-1.86534566,-1.27637098\H,0,-1.0216375,0.68618336,1.97864507\H,
 0,-2.27942798,1.57987132,1.09503642\H,0,-2.51327809,-0.12523958,1.4499
 2217\H,0,-1.76496342,-1.09435054,-0.65794756\H,0,-1.5607175,1.1254406,
 -1.06293609\H,0,0.07858273,-0.19942708,-1.76881661\H,0,1.36597385,0.14
 401788,1.00644897\H,0,1.91698288,1.03360391,-0.40060054\H,0,3.33348159
 ,-1.02942118,0.08885787\\Version=ES64L-G16RevC.01\State=1-A\HF=-325.22
 6039\RMSD=4.546e-01\Dipole=-0.3791403,0.8582772,-0.1766933\Quadrupole=
 2.2770764,-2.9898808,0.7128044,-0.1109969,2.2603681,-0.8170874\PG=C01 
 [X(C5H9N1O1)]\\@


 LEARN FROM YESTERDAY,
 LIVE FOR TODAY,
 LOOK TO TOMORROW,
 REST THIS AFTERNOON.

           -- SNOOPY
 Job cpu time:       0 days  0 hours  1 minutes  7.9 seconds.
 Elapsed time:       0 days  0 hours  0 minutes  5.2 seconds.
 File lengths (MBytes):  RWF=     14 Int=      0 D2E=      0 Chk=      8 Scr=      1
 Normal termination of Gaussian 16 at Wed Apr  9 18:45:50 2025.
