 Entering Gaussian System, Link 0=g16
 Input=Grambow2020_b97d3_006550_reverse_mol2.gjf
 Output=Grambow2020_b97d3_006550_reverse_mol2.log
 Initial command:
 /arc/software/Gaussian/g16.c01/l1.exe "/tmp/slurm/4860967/Gau-3067680.inp" -scrdir="/tmp/slurm/4860967/"
 Entering Link 1 = /arc/software/Gaussian/g16.c01/l1.exe PID=   3067681.
  
 Copyright (c) 1988-2019, Gaussian, Inc.  All Rights Reserved.
  
 This is part of the Gaussian(R) 16 program.  It is based on
 the Gaussian(R) 09 system (copyright 2009, Gaussian, Inc.),
 the Gaussian(R) 03 system (copyright 2003, Gaussian, Inc.),
 the Gaussian(R) 98 system (copyright 1998, Gaussian, Inc.),
 the Gaussian(R) 94 system (copyright 1995, Gaussian, Inc.),
 the Gaussian 92(TM) system (copyright 1992, Gaussian, Inc.),
 the Gaussian 90(TM) system (copyright 1990, Gaussian, Inc.),
 the Gaussian 88(TM) system (copyright 1988, Gaussian, Inc.),
 the Gaussian 86(TM) system (copyright 1986, Carnegie Mellon
 University), and the Gaussian 82(TM) system (copyright 1983,
 Carnegie Mellon University). Gaussian is a federally registered
 trademark of Gaussian, Inc.
  
 This software contains proprietary and confidential information,
 including trade secrets, belonging to Gaussian, Inc.
  
 This software is provided under written license and may be
 used, copied, transmitted, or stored only in accord with that
 written license.
  
 The following legend is applicable only to US Government
 contracts under FAR:
  
                    RESTRICTED RIGHTS LEGEND
  
 Use, reproduction and disclosure by the US Government is
 subject to restrictions as set forth in subparagraphs (a)
 and (c) of the Commercial Computer Software - Restricted
 Rights clause in FAR 52.227-19.
  
 Gaussian, Inc.
 340 Quinnipiac St., Bldg. 40, Wallingford CT 06492
  
  
 ---------------------------------------------------------------
 Warning -- This program may not be used in any manner that
 competes with the business of Gaussian, Inc. or will provide
 assistance to any competitor of Gaussian, Inc.  The licensee
 of this program is prohibited from giving any competitor of
 Gaussian, Inc. access to this program.  By using this program,
 the user acknowledges that Gaussian, Inc. is engaged in the
 business of creating and licensing software in the field of
 computational chemistry and represents and warrants to the
 licensee that it is not a competitor of Gaussian, Inc. and that
 it will not use this program in any manner prohibited above.
 ---------------------------------------------------------------
  

 Cite this work as:
 Gaussian 16, Revision C.01,
 M. J. Frisch, G. W. Trucks, H. B. Schlegel, G. E. Scuseria, 
 M. A. Robb, J. R. Cheeseman, G. Scalmani, V. Barone, 
 G. A. Petersson, H. Nakatsuji, X. Li, M. Caricato, A. V. Marenich, 
 J. Bloino, B. G. Janesko, R. Gomperts, B. Mennucci, H. P. Hratchian, 
 J. V. Ortiz, A. F. Izmaylov, J. L. Sonnenberg, D. Williams-Young, 
 F. Ding, F. Lipparini, F. Egidi, J. Goings, B. Peng, A. Petrone, 
 T. Henderson, D. Ranasinghe, V. G. Zakrzewski, J. Gao, N. Rega, 
 G. Zheng, W. Liang, M. Hada, M. Ehara, K. Toyota, R. Fukuda, 
 J. Hasegawa, M. Ishida, T. Nakajima, Y. Honda, O. Kitao, H. Nakai, 
 T. Vreven, K. Throssell, J. A. Montgomery, Jr., J. E. Peralta, 
 F. Ogliaro, M. J. Bearpark, J. J. Heyd, E. N. Brothers, K. N. Kudin, 
 V. N. Staroverov, T. A. Keith, R. Kobayashi, J. Normand, 
 K. Raghavachari, A. P. Rendell, J. C. Burant, S. S. Iyengar, 
 J. Tomasi, M. Cossi, J. M. Millam, M. Klene, C. Adamo, R. Cammi, 
 J. W. Ochterski, R. L. Martin, K. Morokuma, O. Farkas, 
 J. B. Foresman, and D. J. Fox, Gaussian, Inc., Wallingford CT, 2019.
 
 ******************************************
 Gaussian 16:  ES64L-G16RevC.01  3-Jul-2019
                 9-Apr-2025 
 ******************************************
 %nprocs=16
 Will use up to   16 processors via shared memory.
 %mem=30GB
 %chk=Grambow2020_b97d3_006550_reverse_mol2.chk
 ----------------------------------------------------------------------
 #t hf aug-cc-pvdz symm=none int=(grid=ultrafine) guess=(read,tcheck) s
 table=(opt,rrhf)
 ----------------------------------------------------------------------
 -----
 title
 -----
 Symbolic Z-matrix:
 Charge =  0 Multiplicity = 1
 O                    -2.19015  -2.0868    0.19958 
 C                    -1.16405  -1.23212   0.49211 
 C                     0.81899   2.32399  -0.3238 
 N                     1.0417    1.15998  -0.78888 
 C                     0.96528   0.03413   0.14892 
 C                    -0.10841  -0.92869  -0.28309 
 H                    -2.04265  -2.44675  -0.69711 
 H                    -1.30278  -0.8048    1.48586 
 H                     0.58086   2.53864   0.73561 
 H                     0.85749   3.1836   -1.00378 
 H                     0.7848    0.35517   1.19433 
 H                     1.94954  -0.4636    0.12191 
 H                    -0.00949  -1.36151  -1.28219 
 
                    Distance matrix (angstroms):
                    1          2          3          4          5
     1  O    0.000000
     2  C    1.367085   0.000000
     3  C    5.365062   4.152600   0.000000
     4  N    4.686518   3.496914   1.273111   0.000000
     5  C    3.802315   2.501041   2.342721   1.467259   0.000000
     6  C    2.430604   1.344393   3.382546   2.437435   1.505470
     7  H    0.977434   1.913508   5.575689   4.746593   3.989756
     8  H    2.021253   1.090588   4.191194   3.812002   2.763200
     9  H    5.418537   4.162052   1.106860   2.106452   2.600880
    10  H    6.205908   5.081626   1.096713   2.043319   3.355520
    11  H    3.975301   2.609713   2.486395   2.155649   1.108384
    12  H    4.447227   3.228333   3.040966   2.071165   1.103285
    13  H    2.734404   2.120827   3.897152   2.776016   2.223972
                    6          7          8          9         10
     6  C    0.000000
     7  H    2.493438   0.000000
     8  H    2.138000   2.829979   0.000000
     9  H    3.679023   5.812889   3.910191   0.000000
    10  H    4.285237   6.340800   5.174207   1.875626   0.000000
    11  H    2.151476   4.407124   2.405926   2.240442   3.582875
    12  H    2.148366   4.532247   3.543211   3.356095   3.970116
    13  H    1.093310   2.377774   3.105580   4.430714   4.635428
                   11         12         13
    11  H    0.000000
    12  H    1.782438   0.000000
    13  H    3.116250   2.572069   0.000000
 Symmetry turned off by external request.
 Rotational constants (GHZ):          11.6743589           1.5049704           1.4509466
   201 basis functions,   335 primitive gaussians,   213 cartesian basis functions
    23 alpha electrons       23 beta electrons
       nuclear repulsion energy       214.1041162827 Hartrees.
 NAtoms=   13 NActive=   13 NUniq=   13 SFac= 1.00D+00 NAtFMM=   60 NAOKFM=F Big=F
 ExpMin= 2.97D-02 ExpMax= 1.17D+04 ExpMxC= 4.01D+02 IAcc=3 IRadAn=         5 AccDes= 0.00D+00
 Harris functional with IExCor=  205 and IRadAn=       5 diagonalized for initial guess.
 HarFok:  IExCor=  205 AccDes= 0.00D+00 IRadAn=         5 IDoV= 1 UseB2=F ITyADJ=14
 ICtDFT=  3500011 ScaDFX=  1.000000  1.000000  1.000000  1.000000
 FoFCou: FMM=F IPFlag=           0 FMFlag=      100000 FMFlg1=           0
         NFxFlg=           0 DoJE=T BraDBF=F KetDBF=T FulRan=T
         wScrn=  0.000000 ICntrl=       500 IOpCl=  0 I1Cent=   200000004 NGrid=           0
         NMat0=    1 NMatS0=      1 NMatT0=    0 NMatD0=    1 NMtDS0=    0 NMtDT0=    0
 Symmetry not used in FoFCou.
 SCF Done:  E(RHF) =  -284.839844163     A.U. after   14 cycles
            NFock= 14  Conv=0.57D-08     -V/T= 2.0021

 **********************************************************************

            Population analysis using the SCF Density.

 **********************************************************************

 Alpha  occ. eigenvalues --  -20.60268 -15.57837 -11.30657 -11.28663 -11.27174
 Alpha  occ. eigenvalues --  -11.23315  -1.40323  -1.23164  -1.05619  -0.93708
 Alpha  occ. eigenvalues --   -0.82381  -0.79061  -0.69499  -0.66173  -0.63947
 Alpha  occ. eigenvalues --   -0.62142  -0.58082  -0.56694  -0.54401  -0.51169
 Alpha  occ. eigenvalues --   -0.42201  -0.41335  -0.34114
 Alpha virt. eigenvalues --    0.03566   0.04004   0.04742   0.04986   0.06422
 Alpha virt. eigenvalues --    0.07149   0.07811   0.09592   0.10809   0.12558
 Alpha virt. eigenvalues --    0.12719   0.13370   0.14219   0.15138   0.15718
 Alpha virt. eigenvalues --    0.16340   0.16860   0.17162   0.18032   0.18856
 Alpha virt. eigenvalues --    0.19778   0.20892   0.21515   0.23190   0.23482
 Alpha virt. eigenvalues --    0.25696   0.26108   0.27927   0.29382   0.30072
 Alpha virt. eigenvalues --    0.30622   0.31397   0.32300   0.33573   0.34527
 Alpha virt. eigenvalues --    0.35041   0.36386   0.37376   0.39782   0.41729
 Alpha virt. eigenvalues --    0.42436   0.42777   0.43529   0.44580   0.46221
 Alpha virt. eigenvalues --    0.46545   0.47031   0.48038   0.49325   0.49664
 Alpha virt. eigenvalues --    0.51100   0.52708   0.53420   0.54913   0.56196
 Alpha virt. eigenvalues --    0.58109   0.58718   0.59593   0.60942   0.62323
 Alpha virt. eigenvalues --    0.63437   0.64234   0.65681   0.66549   0.67058
 Alpha virt. eigenvalues --    0.67334   0.68400   0.68723   0.70444   0.71811
 Alpha virt. eigenvalues --    0.73419   0.73832   0.75550   0.77521   0.78810
 Alpha virt. eigenvalues --    0.79484   0.80843   0.81824   0.83275   0.85982
 Alpha virt. eigenvalues --    0.86592   0.87893   0.89952   0.90296   0.90473
 Alpha virt. eigenvalues --    0.93176   0.93976   0.95870   0.97290   1.00287
 Alpha virt. eigenvalues --    1.02974   1.05626   1.06423   1.10064   1.13967
 Alpha virt. eigenvalues --    1.16051   1.18910   1.23171   1.24431   1.25901
 Alpha virt. eigenvalues --    1.27401   1.29601   1.31095   1.35987   1.39276
 Alpha virt. eigenvalues --    1.43661   1.45654   1.48818   1.51156   1.55428
 Alpha virt. eigenvalues --    1.60314   1.61685   1.63150   1.64225   1.65484
 Alpha virt. eigenvalues --    1.66995   1.69117   1.70214   1.72660   1.74838
 Alpha virt. eigenvalues --    1.76806   1.77489   1.81792   1.83233   1.87488
 Alpha virt. eigenvalues --    1.90670   1.93916   1.96253   1.97179   2.00451
 Alpha virt. eigenvalues --    2.02758   2.06844   2.07148   2.09526   2.09763
 Alpha virt. eigenvalues --    2.11024   2.13724   2.16673   2.19805   2.20603
 Alpha virt. eigenvalues --    2.24150   2.25690   2.27416   2.29646   2.33788
 Alpha virt. eigenvalues --    2.35337   2.38756   2.39493   2.44052   2.45048
 Alpha virt. eigenvalues --    2.49556   2.55494   2.61228   2.63432   2.67075
 Alpha virt. eigenvalues --    2.72797   2.74729   2.78565   2.81309   2.82914
 Alpha virt. eigenvalues --    2.89978   2.92212   2.95962   2.98946   2.99513
 Alpha virt. eigenvalues --    3.05356   3.07269   3.17400   3.30332   3.36427
 Alpha virt. eigenvalues --    3.40615   3.49575   3.73435   3.75165   3.77535
 Alpha virt. eigenvalues --    3.85914   4.02348   4.30577
          Condensed to atoms (all electrons):
 Mulliken charges:
               1
     1  O   -0.698153
     2  C    0.731044
     3  C    0.563965
     4  N   -0.614126
     5  C    0.337369
     6  C    0.740272
     7  H    0.165481
     8  H   -0.285824
     9  H   -0.137088
    10  H   -0.206377
    11  H   -0.085593
    12  H   -0.033421
    13  H   -0.477546
 Sum of Mulliken charges =  -0.00000
 Mulliken charges with hydrogens summed into heavy atoms:
               1
     1  O   -0.532672
     2  C    0.445219
     3  C    0.220500
     4  N   -0.614126
     5  C    0.218354
     6  C    0.262726
 Electronic spatial extent (au):  <R**2>=            818.7368
 Charge=             -0.0000 electrons
 Dipole moment (field-independent basis, Debye):
    X=              0.3022    Y=              0.6287    Z=              0.6256  Tot=              0.9370
 NROrb=    201 NOA=    23 NOB=    23 NVA=   178 NVB=   178

 **** Warning!!: The largest alpha MO coefficient is  0.43862290D+02

    12 initial guesses have been made.
 Iteration     1 Dimension    12 NMult     0 NNew     12
 New state      1 was old state      2
 Iteration     2 Dimension    24 NMult    12 NNew     12
 New state      1 was old state      3
 Iteration     3 Dimension    27 NMult    24 NNew      3
 Iteration     4 Dimension    30 NMult    27 NNew      3
 Iteration     5 Dimension    33 NMult    30 NNew      3
 Iteration     6 Dimension    36 NMult    33 NNew      3
 Iteration     7 Dimension    39 NMult    36 NNew      3
 ***********************************************************************
 Stability analysis using <AA,BB:AA,BB> singles matrix:
 ***********************************************************************
 Ground to excited state transition densities written to RWF  633

 Eigenvectors of the stability matrix:
 
 Excited state symmetry could not be determined.
 Eigenvector   1:      Singlet-?Sym  Eigenvalue= 0.2125988  <S**2>=0.000
      22 -> 27        -0.12764
      22 -> 29        -0.16147
      22 -> 31         0.39957
      22 -> 34        -0.17242
      22 -> 35         0.10754
      22 -> 36        -0.12232
      22 -> 37         0.14935
      22 -> 43        -0.17326
      22 -> 44        -0.22889
      22 -> 45         0.17206
 The wavefunction is stable under the perturbations considered.
 The wavefunction is already stable.

 **********************************************************************

            Population analysis using the SCF Density.

 **********************************************************************

 Alpha  occ. eigenvalues --  -20.60268 -15.57837 -11.30657 -11.28663 -11.27174
 Alpha  occ. eigenvalues --  -11.23315  -1.40323  -1.23164  -1.05619  -0.93708
 Alpha  occ. eigenvalues --   -0.82381  -0.79061  -0.69499  -0.66173  -0.63947
 Alpha  occ. eigenvalues --   -0.62142  -0.58082  -0.56694  -0.54401  -0.51169
 Alpha  occ. eigenvalues --   -0.42201  -0.41335  -0.34114
 Alpha virt. eigenvalues --    0.03566   0.04004   0.04742   0.04986   0.06422
 Alpha virt. eigenvalues --    0.07149   0.07811   0.09592   0.10809   0.12558
 Alpha virt. eigenvalues --    0.12719   0.13370   0.14219   0.15138   0.15718
 Alpha virt. eigenvalues --    0.16340   0.16860   0.17162   0.18032   0.18856
 Alpha virt. eigenvalues --    0.19778   0.20892   0.21515   0.23190   0.23482
 Alpha virt. eigenvalues --    0.25696   0.26108   0.27927   0.29382   0.30072
 Alpha virt. eigenvalues --    0.30622   0.31397   0.32300   0.33573   0.34527
 Alpha virt. eigenvalues --    0.35041   0.36386   0.37376   0.39782   0.41729
 Alpha virt. eigenvalues --    0.42436   0.42777   0.43529   0.44580   0.46221
 Alpha virt. eigenvalues --    0.46545   0.47031   0.48038   0.49325   0.49664
 Alpha virt. eigenvalues --    0.51100   0.52708   0.53420   0.54913   0.56196
 Alpha virt. eigenvalues --    0.58109   0.58718   0.59593   0.60942   0.62323
 Alpha virt. eigenvalues --    0.63437   0.64234   0.65681   0.66549   0.67058
 Alpha virt. eigenvalues --    0.67334   0.68400   0.68723   0.70444   0.71811
 Alpha virt. eigenvalues --    0.73419   0.73832   0.75550   0.77521   0.78810
 Alpha virt. eigenvalues --    0.79484   0.80843   0.81824   0.83275   0.85982
 Alpha virt. eigenvalues --    0.86592   0.87893   0.89952   0.90296   0.90473
 Alpha virt. eigenvalues --    0.93176   0.93976   0.95870   0.97290   1.00287
 Alpha virt. eigenvalues --    1.02974   1.05626   1.06423   1.10064   1.13967
 Alpha virt. eigenvalues --    1.16051   1.18910   1.23171   1.24431   1.25901
 Alpha virt. eigenvalues --    1.27401   1.29601   1.31095   1.35987   1.39276
 Alpha virt. eigenvalues --    1.43661   1.45654   1.48818   1.51156   1.55428
 Alpha virt. eigenvalues --    1.60314   1.61685   1.63150   1.64225   1.65484
 Alpha virt. eigenvalues --    1.66995   1.69117   1.70214   1.72660   1.74838
 Alpha virt. eigenvalues --    1.76806   1.77489   1.81792   1.83233   1.87488
 Alpha virt. eigenvalues --    1.90670   1.93916   1.96253   1.97179   2.00451
 Alpha virt. eigenvalues --    2.02758   2.06844   2.07148   2.09526   2.09763
 Alpha virt. eigenvalues --    2.11024   2.13724   2.16673   2.19805   2.20603
 Alpha virt. eigenvalues --    2.24150   2.25690   2.27416   2.29646   2.33788
 Alpha virt. eigenvalues --    2.35337   2.38756   2.39493   2.44052   2.45048
 Alpha virt. eigenvalues --    2.49556   2.55494   2.61228   2.63432   2.67075
 Alpha virt. eigenvalues --    2.72797   2.74729   2.78565   2.81309   2.82914
 Alpha virt. eigenvalues --    2.89978   2.92212   2.95962   2.98946   2.99513
 Alpha virt. eigenvalues --    3.05356   3.07269   3.17400   3.30332   3.36427
 Alpha virt. eigenvalues --    3.40615   3.49575   3.73435   3.75165   3.77535
 Alpha virt. eigenvalues --    3.85914   4.02348   4.30577
          Condensed to atoms (all electrons):
 Mulliken charges:
               1
     1  O   -0.698153
     2  C    0.731044
     3  C    0.563965
     4  N   -0.614126
     5  C    0.337369
     6  C    0.740272
     7  H    0.165481
     8  H   -0.285824
     9  H   -0.137088
    10  H   -0.206377
    11  H   -0.085593
    12  H   -0.033421
    13  H   -0.477546
 Sum of Mulliken charges =  -0.00000
 Mulliken charges with hydrogens summed into heavy atoms:
               1
     1  O   -0.532672
     2  C    0.445219
     3  C    0.220500
     4  N   -0.614126
     5  C    0.218354
     6  C    0.262726
 Electronic spatial extent (au):  <R**2>=            818.7368
 Charge=             -0.0000 electrons
 Dipole moment (field-independent basis, Debye):
    X=              0.3022    Y=              0.6287    Z=              0.6256  Tot=              0.9370
 Unable to Open any file for archive entry.
 1\1\GINC-SE332\Stability\RHF\Aug-CC-pVDZ\C4H7N1O1\OHZDE\09-Apr-2025\0\
 \#t hf aug-cc-pvdz symm=none int=(grid=ultrafine) guess=(read,tcheck) 
 stable=(opt,rrhf)\\title\\0,1\O,0,-2.19014664,-2.0867997,0.19957602\C,
 0,-1.16405191,-1.23212102,0.4921093\C,0,0.81898803,2.32399044,-0.32380
 274\N,0,1.04169969,1.15998032,-0.78887513\C,0,0.96527773,0.03412725,0.
 14892248\C,0,-0.10840579,-0.92868583,-0.28308886\H,0,-2.04264609,-2.44
 675391,-0.69711456\H,0,-1.302777,-0.8048027,1.48585853\H,0,0.58086167,
 2.53864273,0.73561158\H,0,0.85749442,3.18360018,-1.00377831\H,0,0.7847
 9577,0.3551666,1.19432871\H,0,1.94954147,-0.46360021,0.12191329\H,0,-0
 .00948535,-1.36151016,-1.2821913\\Version=ES64L-G16RevC.01\HF=-284.839
 8442\RMSD=5.714e-09\Dipole=0.118883,0.2473589,0.2461215\Quadrupole=-3.
 5329038,3.286629,0.2462748,-0.7361362,2.7473977,4.2622504\PG=Unknown\\
 @
 The archive entry for this job was punched.


 A MAN IS EXACTLY AS GREAT AS THE TIDE SURGING
 BENEATH HIM.      - BISMARCK
 Job cpu time:       0 days  0 hours  3 minutes 47.8 seconds.
 Elapsed time:       0 days  0 hours  0 minutes 16.9 seconds.
 File lengths (MBytes):  RWF=    189 Int=      0 D2E=      0 Chk=      6 Scr=      1
 Normal termination of Gaussian 16 at Wed Apr  9 03:06:47 2025.
 Initial command:
 /arc/software/Gaussian/g16.c01/l1.exe "/tmp/slurm/4860967/Gau-3067680.inp" -scrdir="/tmp/slurm/4860967/"
 Entering Link 1 = /arc/software/Gaussian/g16.c01/l1.exe PID=   3067896.
  
 Copyright (c) 1988-2019, Gaussian, Inc.  All Rights Reserved.
  
 This is part of the Gaussian(R) 16 program.  It is based on
 the Gaussian(R) 09 system (copyright 2009, Gaussian, Inc.),
 the Gaussian(R) 03 system (copyright 2003, Gaussian, Inc.),
 the Gaussian(R) 98 system (copyright 1998, Gaussian, Inc.),
 the Gaussian(R) 94 system (copyright 1995, Gaussian, Inc.),
 the Gaussian 92(TM) system (copyright 1992, Gaussian, Inc.),
 the Gaussian 90(TM) system (copyright 1990, Gaussian, Inc.),
 the Gaussian 88(TM) system (copyright 1988, Gaussian, Inc.),
 the Gaussian 86(TM) system (copyright 1986, Carnegie Mellon
 University), and the Gaussian 82(TM) system (copyright 1983,
 Carnegie Mellon University). Gaussian is a federally registered
 trademark of Gaussian, Inc.
  
 This software contains proprietary and confidential information,
 including trade secrets, belonging to Gaussian, Inc.
  
 This software is provided under written license and may be
 used, copied, transmitted, or stored only in accord with that
 written license.
  
 The following legend is applicable only to US Government
 contracts under FAR:
  
                    RESTRICTED RIGHTS LEGEND
  
 Use, reproduction and disclosure by the US Government is
 subject to restrictions as set forth in subparagraphs (a)
 and (c) of the Commercial Computer Software - Restricted
 Rights clause in FAR 52.227-19.
  
 Gaussian, Inc.
 340 Quinnipiac St., Bldg. 40, Wallingford CT 06492
  
  
 ---------------------------------------------------------------
 Warning -- This program may not be used in any manner that
 competes with the business of Gaussian, Inc. or will provide
 assistance to any competitor of Gaussian, Inc.  The licensee
 of this program is prohibited from giving any competitor of
 Gaussian, Inc. access to this program.  By using this program,
 the user acknowledges that Gaussian, Inc. is engaged in the
 business of creating and licensing software in the field of
 computational chemistry and represents and warrants to the
 licensee that it is not a competitor of Gaussian, Inc. and that
 it will not use this program in any manner prohibited above.
 ---------------------------------------------------------------
  

 Cite this work as:
 Gaussian 16, Revision C.01,
 M. J. Frisch, G. W. Trucks, H. B. Schlegel, G. E. Scuseria, 
 M. A. Robb, J. R. Cheeseman, G. Scalmani, V. Barone, 
 G. A. Petersson, H. Nakatsuji, X. Li, M. Caricato, A. V. Marenich, 
 J. Bloino, B. G. Janesko, R. Gomperts, B. Mennucci, H. P. Hratchian, 
 J. V. Ortiz, A. F. Izmaylov, J. L. Sonnenberg, D. Williams-Young, 
 F. Ding, F. Lipparini, F. Egidi, J. Goings, B. Peng, A. Petrone, 
 T. Henderson, D. Ranasinghe, V. G. Zakrzewski, J. Gao, N. Rega, 
 G. Zheng, W. Liang, M. Hada, M. Ehara, K. Toyota, R. Fukuda, 
 J. Hasegawa, M. Ishida, T. Nakajima, Y. Honda, O. Kitao, H. Nakai, 
 T. Vreven, K. Throssell, J. A. Montgomery, Jr., J. E. Peralta, 
 F. Ogliaro, M. J. Bearpark, J. J. Heyd, E. N. Brothers, K. N. Kudin, 
 V. N. Staroverov, T. A. Keith, R. Kobayashi, J. Normand, 
 K. Raghavachari, A. P. Rendell, J. C. Burant, S. S. Iyengar, 
 J. Tomasi, M. Cossi, J. M. Millam, M. Klene, C. Adamo, R. Cammi, 
 J. W. Ochterski, R. L. Martin, K. Morokuma, O. Farkas, 
 J. B. Foresman, and D. J. Fox, Gaussian, Inc., Wallingford CT, 2019.
 
 ******************************************
 Gaussian 16:  ES64L-G16RevC.01  3-Jul-2019
                 9-Apr-2025 
 ******************************************
 %nprocs=16
 Will use up to   16 processors via shared memory.
 %mem=30GB
 %chk=Grambow2020_b97d3_006550_reverse_mol2.chk
 ----------------------------------------------------------------------
 #t hf aug-cc-pvdz iop(5/13=1,5/36=2,99/5=2) pseudo=read geom=check gue
 ss=(read,tcheck) scf=(maxcycle=1)
 ----------------------------------------------------------------------
 -----
 title
 -----
 Structure from the checkpoint file:  "Grambow2020_b97d3_006550_reverse_mol2.chk"
 Charge =  0 Multiplicity = 1
 Z-Matrix found in chk file.
 O,0,-2.19014664,-2.0867997,0.19957602
 C,0,-1.16405191,-1.23212102,0.4921093
 C,0,0.81898803,2.32399044,-0.32380274
 N,0,1.04169969,1.15998032,-0.78887513
 C,0,0.96527773,0.03412725,0.14892248
 C,0,-0.10840579,-0.92868583,-0.28308886
 H,0,-2.04264609,-2.44675391,-0.69711456
 H,0,-1.302777,-0.8048027,1.48585853
 H,0,0.58086167,2.53864273,0.73561158
 H,0,0.85749442,3.18360018,-1.00377831
 H,0,0.78479577,0.3551666,1.19432871
 H,0,1.94954147,-0.46360021,0.12191329
 H,0,-0.00948535,-1.36151016,-1.2821913
 Recover connectivity data from disk.
                    Distance matrix (angstroms):
                    1          2          3          4          5
     1  O    0.000000
     2  C    1.367085   0.000000
     3  C    5.365062   4.152600   0.000000
     4  N    4.686518   3.496914   1.273111   0.000000
     5  C    3.802315   2.501041   2.342721   1.467259   0.000000
     6  C    2.430604   1.344393   3.382546   2.437435   1.505470
     7  H    0.977434   1.913508   5.575689   4.746593   3.989756
     8  H    2.021253   1.090588   4.191194   3.812002   2.763200
     9  H    5.418537   4.162052   1.106860   2.106452   2.600880
    10  H    6.205908   5.081626   1.096713   2.043319   3.355520
    11  H    3.975301   2.609713   2.486395   2.155649   1.108384
    12  H    4.447227   3.228333   3.040966   2.071165   1.103285
    13  H    2.734404   2.120827   3.897152   2.776016   2.223972
                    6          7          8          9         10
     6  C    0.000000
     7  H    2.493438   0.000000
     8  H    2.138000   2.829979   0.000000
     9  H    3.679023   5.812889   3.910191   0.000000
    10  H    4.285237   6.340800   5.174207   1.875626   0.000000
    11  H    2.151476   4.407124   2.405926   2.240442   3.582875
    12  H    2.148366   4.532247   3.543211   3.356095   3.970116
    13  H    1.093310   2.377774   3.105580   4.430714   4.635428
                   11         12         13
    11  H    0.000000
    12  H    1.782438   0.000000
    13  H    3.116250   2.572069   0.000000
 Framework group  C1[X(C4H7NO)]
 Deg. of freedom    33
                         Standard orientation:                         
 ---------------------------------------------------------------------
 Center     Atomic      Atomic             Coordinates (Angstroms)
 Number     Number       Type             X           Y           Z
 ---------------------------------------------------------------------
      1          8           0        2.805045   -0.420078   -0.183106
      2          6           0        1.550483   -0.229860    0.325630
      3          6           0       -2.550325   -0.730200   -0.095231
      4          7           0       -1.825043    0.254620   -0.448654
      5          6           0       -0.772772    0.683361    0.479654
      6          6           0        0.578101    0.553801   -0.172109
      7          1           0        2.886980    0.108176   -1.001404
      8          1           0        1.422392   -0.813953    1.237667
      9          1           0       -2.442594   -1.273486    0.863087
     10          1           0       -3.337262   -1.080464   -0.774070
     11          1           0       -0.785398    0.121564    1.435028
     12          1           0       -0.975917    1.741600    0.716507
     13          1           0        0.733811    1.112237   -1.099057
 ---------------------------------------------------------------------
 Rotational constants (GHZ):          11.6743589           1.5049704           1.4509466
 ======================================================================================================
                                       Pseudopotential Parameters
 ======================================================================================================
  Center     Atomic      Valence      Angular      Power
  Number     Number     Electrons     Momentum     of R      Exponent        Coefficient   SO-Coeffient
 ======================================================================================================
    1          8            8
                                      G and up 
                                                     0        0.0000010       -0.00165251    0.00000000
                                                     2        0.1200000       -0.10937202    0.00000000
                                                     2        0.1400000        0.35668905    0.00000000
                                                     2        0.1800000       -0.51696033    0.00000000
                                                     2        0.2400000        0.52446472    0.00000000
                                                     2        0.4000000       -0.07754493    0.00000000
                                                     2        0.8000000       -1.90560988    0.00000000
                                                     2        1.7000000        0.19857963    0.00000000
                                      S - G
                                                     0        0.0000010       -0.03845181    0.00000000
                                                     2        0.1400000        0.42024558    0.00000000
                                                     2        0.4000000       -4.10467779    0.00000000
                                                     2        1.3000000        9.99571838    0.00000000
                                      P - G
                                                     0        0.0000010        0.33206183    0.00000000
                                                     2        0.1200000       -0.18708141    0.00000000
                                                     2        0.2800000       -0.18179081    0.00000000
                                                     2        0.7000000        1.18820394    0.00000000
                                      D - G
                                                     0        0.0000010       -0.57891674    0.00000000
                                                     2        0.1200000        0.60487490    0.00000000
                                                     2        0.2400000       -0.24931464    0.00000000
                                                     2        0.3000000       -2.75054612    0.00000000
                                                     2        1.0000000       15.96776040    0.00000000
                                      F - G
                                                     0        0.0000010        0.37449041    0.00000000
                                                     2        0.1200000       -0.63373642    0.00000000
                                                     2        0.1400000       -0.08412804    0.00000000
                                                     2        0.2800000        2.62321406    0.00000000
                                                     2        0.6000000       -2.68223623    0.00000000
    2          6            6
                                      G and up 
                                                     0        0.0000010       -0.00286759    0.00000000
                                                     2        0.1200000        0.03193960    0.00000000
                                                     2        0.1600000       -0.04027782    0.00000000
                                                     2        0.2600000        0.24782456    0.00000000
                                                     2        0.4000000       -0.62266671    0.00000000
                                                     2        0.7000000        0.35695227    0.00000000
                                      S - G
                                                     0        0.0000010       -0.06602313    0.00000000
                                                     2        0.1200000        1.47277455    0.00000000
                                                     2        0.1600000       -4.06924166    0.00000000
                                                     2        0.3000000        5.02952802    0.00000000
                                                     2        0.7000000       -5.65856978    0.00000000
                                                     2        1.7000000        8.57604414    0.00000000
                                      P - G
                                                     0        0.0000010        0.49434425    0.00000000
                                                     2        0.1200000       -1.37391547    0.00000000
                                                     2        0.1600000        3.65411806    0.00000000
                                                     2        0.2800000       -7.36479843    0.00000000
                                                     2        0.6000000       17.22091285    0.00000000
                                                     2        1.1000000      -23.50107827    0.00000000
                                                     2        3.0000000       16.29464063    0.00000000
                                      D - G
                                                     0        0.0000010       -0.28693103    0.00000000
                                                     2        0.1200000        0.12273044    0.00000000
                                                     2        0.3000000       -0.43416384    0.00000000
                                                     2        0.7000000        2.23358493    0.00000000
                                      F - G
                                                     0        0.0000010        0.07263570    0.00000000
                                                     2        0.1400000       -0.76152861    0.00000000
                                                     2        0.2200000        1.98045593    0.00000000
                                                     2        0.4000000       -2.42426427    0.00000000
                                                     2        0.7000000        0.52335237    0.00000000
    3          6            6
                                      G and up 
                                                     0        0.0000010       -0.00286759    0.00000000
                                                     2        0.1200000        0.03193960    0.00000000
                                                     2        0.1600000       -0.04027782    0.00000000
                                                     2        0.2600000        0.24782456    0.00000000
                                                     2        0.4000000       -0.62266671    0.00000000
                                                     2        0.7000000        0.35695227    0.00000000
                                      S - G
                                                     0        0.0000010       -0.06602313    0.00000000
                                                     2        0.1200000        1.47277455    0.00000000
                                                     2        0.1600000       -4.06924166    0.00000000
                                                     2        0.3000000        5.02952802    0.00000000
                                                     2        0.7000000       -5.65856978    0.00000000
                                                     2        1.7000000        8.57604414    0.00000000
                                      P - G
                                                     0        0.0000010        0.49434425    0.00000000
                                                     2        0.1200000       -1.37391547    0.00000000
                                                     2        0.1600000        3.65411806    0.00000000
                                                     2        0.2800000       -7.36479843    0.00000000
                                                     2        0.6000000       17.22091285    0.00000000
                                                     2        1.1000000      -23.50107827    0.00000000
                                                     2        3.0000000       16.29464063    0.00000000
                                      D - G
                                                     0        0.0000010       -0.28693103    0.00000000
                                                     2        0.1200000        0.12273044    0.00000000
                                                     2        0.3000000       -0.43416384    0.00000000
                                                     2        0.7000000        2.23358493    0.00000000
                                      F - G
                                                     0        0.0000010        0.07263570    0.00000000
                                                     2        0.1400000       -0.76152861    0.00000000
                                                     2        0.2200000        1.98045593    0.00000000
                                                     2        0.4000000       -2.42426427    0.00000000
                                                     2        0.7000000        0.52335237    0.00000000
    4          7            7
                                      G and up 
                                                     0        0.0000010        0.00420138    0.00000000
                                                     2        0.1200000        0.05872431    0.00000000
                                                     2        0.1400000       -0.08436978    0.00000000
                                                     2        0.2000000        0.05409159    0.00000000
                                                     2        0.2600000        0.14199713    0.00000000
                                                     2        0.6000000       -0.79062770    0.00000000
                                                     2        0.7000000       -0.14441060    0.00000000
                                                     2        1.5000000        0.73772979    0.00000000
                                      S - G
                                                     0        0.0000010       -0.03094411    0.00000000
                                                     2        0.1200000        0.65332522    0.00000000
                                                     2        0.1800000       -1.38149133    0.00000000
                                                     2        1.3000000        3.29267299    0.00000000
                                      P - G
                                                     0        0.0000010        0.07303105    0.00000000
                                                     2        0.1200000        0.23145115    0.00000000
                                                     2        0.2000000       -1.20679699    0.00000000
                                                     2        0.4000000        1.75088447    0.00000000
                                                     2        1.2000000       -0.67486559    0.00000000
                                      D - G
                                                     0        0.0000010        0.07560739    0.00000000
                                                     2        0.3000000       -0.68679114    0.00000000
                                                     2        0.9000000        3.60133241    0.00000000
                                      F - G
                                                     0        0.0000010       -0.18221184    0.00000000
                                                     2        0.1200000       -0.39369067    0.00000000
                                                     2        0.1800000        0.72091725    0.00000000
                                                     2        0.6000000        0.15946111    0.00000000
    5          6            6
                                      G and up 
                                                     0        0.0000010       -0.00286759    0.00000000
                                                     2        0.1200000        0.03193960    0.00000000
                                                     2        0.1600000       -0.04027782    0.00000000
                                                     2        0.2600000        0.24782456    0.00000000
                                                     2        0.4000000       -0.62266671    0.00000000
                                                     2        0.7000000        0.35695227    0.00000000
                                      S - G
                                                     0        0.0000010       -0.06602313    0.00000000
                                                     2        0.1200000        1.47277455    0.00000000
                                                     2        0.1600000       -4.06924166    0.00000000
                                                     2        0.3000000        5.02952802    0.00000000
                                                     2        0.7000000       -5.65856978    0.00000000
                                                     2        1.7000000        8.57604414    0.00000000
                                      P - G
                                                     0        0.0000010        0.49434425    0.00000000
                                                     2        0.1200000       -1.37391547    0.00000000
                                                     2        0.1600000        3.65411806    0.00000000
                                                     2        0.2800000       -7.36479843    0.00000000
                                                     2        0.6000000       17.22091285    0.00000000
                                                     2        1.1000000      -23.50107827    0.00000000
                                                     2        3.0000000       16.29464063    0.00000000
                                      D - G
                                                     0        0.0000010       -0.28693103    0.00000000
                                                     2        0.1200000        0.12273044    0.00000000
                                                     2        0.3000000       -0.43416384    0.00000000
                                                     2        0.7000000        2.23358493    0.00000000
                                      F - G
                                                     0        0.0000010        0.07263570    0.00000000
                                                     2        0.1400000       -0.76152861    0.00000000
                                                     2        0.2200000        1.98045593    0.00000000
                                                     2        0.4000000       -2.42426427    0.00000000
                                                     2        0.7000000        0.52335237    0.00000000
    6          6            6
                                      G and up 
                                                     0        0.0000010       -0.00286759    0.00000000
                                                     2        0.1200000        0.03193960    0.00000000
                                                     2        0.1600000       -0.04027782    0.00000000
                                                     2        0.2600000        0.24782456    0.00000000
                                                     2        0.4000000       -0.62266671    0.00000000
                                                     2        0.7000000        0.35695227    0.00000000
                                      S - G
                                                     0        0.0000010       -0.06602313    0.00000000
                                                     2        0.1200000        1.47277455    0.00000000
                                                     2        0.1600000       -4.06924166    0.00000000
                                                     2        0.3000000        5.02952802    0.00000000
                                                     2        0.7000000       -5.65856978    0.00000000
                                                     2        1.7000000        8.57604414    0.00000000
                                      P - G
                                                     0        0.0000010        0.49434425    0.00000000
                                                     2        0.1200000       -1.37391547    0.00000000
                                                     2        0.1600000        3.65411806    0.00000000
                                                     2        0.2800000       -7.36479843    0.00000000
                                                     2        0.6000000       17.22091285    0.00000000
                                                     2        1.1000000      -23.50107827    0.00000000
                                                     2        3.0000000       16.29464063    0.00000000
                                      D - G
                                                     0        0.0000010       -0.28693103    0.00000000
                                                     2        0.1200000        0.12273044    0.00000000
                                                     2        0.3000000       -0.43416384    0.00000000
                                                     2        0.7000000        2.23358493    0.00000000
                                      F - G
                                                     0        0.0000010        0.07263570    0.00000000
                                                     2        0.1400000       -0.76152861    0.00000000
                                                     2        0.2200000        1.98045593    0.00000000
                                                     2        0.4000000       -2.42426427    0.00000000
                                                     2        0.7000000        0.52335237    0.00000000
    7          1            1
                                      F and up 
                                                     0        0.0000010        0.00072061    0.00000000
                                                     2        0.1200000        0.03832357    0.00000000
                                                     2        0.1400000       -0.08683256    0.00000000
                                                     2        0.1800000        0.09312970    0.00000000
                                                     2        0.2800000       -0.02532572    0.00000000
                                                     2        0.4000000       -0.09430787    0.00000000
                                                     2        0.7000000        0.42710831    0.00000000
                                                     2        1.2000000       -2.11746981    0.00000000
                                      S - F
                                                     0        0.0000010        0.14449603    0.00000000
                                                     2        0.1200000       -0.56378993    0.00000000
                                                     2        0.1400000        0.63941249    0.00000000
                                                     2        0.2600000       -0.58461015    0.00000000
                                                     2        0.5000000        1.00157293    0.00000000
                                                     2        1.8000000       -0.14135838    0.00000000
                                      P - F
                                                     0        0.0000010       -0.09353646    0.00000000
                                                     2        0.1200000        0.31768975    0.00000000
                                                     2        0.2000000       -0.71747951    0.00000000
                                                     2        0.4000000        0.65752308    0.00000000
                                                     2        1.7000000        2.94052587    0.00000000
                                      D - F
                                                     0        0.0000010       -0.04491202    0.00000000
                                                     2        0.1200000       -0.02862031    0.00000000
                                                     2        0.1800000       -0.21515263    0.00000000
                                                     2        0.3000000        0.80560647    0.00000000
                                                     2        0.4000000        0.47351754    0.00000000
                                                     2        0.7000000       -4.57051794    0.00000000
                                                     2        1.6000000       18.53737826    0.00000000
    8          1            1
                                      F and up 
                                                     0        0.0000010        0.00072061    0.00000000
                                                     2        0.1200000        0.03832357    0.00000000
                                                     2        0.1400000       -0.08683256    0.00000000
                                                     2        0.1800000        0.09312970    0.00000000
                                                     2        0.2800000       -0.02532572    0.00000000
                                                     2        0.4000000       -0.09430787    0.00000000
                                                     2        0.7000000        0.42710831    0.00000000
                                                     2        1.2000000       -2.11746981    0.00000000
                                      S - F
                                                     0        0.0000010        0.14449603    0.00000000
                                                     2        0.1200000       -0.56378993    0.00000000
                                                     2        0.1400000        0.63941249    0.00000000
                                                     2        0.2600000       -0.58461015    0.00000000
                                                     2        0.5000000        1.00157293    0.00000000
                                                     2        1.8000000       -0.14135838    0.00000000
                                      P - F
                                                     0        0.0000010       -0.09353646    0.00000000
                                                     2        0.1200000        0.31768975    0.00000000
                                                     2        0.2000000       -0.71747951    0.00000000
                                                     2        0.4000000        0.65752308    0.00000000
                                                     2        1.7000000        2.94052587    0.00000000
                                      D - F
                                                     0        0.0000010       -0.04491202    0.00000000
                                                     2        0.1200000       -0.02862031    0.00000000
                                                     2        0.1800000       -0.21515263    0.00000000
                                                     2        0.3000000        0.80560647    0.00000000
                                                     2        0.4000000        0.47351754    0.00000000
                                                     2        0.7000000       -4.57051794    0.00000000
                                                     2        1.6000000       18.53737826    0.00000000
    9          1            1
                                      F and up 
                                                     0        0.0000010        0.00072061    0.00000000
                                                     2        0.1200000        0.03832357    0.00000000
                                                     2        0.1400000       -0.08683256    0.00000000
                                                     2        0.1800000        0.09312970    0.00000000
                                                     2        0.2800000       -0.02532572    0.00000000
                                                     2        0.4000000       -0.09430787    0.00000000
                                                     2        0.7000000        0.42710831    0.00000000
                                                     2        1.2000000       -2.11746981    0.00000000
                                      S - F
                                                     0        0.0000010        0.14449603    0.00000000
                                                     2        0.1200000       -0.56378993    0.00000000
                                                     2        0.1400000        0.63941249    0.00000000
                                                     2        0.2600000       -0.58461015    0.00000000
                                                     2        0.5000000        1.00157293    0.00000000
                                                     2        1.8000000       -0.14135838    0.00000000
                                      P - F
                                                     0        0.0000010       -0.09353646    0.00000000
                                                     2        0.1200000        0.31768975    0.00000000
                                                     2        0.2000000       -0.71747951    0.00000000
                                                     2        0.4000000        0.65752308    0.00000000
                                                     2        1.7000000        2.94052587    0.00000000
                                      D - F
                                                     0        0.0000010       -0.04491202    0.00000000
                                                     2        0.1200000       -0.02862031    0.00000000
                                                     2        0.1800000       -0.21515263    0.00000000
                                                     2        0.3000000        0.80560647    0.00000000
                                                     2        0.4000000        0.47351754    0.00000000
                                                     2        0.7000000       -4.57051794    0.00000000
                                                     2        1.6000000       18.53737826    0.00000000
   10          1            1
                                      F and up 
                                                     0        0.0000010        0.00072061    0.00000000
                                                     2        0.1200000        0.03832357    0.00000000
                                                     2        0.1400000       -0.08683256    0.00000000
                                                     2        0.1800000        0.09312970    0.00000000
                                                     2        0.2800000       -0.02532572    0.00000000
                                                     2        0.4000000       -0.09430787    0.00000000
                                                     2        0.7000000        0.42710831    0.00000000
                                                     2        1.2000000       -2.11746981    0.00000000
                                      S - F
                                                     0        0.0000010        0.14449603    0.00000000
                                                     2        0.1200000       -0.56378993    0.00000000
                                                     2        0.1400000        0.63941249    0.00000000
                                                     2        0.2600000       -0.58461015    0.00000000
                                                     2        0.5000000        1.00157293    0.00000000
                                                     2        1.8000000       -0.14135838    0.00000000
                                      P - F
                                                     0        0.0000010       -0.09353646    0.00000000
                                                     2        0.1200000        0.31768975    0.00000000
                                                     2        0.2000000       -0.71747951    0.00000000
                                                     2        0.4000000        0.65752308    0.00000000
                                                     2        1.7000000        2.94052587    0.00000000
                                      D - F
                                                     0        0.0000010       -0.04491202    0.00000000
                                                     2        0.1200000       -0.02862031    0.00000000
                                                     2        0.1800000       -0.21515263    0.00000000
                                                     2        0.3000000        0.80560647    0.00000000
                                                     2        0.4000000        0.47351754    0.00000000
                                                     2        0.7000000       -4.57051794    0.00000000
                                                     2        1.6000000       18.53737826    0.00000000
   11          1            1
                                      F and up 
                                                     0        0.0000010        0.00072061    0.00000000
                                                     2        0.1200000        0.03832357    0.00000000
                                                     2        0.1400000       -0.08683256    0.00000000
                                                     2        0.1800000        0.09312970    0.00000000
                                                     2        0.2800000       -0.02532572    0.00000000
                                                     2        0.4000000       -0.09430787    0.00000000
                                                     2        0.7000000        0.42710831    0.00000000
                                                     2        1.2000000       -2.11746981    0.00000000
                                      S - F
                                                     0        0.0000010        0.14449603    0.00000000
                                                     2        0.1200000       -0.56378993    0.00000000
                                                     2        0.1400000        0.63941249    0.00000000
                                                     2        0.2600000       -0.58461015    0.00000000
                                                     2        0.5000000        1.00157293    0.00000000
                                                     2        1.8000000       -0.14135838    0.00000000
                                      P - F
                                                     0        0.0000010       -0.09353646    0.00000000
                                                     2        0.1200000        0.31768975    0.00000000
                                                     2        0.2000000       -0.71747951    0.00000000
                                                     2        0.4000000        0.65752308    0.00000000
                                                     2        1.7000000        2.94052587    0.00000000
                                      D - F
                                                     0        0.0000010       -0.04491202    0.00000000
                                                     2        0.1200000       -0.02862031    0.00000000
                                                     2        0.1800000       -0.21515263    0.00000000
                                                     2        0.3000000        0.80560647    0.00000000
                                                     2        0.4000000        0.47351754    0.00000000
                                                     2        0.7000000       -4.57051794    0.00000000
                                                     2        1.6000000       18.53737826    0.00000000
   12          1            1
                                      F and up 
                                                     0        0.0000010        0.00072061    0.00000000
                                                     2        0.1200000        0.03832357    0.00000000
                                                     2        0.1400000       -0.08683256    0.00000000
                                                     2        0.1800000        0.09312970    0.00000000
                                                     2        0.2800000       -0.02532572    0.00000000
                                                     2        0.4000000       -0.09430787    0.00000000
                                                     2        0.7000000        0.42710831    0.00000000
                                                     2        1.2000000       -2.11746981    0.00000000
                                      S - F
                                                     0        0.0000010        0.14449603    0.00000000
                                                     2        0.1200000       -0.56378993    0.00000000
                                                     2        0.1400000        0.63941249    0.00000000
                                                     2        0.2600000       -0.58461015    0.00000000
                                                     2        0.5000000        1.00157293    0.00000000
                                                     2        1.8000000       -0.14135838    0.00000000
                                      P - F
                                                     0        0.0000010       -0.09353646    0.00000000
                                                     2        0.1200000        0.31768975    0.00000000
                                                     2        0.2000000       -0.71747951    0.00000000
                                                     2        0.4000000        0.65752308    0.00000000
                                                     2        1.7000000        2.94052587    0.00000000
                                      D - F
                                                     0        0.0000010       -0.04491202    0.00000000
                                                     2        0.1200000       -0.02862031    0.00000000
                                                     2        0.1800000       -0.21515263    0.00000000
                                                     2        0.3000000        0.80560647    0.00000000
                                                     2        0.4000000        0.47351754    0.00000000
                                                     2        0.7000000       -4.57051794    0.00000000
                                                     2        1.6000000       18.53737826    0.00000000
   13          1            1
                                      F and up 
                                                     0        0.0000010        0.00072061    0.00000000
                                                     2        0.1200000        0.03832357    0.00000000
                                                     2        0.1400000       -0.08683256    0.00000000
                                                     2        0.1800000        0.09312970    0.00000000
                                                     2        0.2800000       -0.02532572    0.00000000
                                                     2        0.4000000       -0.09430787    0.00000000
                                                     2        0.7000000        0.42710831    0.00000000
                                                     2        1.2000000       -2.11746981    0.00000000
                                      S - F
                                                     0        0.0000010        0.14449603    0.00000000
                                                     2        0.1200000       -0.56378993    0.00000000
                                                     2        0.1400000        0.63941249    0.00000000
                                                     2        0.2600000       -0.58461015    0.00000000
                                                     2        0.5000000        1.00157293    0.00000000
                                                     2        1.8000000       -0.14135838    0.00000000
                                      P - F
                                                     0        0.0000010       -0.09353646    0.00000000
                                                     2        0.1200000        0.31768975    0.00000000
                                                     2        0.2000000       -0.71747951    0.00000000
                                                     2        0.4000000        0.65752308    0.00000000
                                                     2        1.7000000        2.94052587    0.00000000
                                      D - F
                                                     0        0.0000010       -0.04491202    0.00000000
                                                     2        0.1200000       -0.02862031    0.00000000
                                                     2        0.1800000       -0.21515263    0.00000000
                                                     2        0.3000000        0.80560647    0.00000000
                                                     2        0.4000000        0.47351754    0.00000000
                                                     2        0.7000000       -4.57051794    0.00000000
                                                     2        1.6000000       18.53737826    0.00000000
 ======================================================================================================
   201 basis functions,   335 primitive gaussians,   213 cartesian basis functions
    23 alpha electrons       23 beta electrons
       nuclear repulsion energy       214.1041162827 Hartrees.
 NAtoms=   13 NActive=   13 NUniq=   13 SFac= 1.00D+00 NAtFMM=   60 NAOKFM=F Big=F
   1 Symmetry operations used in ECPInt.
 ECPInt:  NShTT=    4005 NPrTT=   17869 LenC2=    3987 LenP2D=   14085.
 LDataN:  DoStor=T MaxTD1= 6 Len=  172
 Initial guess from the checkpoint file:  "Grambow2020_b97d3_006550_reverse_mol2.chk"
 B after Tr=    -0.347349    0.008175    0.181541
         Rot=   -0.433651    0.105245   -0.070966    0.892095 Ang= 231.40 deg.
 >>>>>>>>>> Convergence criterion not met.
 SCF Done:  E(RHF) =  -286.147770552     A.U. after    2 cycles
            NFock=  1  Conv=0.60D+00     -V/T= 2.0237

 **********************************************************************

            Population analysis using the SCF Density.

 **********************************************************************

 Orbital symmetries:
       Occupied  (A) (A) (A) (A) (A) (A) (A) (A) (A) (A) (A) (A)
                 (A) (A) (A) (A) (A) (A) (A) (A) (A) (A) (A)
       Virtual   (A) (A) (A) (A) (A) (A) (A) (A) (A) (A) (A) (A)
                 (A) (A) (A) (A) (A) (A) (A) (A) (A) (A) (A) (A)
                 (A) (A) (A) (A) (A) (A) (A) (A) (A) (A) (A) (A)
                 (A) (A) (A) (A) (A) (A) (A) (A) (A) (A) (A) (A)
                 (A) (A) (A) (A) (A) (A) (A) (A) (A) (A) (A) (A)
                 (A) (A) (A) (A) (A) (A) (A) (A) (A) (A) (A) (A)
                 (A) (A) (A) (A) (A) (A) (A) (A) (A) (A) (A) (A)
                 (A) (A) (A) (A) (A) (A) (A) (A) (A) (A) (A) (A)
                 (A) (A) (A) (A) (A) (A) (A) (A) (A) (A) (A) (A)
                 (A) (A) (A) (A) (A) (A) (A) (A) (A) (A) (A) (A)
                 (A) (A) (A) (A) (A) (A) (A) (A) (A) (A) (A) (A)
                 (A) (A) (A) (A) (A) (A) (A) (A) (A) (A) (A) (A)
                 (A) (A) (A) (A) (A) (A) (A) (A) (A) (A) (A) (A)
                 (A) (A) (A) (A) (A) (A) (A) (A) (A) (A) (A) (A)
                 (A) (A) (A) (A) (A) (A) (A) (A) (A) (A)
 The electronic state is 1-A.
 Alpha  occ. eigenvalues --  -21.10192 -15.73953 -11.46260 -11.43550 -11.41494
 Alpha  occ. eigenvalues --  -11.37356  -1.74405  -1.38426  -1.14456  -0.97945
 Alpha  occ. eigenvalues --   -0.83324  -0.80864  -0.66447  -0.64091  -0.61669
 Alpha  occ. eigenvalues --   -0.57846  -0.55238  -0.49829  -0.47283  -0.44861
 Alpha  occ. eigenvalues --   -0.38801  -0.37301  -0.27804
 Alpha virt. eigenvalues --    0.03863   0.05126   0.05735   0.05961   0.06269
 Alpha virt. eigenvalues --    0.06865   0.07208   0.10417   0.11569   0.11845
 Alpha virt. eigenvalues --    0.11995   0.13605   0.14590   0.14863   0.15340
 Alpha virt. eigenvalues --    0.16011   0.16813   0.17449   0.18161   0.19795
 Alpha virt. eigenvalues --    0.20773   0.21553   0.22119   0.22808   0.23224
 Alpha virt. eigenvalues --    0.25048   0.25637   0.28205   0.29234   0.29471
 Alpha virt. eigenvalues --    0.30807   0.31891   0.32097   0.33094   0.33489
 Alpha virt. eigenvalues --    0.34575   0.36222   0.37614   0.38998   0.41258
 Alpha virt. eigenvalues --    0.42042   0.42662   0.43534   0.44372   0.45555
 Alpha virt. eigenvalues --    0.46847   0.47184   0.48907   0.49272   0.50185
 Alpha virt. eigenvalues --    0.51592   0.51652   0.54376   0.54817   0.56067
 Alpha virt. eigenvalues --    0.57311   0.58720   0.60497   0.61126   0.62804
 Alpha virt. eigenvalues --    0.63315   0.64522   0.66114   0.66964   0.68134
 Alpha virt. eigenvalues --    0.68574   0.69993   0.70486   0.72232   0.73216
 Alpha virt. eigenvalues --    0.74172   0.74512   0.77915   0.79032   0.79953
 Alpha virt. eigenvalues --    0.81911   0.82182   0.83310   0.84174   0.86350
 Alpha virt. eigenvalues --    0.87877   0.90308   0.92819   0.93147   0.94103
 Alpha virt. eigenvalues --    0.97484   0.97831   0.99695   1.00577   1.02755
 Alpha virt. eigenvalues --    1.07202   1.08030   1.09850   1.16010   1.20312
 Alpha virt. eigenvalues --    1.26639   1.28137   1.31365   1.32816   1.34726
 Alpha virt. eigenvalues --    1.40188   1.42587   1.43665   1.50585   1.54032
 Alpha virt. eigenvalues --    1.58984   1.63689   1.66750   1.69804   1.74321
 Alpha virt. eigenvalues --    1.78907   1.79141   1.82543   1.84814   1.85507
 Alpha virt. eigenvalues --    1.88315   1.89560   1.90626   1.92810   1.94003
 Alpha virt. eigenvalues --    1.95524   1.97350   2.02073   2.05331   2.09429
 Alpha virt. eigenvalues --    2.13303   2.13678   2.14863   2.20191   2.23165
 Alpha virt. eigenvalues --    2.24247   2.25703   2.27334   2.28866   2.30823
 Alpha virt. eigenvalues --    2.34951   2.36581   2.39270   2.41934   2.43611
 Alpha virt. eigenvalues --    2.45329   2.49148   2.52334   2.56367   2.57694
 Alpha virt. eigenvalues --    2.60802   2.65492   2.68358   2.72898   2.76083
 Alpha virt. eigenvalues --    2.80813   2.87878   2.92077   2.96609   3.01123
 Alpha virt. eigenvalues --    3.07893   3.09032   3.14544   3.16758   3.23882
 Alpha virt. eigenvalues --    3.31977   3.37137   3.38673   3.46668   3.47537
 Alpha virt. eigenvalues --    3.57458   3.63750   3.68106   3.78610   3.92496
 Alpha virt. eigenvalues --    4.00314   4.08818   4.13185   6.01050   6.07073
 Alpha virt. eigenvalues --    6.12018   6.25855   6.81213
          Condensed to atoms (all electrons):
 Mulliken charges:
               1
     1  O   -3.264227
     2  C    0.766534
     3  C   -1.484047
     4  N   -2.099661
     5  C   -2.940801
     6  C   -0.497896
     7  H    0.880689
     8  H    1.599126
     9  H    1.505679
    10  H    1.380493
    11  H    1.587654
    12  H    1.179309
    13  H    1.387148
 Sum of Mulliken charges =   0.00000
 Mulliken charges with hydrogens summed into heavy atoms:
               1
     1  O   -2.383539
     2  C    2.365661
     3  C    1.402124
     4  N   -2.099661
     5  C   -0.173838
     6  C    0.889252
 Electronic spatial extent (au):  <R**2>=            828.0201
 Charge=              0.0000 electrons
 Dipole moment (field-independent basis, Debye):
    X=              0.2293    Y=             -0.6214    Z=              0.6471  Tot=              0.9260

 Test job not archived.
 1\1\GINC-SE332\SP\RHF\Aug-CC-pVDZ\C4H7N1O1\OHZDE\09-Apr-2025\0\\#t hf 
 aug-cc-pvdz iop(5/13=1,5/36=2,99/5=2) pseudo=read geom=check guess=(re
 ad,tcheck) scf=(maxcycle=1)\\title\\0,1\O,0,-2.19014664,-2.0867997,0.1
 9957602\C,0,-1.16405191,-1.23212102,0.4921093\C,0,0.81898803,2.3239904
 4,-0.32380274\N,0,1.04169969,1.15998032,-0.78887513\C,0,0.96527773,0.0
 3412725,0.14892248\C,0,-0.10840579,-0.92868583,-0.28308886\H,0,-2.0426
 4609,-2.44675391,-0.69711456\H,0,-1.302777,-0.8048027,1.48585853\H,0,0
 .58086167,2.53864273,0.73561158\H,0,0.85749442,3.18360018,-1.00377831\
 H,0,0.78479577,0.3551666,1.19432871\H,0,1.94954147,-0.46360021,0.12191
 329\H,0,-0.00948535,-1.36151016,-1.2821913\\Version=ES64L-G16RevC.01\S
 tate=1-A\HF=-286.1477706\RMSD=6.000e-01\Dipole=-0.1763093,0.0699308,0.
 3110301\Quadrupole=-2.1178742,2.3442973,-0.2264231,0.3976876,1.5092055
 ,3.0227942\PG=C01 [X(C4H7N1O1)]\\@


 IT IS IMPOSSIBLE TO MEDITATE ON TIME AND THE MYSTERY 
 OF NATURE WITHOUT AN OVERWHELMING EMOTION AT THE
 LIMITATIONS OF HUMAN INTELLIGENCE.

                                         -- ALFRED NORTH WHITEHEAD
 Job cpu time:       0 days  0 hours  0 minutes 33.6 seconds.
 Elapsed time:       0 days  0 hours  0 minutes  2.9 seconds.
 File lengths (MBytes):  RWF=     10 Int=      0 D2E=      0 Chk=      6 Scr=      1
 Normal termination of Gaussian 16 at Wed Apr  9 03:06:50 2025.
