 Entering Gaussian System, Link 0=g16
 Input=Grambow2020_wb97xd3_007232_reverse_mol1.gjf
 Output=Grambow2020_wb97xd3_007232_reverse_mol1.log
 Initial command:
 /arc/software/Gaussian/g16.c01/l1.exe "/tmp/slurm/4881323/Gau-3707090.inp" -scrdir="/tmp/slurm/4881323/"
 Entering Link 1 = /arc/software/Gaussian/g16.c01/l1.exe PID=   3707091.
  
 Copyright (c) 1988-2019, Gaussian, Inc.  All Rights Reserved.
  
 This is part of the Gaussian(R) 16 program.  It is based on
 the Gaussian(R) 09 system (copyright 2009, Gaussian, Inc.),
 the Gaussian(R) 03 system (copyright 2003, Gaussian, Inc.),
 the Gaussian(R) 98 system (copyright 1998, Gaussian, Inc.),
 the Gaussian(R) 94 system (copyright 1995, Gaussian, Inc.),
 the Gaussian 92(TM) system (copyright 1992, Gaussian, Inc.),
 the Gaussian 90(TM) system (copyright 1990, Gaussian, Inc.),
 the Gaussian 88(TM) system (copyright 1988, Gaussian, Inc.),
 the Gaussian 86(TM) system (copyright 1986, Carnegie Mellon
 University), and the Gaussian 82(TM) system (copyright 1983,
 Carnegie Mellon University). Gaussian is a federally registered
 trademark of Gaussian, Inc.
  
 This software contains proprietary and confidential information,
 including trade secrets, belonging to Gaussian, Inc.
  
 This software is provided under written license and may be
 used, copied, transmitted, or stored only in accord with that
 written license.
  
 The following legend is applicable only to US Government
 contracts under FAR:
  
                    RESTRICTED RIGHTS LEGEND
  
 Use, reproduction and disclosure by the US Government is
 subject to restrictions as set forth in subparagraphs (a)
 and (c) of the Commercial Computer Software - Restricted
 Rights clause in FAR 52.227-19.
  
 Gaussian, Inc.
 340 Quinnipiac St., Bldg. 40, Wallingford CT 06492
  
  
 ---------------------------------------------------------------
 Warning -- This program may not be used in any manner that
 competes with the business of Gaussian, Inc. or will provide
 assistance to any competitor of Gaussian, Inc.  The licensee
 of this program is prohibited from giving any competitor of
 Gaussian, Inc. access to this program.  By using this program,
 the user acknowledges that Gaussian, Inc. is engaged in the
 business of creating and licensing software in the field of
 computational chemistry and represents and warrants to the
 licensee that it is not a competitor of Gaussian, Inc. and that
 it will not use this program in any manner prohibited above.
 ---------------------------------------------------------------
  

 Cite this work as:
 Gaussian 16, Revision C.01,
 M. J. Frisch, G. W. Trucks, H. B. Schlegel, G. E. Scuseria, 
 M. A. Robb, J. R. Cheeseman, G. Scalmani, V. Barone, 
 G. A. Petersson, H. Nakatsuji, X. Li, M. Caricato, A. V. Marenich, 
 J. Bloino, B. G. Janesko, R. Gomperts, B. Mennucci, H. P. Hratchian, 
 J. V. Ortiz, A. F. Izmaylov, J. L. Sonnenberg, D. Williams-Young, 
 F. Ding, F. Lipparini, F. Egidi, J. Goings, B. Peng, A. Petrone, 
 T. Henderson, D. Ranasinghe, V. G. Zakrzewski, J. Gao, N. Rega, 
 G. Zheng, W. Liang, M. Hada, M. Ehara, K. Toyota, R. Fukuda, 
 J. Hasegawa, M. Ishida, T. Nakajima, Y. Honda, O. Kitao, H. Nakai, 
 T. Vreven, K. Throssell, J. A. Montgomery, Jr., J. E. Peralta, 
 F. Ogliaro, M. J. Bearpark, J. J. Heyd, E. N. Brothers, K. N. Kudin, 
 V. N. Staroverov, T. A. Keith, R. Kobayashi, J. Normand, 
 K. Raghavachari, A. P. Rendell, J. C. Burant, S. S. Iyengar, 
 J. Tomasi, M. Cossi, J. M. Millam, M. Klene, C. Adamo, R. Cammi, 
 J. W. Ochterski, R. L. Martin, K. Morokuma, O. Farkas, 
 J. B. Foresman, and D. J. Fox, Gaussian, Inc., Wallingford CT, 2019.
 
 ******************************************
 Gaussian 16:  ES64L-G16RevC.01  3-Jul-2019
                 9-Apr-2025 
 ******************************************
 %nprocs=16
 Will use up to   16 processors via shared memory.
 %mem=30GB
 %chk=Grambow2020_wb97xd3_007232_reverse_mol1.chk
 ----------------------------------------------------------------------
 #t hf aug-cc-pvdz symm=none int=(grid=ultrafine) guess=(read,tcheck) s
 table=(opt,rrhf)
 ----------------------------------------------------------------------
 -----
 title
 -----
 Symbolic Z-matrix:
 Charge =  0 Multiplicity = 1
 C                    -2.07051  -0.0331   -0.52573 
 N                    -0.76347   0.27008   0.00945 
 C                    -0.2284   -0.27183   1.2347 
 N                     0.88404   0.355     1.56721 
 C                     1.34462   0.68077   0.31412 
 C                     2.23361  -0.2556   -0.21423 
 C                     0.22941   0.89161  -0.55971 
 H                    -2.84523   0.47938   0.04536 
 H                    -2.12489   0.27745  -1.56747 
 H                    -2.23091  -1.10971  -0.47036 
 H                    -0.94769  -0.68422   1.93533 
 H                     2.86611  -0.80865   0.46759 
 H                     0.66107  -1.3422    0.27649 
 H                     2.54146  -0.2184   -1.25438 
 H                     0.20158   1.23604  -1.58333 
 
                    Distance matrix (angstroms):
                    1          2          3          4          5
     1  C    0.000000
     2  N    1.444538   0.000000
     3  C    2.559187   1.442627   0.000000
     4  N    3.641481   2.268945   1.319472   0.000000
     5  C    3.588596   2.169218   2.056523   1.374227   0.000000
     6  C    4.321105   3.051041   2.856774   2.316829   1.395080
     7  C    2.479083   1.302326   2.187023   2.289171   1.432383
     8  H    1.090405   2.092561   2.970956   4.029755   4.203280
     9  H    1.088398   2.083312   3.427896   4.345788   3.967428
    10  H    1.089895   2.070610   2.760311   4.000001   4.074999
    11  H    2.782354   2.157225   1.085507   2.137922   3.121886
    12  H    5.094931   3.814103   3.233053   2.547907   2.134681
    13  H    3.133500   2.167967   1.689686   2.143868   2.135664
    14  H    4.672848   3.571897   3.724313   3.322229   2.168208
    15  H    2.809202   2.097940   3.224871   3.341837   2.283670
                    6          7          8          9         10
     6  C    0.000000
     7  C    2.335009   0.000000
     8  H    5.138303   3.160606   0.000000
     9  H    4.594769   2.633528   1.777887   0.000000
    10  H    4.552698   3.172763   1.780044   1.771747   0.000000
    11  H    3.863285   3.177108   2.920030   3.818400   2.759540
    12  H    1.082036   3.301275   5.869978   5.498284   5.191341
    13  H    1.973419   2.423938   3.957994   3.712820   2.995901
    14  H    1.085390   2.657115   5.585037   4.703053   4.917792
    15  H    2.868547   1.080367   3.536694   2.516269   3.557845
                   11         12         13         14         15
    11  H    0.000000
    12  H    4.088371   0.000000
    13  H    2.402667   2.276704   0.000000
    14  H    4.750306   1.849051   2.672520   0.000000
    15  H    4.170030   3.935320   3.212070   2.774642   0.000000
 Symmetry turned off by external request.
 Rotational constants (GHZ):           5.9760225           2.4186759           2.0036135
   233 basis functions,   389 primitive gaussians,   247 cartesian basis functions
    26 alpha electrons       26 beta electrons
       nuclear repulsion energy       302.2755799090 Hartrees.
 NAtoms=   15 NActive=   15 NUniq=   15 SFac= 1.00D+00 NAtFMM=   60 NAOKFM=F Big=F
 ExpMin= 2.97D-02 ExpMax= 9.05D+03 ExpMxC= 3.09D+02 IAcc=3 IRadAn=         5 AccDes= 0.00D+00
 Harris functional with IExCor=  205 and IRadAn=       5 diagonalized for initial guess.
 HarFok:  IExCor=  205 AccDes= 0.00D+00 IRadAn=         5 IDoV= 1 UseB2=F ITyADJ=14
 ICtDFT=  3500011 ScaDFX=  1.000000  1.000000  1.000000  1.000000
 FoFCou: FMM=F IPFlag=           0 FMFlag=      100000 FMFlg1=           0
         NFxFlg=           0 DoJE=T BraDBF=F KetDBF=T FulRan=T
         wScrn=  0.000000 ICntrl=       500 IOpCl=  0 I1Cent=   200000004 NGrid=           0
         NMat0=    1 NMatS0=      1 NMatT0=    0 NMatD0=    1 NMtDS0=    0 NMtDT0=    0
 Symmetry not used in FoFCou.
 SCF Done:  E(RHF) =  -302.697527727     A.U. after   16 cycles
            NFock= 16  Conv=0.39D-08     -V/T= 2.0009

 **********************************************************************

            Population analysis using the SCF Density.

 **********************************************************************

 Alpha  occ. eigenvalues --  -15.66308 -15.51415 -11.32440 -11.31769 -11.30766
 Alpha  occ. eigenvalues --  -11.26072 -11.25953  -1.37486  -1.20764  -1.05532
 Alpha  occ. eigenvalues --   -1.00476  -0.91119  -0.80442  -0.78790  -0.72027
 Alpha  occ. eigenvalues --   -0.67873  -0.63872  -0.62291  -0.60164  -0.58771
 Alpha  occ. eigenvalues --   -0.54458  -0.53018  -0.44795  -0.39410  -0.34296
 Alpha  occ. eigenvalues --   -0.27420
 Alpha virt. eigenvalues --    0.02307   0.03716   0.04342   0.04853   0.06027
 Alpha virt. eigenvalues --    0.06677   0.07471   0.08410   0.08996   0.09907
 Alpha virt. eigenvalues --    0.10612   0.11683   0.13030   0.13485   0.13754
 Alpha virt. eigenvalues --    0.14525   0.14762   0.15483   0.15804   0.16035
 Alpha virt. eigenvalues --    0.17016   0.17877   0.18636   0.18700   0.19044
 Alpha virt. eigenvalues --    0.19972   0.21065   0.22808   0.24843   0.24924
 Alpha virt. eigenvalues --    0.25581   0.26680   0.27963   0.28766   0.30743
 Alpha virt. eigenvalues --    0.31420   0.31606   0.32413   0.33198   0.34356
 Alpha virt. eigenvalues --    0.35723   0.36024   0.37572   0.38889   0.39624
 Alpha virt. eigenvalues --    0.40360   0.41058   0.41645   0.42257   0.43340
 Alpha virt. eigenvalues --    0.43623   0.45108   0.46229   0.46565   0.47697
 Alpha virt. eigenvalues --    0.49894   0.50951   0.52276   0.52760   0.53693
 Alpha virt. eigenvalues --    0.54722   0.55723   0.56636   0.57280   0.57734
 Alpha virt. eigenvalues --    0.58260   0.59533   0.59934   0.61155   0.62348
 Alpha virt. eigenvalues --    0.63561   0.64026   0.64819   0.65107   0.66059
 Alpha virt. eigenvalues --    0.67147   0.68169   0.69538   0.69757   0.70783
 Alpha virt. eigenvalues --    0.71460   0.72752   0.74096   0.74565   0.75268
 Alpha virt. eigenvalues --    0.76574   0.77268   0.78216   0.78560   0.80633
 Alpha virt. eigenvalues --    0.80753   0.82770   0.83791   0.85426   0.86056
 Alpha virt. eigenvalues --    0.87864   0.88473   0.90120   0.91530   0.94349
 Alpha virt. eigenvalues --    0.96430   0.97717   0.99158   0.99835   1.01246
 Alpha virt. eigenvalues --    1.03442   1.03909   1.06465   1.07881   1.09927
 Alpha virt. eigenvalues --    1.12721   1.16825   1.17544   1.19999   1.20981
 Alpha virt. eigenvalues --    1.22220   1.23336   1.25783   1.26681   1.29112
 Alpha virt. eigenvalues --    1.32226   1.36028   1.37709   1.40002   1.43633
 Alpha virt. eigenvalues --    1.45163   1.48952   1.49771   1.53020   1.53450
 Alpha virt. eigenvalues --    1.59589   1.61028   1.65754   1.66422   1.68608
 Alpha virt. eigenvalues --    1.70876   1.74290   1.74757   1.76700   1.79836
 Alpha virt. eigenvalues --    1.81545   1.81801   1.82558   1.85468   1.85887
 Alpha virt. eigenvalues --    1.88291   1.90166   1.91547   1.93045   1.96653
 Alpha virt. eigenvalues --    2.00659   2.04268   2.05243   2.06461   2.07399
 Alpha virt. eigenvalues --    2.10119   2.12728   2.14188   2.15983   2.17328
 Alpha virt. eigenvalues --    2.18113   2.20097   2.21950   2.23803   2.24405
 Alpha virt. eigenvalues --    2.29649   2.32254   2.34310   2.37139   2.38178
 Alpha virt. eigenvalues --    2.41423   2.44506   2.46689   2.48078   2.50983
 Alpha virt. eigenvalues --    2.51881   2.52966   2.57061   2.57959   2.61602
 Alpha virt. eigenvalues --    2.64530   2.66371   2.68152   2.70416   2.74611
 Alpha virt. eigenvalues --    2.79813   2.82565   2.84438   2.88362   2.89189
 Alpha virt. eigenvalues --    2.93202   2.97177   2.99115   3.01605   3.03315
 Alpha virt. eigenvalues --    3.10840   3.13429   3.21506   3.23492   3.30705
 Alpha virt. eigenvalues --    3.34922   3.36184   3.39731   3.45392   3.64928
 Alpha virt. eigenvalues --    3.69519   3.91651
          Condensed to atoms (all electrons):
 Mulliken charges:
               1
     1  C    0.774381
     2  N   -0.623326
     3  C    0.445792
     4  N   -0.852077
     5  C   -0.075496
     6  C    0.765040
     7  C    0.719638
     8  H   -0.053714
     9  H   -0.198989
    10  H   -0.062822
    11  H   -0.259671
    12  H   -0.228915
    13  H    0.216300
    14  H   -0.287480
    15  H   -0.278660
 Sum of Mulliken charges =  -0.00000
 Mulliken charges with hydrogens summed into heavy atoms:
               1
     1  C    0.458856
     2  N   -0.623326
     3  C    0.402420
     4  N   -0.852077
     5  C   -0.075496
     6  C    0.248645
     7  C    0.440979
 Electronic spatial extent (au):  <R**2>=            697.8089
 Charge=              0.0000 electrons
 Dipole moment (field-independent basis, Debye):
    X=             -4.0630    Y=              0.6365    Z=             -4.1025  Tot=              5.8089
 NROrb=    233 NOA=    26 NOB=    26 NVA=   207 NVB=   207

 **** Warning!!: The largest alpha MO coefficient is  0.42591936D+02

    12 initial guesses have been made.
 Iteration     1 Dimension    12 NMult     0 NNew     12
 Iteration     2 Dimension    24 NMult    12 NNew     12
 Iteration     3 Dimension    27 NMult    24 NNew      3
 Iteration     4 Dimension    30 NMult    27 NNew      3
 Iteration     5 Dimension    33 NMult    30 NNew      3
 Iteration     6 Dimension    36 NMult    33 NNew      3
 Iteration     7 Dimension    39 NMult    36 NNew      3
 ***********************************************************************
 Stability analysis using <AA,BB:AA,BB> singles matrix:
 ***********************************************************************
 Ground to excited state transition densities written to RWF  633

 Eigenvectors of the stability matrix:
 
 Excited state symmetry could not be determined.
 Eigenvector   1:      Singlet-?Sym  Eigenvalue= 0.1463494  <S**2>=0.000
      26 -> 29         0.35282
      26 -> 32         0.10689
      26 -> 34         0.38679
      26 -> 35        -0.20473
      26 -> 37        -0.20393
 The wavefunction is stable under the perturbations considered.
 The wavefunction is already stable.

 **********************************************************************

            Population analysis using the SCF Density.

 **********************************************************************

 Alpha  occ. eigenvalues --  -15.66308 -15.51415 -11.32440 -11.31769 -11.30766
 Alpha  occ. eigenvalues --  -11.26072 -11.25953  -1.37486  -1.20764  -1.05532
 Alpha  occ. eigenvalues --   -1.00476  -0.91119  -0.80442  -0.78790  -0.72027
 Alpha  occ. eigenvalues --   -0.67873  -0.63872  -0.62291  -0.60164  -0.58771
 Alpha  occ. eigenvalues --   -0.54458  -0.53018  -0.44795  -0.39410  -0.34296
 Alpha  occ. eigenvalues --   -0.27420
 Alpha virt. eigenvalues --    0.02307   0.03716   0.04342   0.04853   0.06027
 Alpha virt. eigenvalues --    0.06677   0.07471   0.08410   0.08996   0.09907
 Alpha virt. eigenvalues --    0.10612   0.11683   0.13030   0.13485   0.13754
 Alpha virt. eigenvalues --    0.14525   0.14762   0.15483   0.15804   0.16035
 Alpha virt. eigenvalues --    0.17016   0.17877   0.18636   0.18700   0.19044
 Alpha virt. eigenvalues --    0.19972   0.21065   0.22808   0.24843   0.24924
 Alpha virt. eigenvalues --    0.25581   0.26680   0.27963   0.28766   0.30743
 Alpha virt. eigenvalues --    0.31420   0.31606   0.32413   0.33198   0.34356
 Alpha virt. eigenvalues --    0.35723   0.36024   0.37572   0.38889   0.39624
 Alpha virt. eigenvalues --    0.40360   0.41058   0.41645   0.42257   0.43340
 Alpha virt. eigenvalues --    0.43623   0.45108   0.46229   0.46565   0.47697
 Alpha virt. eigenvalues --    0.49894   0.50951   0.52276   0.52760   0.53693
 Alpha virt. eigenvalues --    0.54722   0.55723   0.56636   0.57280   0.57734
 Alpha virt. eigenvalues --    0.58260   0.59533   0.59934   0.61155   0.62348
 Alpha virt. eigenvalues --    0.63561   0.64026   0.64819   0.65107   0.66059
 Alpha virt. eigenvalues --    0.67147   0.68169   0.69538   0.69757   0.70783
 Alpha virt. eigenvalues --    0.71460   0.72752   0.74096   0.74565   0.75268
 Alpha virt. eigenvalues --    0.76574   0.77268   0.78216   0.78560   0.80633
 Alpha virt. eigenvalues --    0.80753   0.82770   0.83791   0.85426   0.86056
 Alpha virt. eigenvalues --    0.87864   0.88473   0.90120   0.91530   0.94349
 Alpha virt. eigenvalues --    0.96430   0.97717   0.99158   0.99835   1.01246
 Alpha virt. eigenvalues --    1.03442   1.03909   1.06465   1.07881   1.09927
 Alpha virt. eigenvalues --    1.12721   1.16825   1.17544   1.19999   1.20981
 Alpha virt. eigenvalues --    1.22220   1.23336   1.25783   1.26681   1.29112
 Alpha virt. eigenvalues --    1.32226   1.36028   1.37709   1.40002   1.43633
 Alpha virt. eigenvalues --    1.45163   1.48952   1.49771   1.53020   1.53450
 Alpha virt. eigenvalues --    1.59589   1.61028   1.65754   1.66422   1.68608
 Alpha virt. eigenvalues --    1.70876   1.74290   1.74757   1.76700   1.79836
 Alpha virt. eigenvalues --    1.81545   1.81801   1.82558   1.85468   1.85887
 Alpha virt. eigenvalues --    1.88291   1.90166   1.91547   1.93045   1.96653
 Alpha virt. eigenvalues --    2.00659   2.04268   2.05243   2.06461   2.07399
 Alpha virt. eigenvalues --    2.10119   2.12728   2.14188   2.15983   2.17328
 Alpha virt. eigenvalues --    2.18113   2.20097   2.21950   2.23803   2.24405
 Alpha virt. eigenvalues --    2.29649   2.32254   2.34310   2.37139   2.38178
 Alpha virt. eigenvalues --    2.41423   2.44506   2.46689   2.48078   2.50983
 Alpha virt. eigenvalues --    2.51881   2.52966   2.57061   2.57959   2.61602
 Alpha virt. eigenvalues --    2.64530   2.66371   2.68152   2.70416   2.74611
 Alpha virt. eigenvalues --    2.79813   2.82565   2.84438   2.88362   2.89189
 Alpha virt. eigenvalues --    2.93202   2.97177   2.99115   3.01605   3.03315
 Alpha virt. eigenvalues --    3.10840   3.13429   3.21506   3.23492   3.30705
 Alpha virt. eigenvalues --    3.34922   3.36184   3.39731   3.45392   3.64928
 Alpha virt. eigenvalues --    3.69519   3.91651
          Condensed to atoms (all electrons):
 Mulliken charges:
               1
     1  C    0.774381
     2  N   -0.623326
     3  C    0.445792
     4  N   -0.852077
     5  C   -0.075496
     6  C    0.765040
     7  C    0.719638
     8  H   -0.053714
     9  H   -0.198989
    10  H   -0.062822
    11  H   -0.259671
    12  H   -0.228915
    13  H    0.216300
    14  H   -0.287480
    15  H   -0.278660
 Sum of Mulliken charges =  -0.00000
 Mulliken charges with hydrogens summed into heavy atoms:
               1
     1  C    0.458856
     2  N   -0.623326
     3  C    0.402420
     4  N   -0.852077
     5  C   -0.075496
     6  C    0.248645
     7  C    0.440979
 Electronic spatial extent (au):  <R**2>=            697.8089
 Charge=              0.0000 electrons
 Dipole moment (field-independent basis, Debye):
    X=             -4.0630    Y=              0.6365    Z=             -4.1025  Tot=              5.8089
 Unable to Open any file for archive entry.
 1\1\GINC-SE168\Stability\RHF\Aug-CC-pVDZ\C5H8N2\OHZDE\09-Apr-2025\0\\#
 t hf aug-cc-pvdz symm=none int=(grid=ultrafine) guess=(read,tcheck) st
 able=(opt,rrhf)\\title\\0,1\C,0,-2.07050684,-0.03310404,-0.52573349\N,
 0,-0.76346961,0.27007832,0.00945256\C,0,-0.22840473,-0.27182577,1.2346
 9505\N,0,0.88404019,0.35499576,1.56721124\C,0,1.34461519,0.68076684,0.
 31411809\C,0,2.23360836,-0.25560287,-0.21422991\C,0,0.22940837,0.89160
 617,-0.55971344\H,0,-2.8452267,0.47938146,0.04536361\H,0,-2.12488922,0
 .27745297,-1.56746633\H,0,-2.23091431,-1.10970726,-0.47036363\H,0,-0.9
 4768994,-0.68421832,1.93532856\H,0,2.86610673,-0.80865332,0.46759262\H
 ,0,0.66107099,-1.34220456,0.276488\H,0,2.54146053,-0.21839842,-1.25438
 128\H,0,0.20158098,1.23604205,-1.58332567\\Version=ES64L-G16RevC.01\HF
 =-302.6975277\RMSD=3.909e-09\Dipole=-1.5985027,0.2504353,-1.6140574\Qu
 adrupole=4.1859043,-2.883797,-1.3021073,-0.5116573,-3.1492492,-3.32166
 59\PG=Unknown\\@
 The archive entry for this job was punched.


 I (ERNEST RUTHERFORD) CAME INTO THE ROOM, WHICH WAS HALF DARK, AND PRESENTLY
 SPOTTED LORD KELVIN IN THE AUDIENCE AND REALIZED I WAS IN TROUBLE AT
 THE LAST PART OF MY SPEECH DEALING THE AGE OF THE EARTH, WHERE MY VIEWS
 CONFLICTED WITH HIS.  TO MY RELIEF KELVIN FELL FAST ASLEEP, BUT AS I CAME
 TO THE IMPORTANT POINT, I SAW THE OLD BIRD SIT UP AND COCK A BALEFUL GLANCE
 AT ME! THEN A SUDDEN INSPIRATION CAME AND I SAID LORD KELVIN HAD LIMITED
 THE AGE OF THE EARTH PROVIDED NO NEW SOURCE WAS DISCOVERED. THAT
 PROPHETIC UTTERANCE REFERS TO WHAT WE ARE NOW CONSIDERING TONIGHT, RADIUM!
 BEHOLD!  THE OLD BOY BEAMED UPON ME.
 Job cpu time:       0 days  0 hours  8 minutes 40.4 seconds.
 Elapsed time:       0 days  0 hours  0 minutes 37.2 seconds.
 File lengths (MBytes):  RWF=    239 Int=      0 D2E=      0 Chk=      8 Scr=      1
 Normal termination of Gaussian 16 at Wed Apr  9 18:31:51 2025.
 Initial command:
 /arc/software/Gaussian/g16.c01/l1.exe "/tmp/slurm/4881323/Gau-3707090.inp" -scrdir="/tmp/slurm/4881323/"
 Entering Link 1 = /arc/software/Gaussian/g16.c01/l1.exe PID=   3707323.
  
 Copyright (c) 1988-2019, Gaussian, Inc.  All Rights Reserved.
  
 This is part of the Gaussian(R) 16 program.  It is based on
 the Gaussian(R) 09 system (copyright 2009, Gaussian, Inc.),
 the Gaussian(R) 03 system (copyright 2003, Gaussian, Inc.),
 the Gaussian(R) 98 system (copyright 1998, Gaussian, Inc.),
 the Gaussian(R) 94 system (copyright 1995, Gaussian, Inc.),
 the Gaussian 92(TM) system (copyright 1992, Gaussian, Inc.),
 the Gaussian 90(TM) system (copyright 1990, Gaussian, Inc.),
 the Gaussian 88(TM) system (copyright 1988, Gaussian, Inc.),
 the Gaussian 86(TM) system (copyright 1986, Carnegie Mellon
 University), and the Gaussian 82(TM) system (copyright 1983,
 Carnegie Mellon University). Gaussian is a federally registered
 trademark of Gaussian, Inc.
  
 This software contains proprietary and confidential information,
 including trade secrets, belonging to Gaussian, Inc.
  
 This software is provided under written license and may be
 used, copied, transmitted, or stored only in accord with that
 written license.
  
 The following legend is applicable only to US Government
 contracts under FAR:
  
                    RESTRICTED RIGHTS LEGEND
  
 Use, reproduction and disclosure by the US Government is
 subject to restrictions as set forth in subparagraphs (a)
 and (c) of the Commercial Computer Software - Restricted
 Rights clause in FAR 52.227-19.
  
 Gaussian, Inc.
 340 Quinnipiac St., Bldg. 40, Wallingford CT 06492
  
  
 ---------------------------------------------------------------
 Warning -- This program may not be used in any manner that
 competes with the business of Gaussian, Inc. or will provide
 assistance to any competitor of Gaussian, Inc.  The licensee
 of this program is prohibited from giving any competitor of
 Gaussian, Inc. access to this program.  By using this program,
 the user acknowledges that Gaussian, Inc. is engaged in the
 business of creating and licensing software in the field of
 computational chemistry and represents and warrants to the
 licensee that it is not a competitor of Gaussian, Inc. and that
 it will not use this program in any manner prohibited above.
 ---------------------------------------------------------------
  

 Cite this work as:
 Gaussian 16, Revision C.01,
 M. J. Frisch, G. W. Trucks, H. B. Schlegel, G. E. Scuseria, 
 M. A. Robb, J. R. Cheeseman, G. Scalmani, V. Barone, 
 G. A. Petersson, H. Nakatsuji, X. Li, M. Caricato, A. V. Marenich, 
 J. Bloino, B. G. Janesko, R. Gomperts, B. Mennucci, H. P. Hratchian, 
 J. V. Ortiz, A. F. Izmaylov, J. L. Sonnenberg, D. Williams-Young, 
 F. Ding, F. Lipparini, F. Egidi, J. Goings, B. Peng, A. Petrone, 
 T. Henderson, D. Ranasinghe, V. G. Zakrzewski, J. Gao, N. Rega, 
 G. Zheng, W. Liang, M. Hada, M. Ehara, K. Toyota, R. Fukuda, 
 J. Hasegawa, M. Ishida, T. Nakajima, Y. Honda, O. Kitao, H. Nakai, 
 T. Vreven, K. Throssell, J. A. Montgomery, Jr., J. E. Peralta, 
 F. Ogliaro, M. J. Bearpark, J. J. Heyd, E. N. Brothers, K. N. Kudin, 
 V. N. Staroverov, T. A. Keith, R. Kobayashi, J. Normand, 
 K. Raghavachari, A. P. Rendell, J. C. Burant, S. S. Iyengar, 
 J. Tomasi, M. Cossi, J. M. Millam, M. Klene, C. Adamo, R. Cammi, 
 J. W. Ochterski, R. L. Martin, K. Morokuma, O. Farkas, 
 J. B. Foresman, and D. J. Fox, Gaussian, Inc., Wallingford CT, 2019.
 
 ******************************************
 Gaussian 16:  ES64L-G16RevC.01  3-Jul-2019
                 9-Apr-2025 
 ******************************************
 %nprocs=16
 Will use up to   16 processors via shared memory.
 %mem=30GB
 %chk=Grambow2020_wb97xd3_007232_reverse_mol1.chk
 ----------------------------------------------------------------------
 #t hf aug-cc-pvdz iop(5/13=1,5/36=2,99/5=2) pseudo=read geom=check gue
 ss=(read,tcheck) scf=(maxcycle=1)
 ----------------------------------------------------------------------
 -----
 title
 -----
 Structure from the checkpoint file:  "Grambow2020_wb97xd3_007232_reverse_mol1.chk"
 Charge =  0 Multiplicity = 1
 Z-Matrix found in chk file.
 C,0,-2.07050684,-0.03310404,-0.52573349
 N,0,-0.76346961,0.27007832,0.00945256
 C,0,-0.22840473,-0.27182577,1.23469505
 N,0,0.88404019,0.35499576,1.56721124
 C,0,1.34461519,0.68076684,0.31411809
 C,0,2.23360836,-0.25560287,-0.21422991
 C,0,0.22940837,0.89160617,-0.55971344
 H,0,-2.8452267,0.47938146,0.04536361
 H,0,-2.12488922,0.27745297,-1.56746633
 H,0,-2.23091431,-1.10970726,-0.47036363
 H,0,-0.94768994,-0.68421832,1.93532856
 H,0,2.86610673,-0.80865332,0.46759262
 H,0,0.66107099,-1.34220456,0.276488
 H,0,2.54146053,-0.21839842,-1.25438128
 H,0,0.20158098,1.23604205,-1.58332567
 Recover connectivity data from disk.
                    Distance matrix (angstroms):
                    1          2          3          4          5
     1  C    0.000000
     2  N    1.444538   0.000000
     3  C    2.559187   1.442627   0.000000
     4  N    3.641481   2.268945   1.319472   0.000000
     5  C    3.588596   2.169218   2.056523   1.374227   0.000000
     6  C    4.321105   3.051041   2.856774   2.316829   1.395080
     7  C    2.479083   1.302326   2.187023   2.289171   1.432383
     8  H    1.090405   2.092561   2.970956   4.029755   4.203280
     9  H    1.088398   2.083312   3.427896   4.345788   3.967428
    10  H    1.089895   2.070610   2.760311   4.000001   4.074999
    11  H    2.782354   2.157225   1.085507   2.137922   3.121886
    12  H    5.094931   3.814103   3.233053   2.547907   2.134681
    13  H    3.133500   2.167967   1.689686   2.143868   2.135664
    14  H    4.672848   3.571897   3.724313   3.322229   2.168208
    15  H    2.809202   2.097940   3.224871   3.341837   2.283670
                    6          7          8          9         10
     6  C    0.000000
     7  C    2.335009   0.000000
     8  H    5.138303   3.160606   0.000000
     9  H    4.594769   2.633528   1.777887   0.000000
    10  H    4.552698   3.172763   1.780044   1.771747   0.000000
    11  H    3.863285   3.177108   2.920030   3.818400   2.759540
    12  H    1.082036   3.301275   5.869978   5.498284   5.191341
    13  H    1.973419   2.423938   3.957994   3.712820   2.995901
    14  H    1.085390   2.657115   5.585037   4.703053   4.917792
    15  H    2.868547   1.080367   3.536694   2.516269   3.557845
                   11         12         13         14         15
    11  H    0.000000
    12  H    4.088371   0.000000
    13  H    2.402667   2.276704   0.000000
    14  H    4.750306   1.849051   2.672520   0.000000
    15  H    4.170030   3.935320   3.212070   2.774642   0.000000
 Framework group  C1[X(C5H8N2)]
 Deg. of freedom    39
                         Standard orientation:                         
 ---------------------------------------------------------------------
 Center     Atomic      Atomic             Coordinates (Angstroms)
 Number     Number       Type             X           Y           Z
 ---------------------------------------------------------------------
      1          6           0       -2.315616   -0.299279    0.246458
      2          7           0       -0.936071   -0.055713   -0.105993
      3          6           0       -0.205490    1.148219    0.207012
      4          7           0        0.949624    1.163685   -0.430544
      5          6           0        1.194990   -0.187189   -0.489139
      6          6           0        1.978815   -0.657916    0.564561
      7          6           0       -0.050018   -0.891125   -0.567567
      8          1           0       -2.981431    0.277951   -0.395788
      9          1           0       -2.542545   -1.358667    0.142488
     10          1           0       -2.469070   -0.006518    1.285021
     11          1           0       -0.798891    2.024581    0.448241
     12          1           0        2.714299    0.007078    0.997746
     13          1           0        0.506173    0.288471    1.475636
     14          1           0        2.108087   -1.720915    0.741741
     15          1           0       -0.247586   -1.944045   -0.707278
 ---------------------------------------------------------------------
 Rotational constants (GHZ):           5.9760225           2.4186759           2.0036135
 ======================================================================================================
                                       Pseudopotential Parameters
 ======================================================================================================
  Center     Atomic      Valence      Angular      Power
  Number     Number     Electrons     Momentum     of R      Exponent        Coefficient   SO-Coeffient
 ======================================================================================================
    1          6            6
                                      G and up 
                                                     0        0.0000010       -0.00286759    0.00000000
                                                     2        0.1200000        0.03193960    0.00000000
                                                     2        0.1600000       -0.04027782    0.00000000
                                                     2        0.2600000        0.24782456    0.00000000
                                                     2        0.4000000       -0.62266671    0.00000000
                                                     2        0.7000000        0.35695227    0.00000000
                                      S - G
                                                     0        0.0000010       -0.06602313    0.00000000
                                                     2        0.1200000        1.47277455    0.00000000
                                                     2        0.1600000       -4.06924166    0.00000000
                                                     2        0.3000000        5.02952802    0.00000000
                                                     2        0.7000000       -5.65856978    0.00000000
                                                     2        1.7000000        8.57604414    0.00000000
                                      P - G
                                                     0        0.0000010        0.49434425    0.00000000
                                                     2        0.1200000       -1.37391547    0.00000000
                                                     2        0.1600000        3.65411806    0.00000000
                                                     2        0.2800000       -7.36479843    0.00000000
                                                     2        0.6000000       17.22091285    0.00000000
                                                     2        1.1000000      -23.50107827    0.00000000
                                                     2        3.0000000       16.29464063    0.00000000
                                      D - G
                                                     0        0.0000010       -0.28693103    0.00000000
                                                     2        0.1200000        0.12273044    0.00000000
                                                     2        0.3000000       -0.43416384    0.00000000
                                                     2        0.7000000        2.23358493    0.00000000
                                      F - G
                                                     0        0.0000010        0.07263570    0.00000000
                                                     2        0.1400000       -0.76152861    0.00000000
                                                     2        0.2200000        1.98045593    0.00000000
                                                     2        0.4000000       -2.42426427    0.00000000
                                                     2        0.7000000        0.52335237    0.00000000
    2          7            7
                                      G and up 
                                                     0        0.0000010        0.00420138    0.00000000
                                                     2        0.1200000        0.05872431    0.00000000
                                                     2        0.1400000       -0.08436978    0.00000000
                                                     2        0.2000000        0.05409159    0.00000000
                                                     2        0.2600000        0.14199713    0.00000000
                                                     2        0.6000000       -0.79062770    0.00000000
                                                     2        0.7000000       -0.14441060    0.00000000
                                                     2        1.5000000        0.73772979    0.00000000
                                      S - G
                                                     0        0.0000010       -0.03094411    0.00000000
                                                     2        0.1200000        0.65332522    0.00000000
                                                     2        0.1800000       -1.38149133    0.00000000
                                                     2        1.3000000        3.29267299    0.00000000
                                      P - G
                                                     0        0.0000010        0.07303105    0.00000000
                                                     2        0.1200000        0.23145115    0.00000000
                                                     2        0.2000000       -1.20679699    0.00000000
                                                     2        0.4000000        1.75088447    0.00000000
                                                     2        1.2000000       -0.67486559    0.00000000
                                      D - G
                                                     0        0.0000010        0.07560739    0.00000000
                                                     2        0.3000000       -0.68679114    0.00000000
                                                     2        0.9000000        3.60133241    0.00000000
                                      F - G
                                                     0        0.0000010       -0.18221184    0.00000000
                                                     2        0.1200000       -0.39369067    0.00000000
                                                     2        0.1800000        0.72091725    0.00000000
                                                     2        0.6000000        0.15946111    0.00000000
    3          6            6
                                      G and up 
                                                     0        0.0000010       -0.00286759    0.00000000
                                                     2        0.1200000        0.03193960    0.00000000
                                                     2        0.1600000       -0.04027782    0.00000000
                                                     2        0.2600000        0.24782456    0.00000000
                                                     2        0.4000000       -0.62266671    0.00000000
                                                     2        0.7000000        0.35695227    0.00000000
                                      S - G
                                                     0        0.0000010       -0.06602313    0.00000000
                                                     2        0.1200000        1.47277455    0.00000000
                                                     2        0.1600000       -4.06924166    0.00000000
                                                     2        0.3000000        5.02952802    0.00000000
                                                     2        0.7000000       -5.65856978    0.00000000
                                                     2        1.7000000        8.57604414    0.00000000
                                      P - G
                                                     0        0.0000010        0.49434425    0.00000000
                                                     2        0.1200000       -1.37391547    0.00000000
                                                     2        0.1600000        3.65411806    0.00000000
                                                     2        0.2800000       -7.36479843    0.00000000
                                                     2        0.6000000       17.22091285    0.00000000
                                                     2        1.1000000      -23.50107827    0.00000000
                                                     2        3.0000000       16.29464063    0.00000000
                                      D - G
                                                     0        0.0000010       -0.28693103    0.00000000
                                                     2        0.1200000        0.12273044    0.00000000
                                                     2        0.3000000       -0.43416384    0.00000000
                                                     2        0.7000000        2.23358493    0.00000000
                                      F - G
                                                     0        0.0000010        0.07263570    0.00000000
                                                     2        0.1400000       -0.76152861    0.00000000
                                                     2        0.2200000        1.98045593    0.00000000
                                                     2        0.4000000       -2.42426427    0.00000000
                                                     2        0.7000000        0.52335237    0.00000000
    4          7            7
                                      G and up 
                                                     0        0.0000010        0.00420138    0.00000000
                                                     2        0.1200000        0.05872431    0.00000000
                                                     2        0.1400000       -0.08436978    0.00000000
                                                     2        0.2000000        0.05409159    0.00000000
                                                     2        0.2600000        0.14199713    0.00000000
                                                     2        0.6000000       -0.79062770    0.00000000
                                                     2        0.7000000       -0.14441060    0.00000000
                                                     2        1.5000000        0.73772979    0.00000000
                                      S - G
                                                     0        0.0000010       -0.03094411    0.00000000
                                                     2        0.1200000        0.65332522    0.00000000
                                                     2        0.1800000       -1.38149133    0.00000000
                                                     2        1.3000000        3.29267299    0.00000000
                                      P - G
                                                     0        0.0000010        0.07303105    0.00000000
                                                     2        0.1200000        0.23145115    0.00000000
                                                     2        0.2000000       -1.20679699    0.00000000
                                                     2        0.4000000        1.75088447    0.00000000
                                                     2        1.2000000       -0.67486559    0.00000000
                                      D - G
                                                     0        0.0000010        0.07560739    0.00000000
                                                     2        0.3000000       -0.68679114    0.00000000
                                                     2        0.9000000        3.60133241    0.00000000
                                      F - G
                                                     0        0.0000010       -0.18221184    0.00000000
                                                     2        0.1200000       -0.39369067    0.00000000
                                                     2        0.1800000        0.72091725    0.00000000
                                                     2        0.6000000        0.15946111    0.00000000
    5          6            6
                                      G and up 
                                                     0        0.0000010       -0.00286759    0.00000000
                                                     2        0.1200000        0.03193960    0.00000000
                                                     2        0.1600000       -0.04027782    0.00000000
                                                     2        0.2600000        0.24782456    0.00000000
                                                     2        0.4000000       -0.62266671    0.00000000
                                                     2        0.7000000        0.35695227    0.00000000
                                      S - G
                                                     0        0.0000010       -0.06602313    0.00000000
                                                     2        0.1200000        1.47277455    0.00000000
                                                     2        0.1600000       -4.06924166    0.00000000
                                                     2        0.3000000        5.02952802    0.00000000
                                                     2        0.7000000       -5.65856978    0.00000000
                                                     2        1.7000000        8.57604414    0.00000000
                                      P - G
                                                     0        0.0000010        0.49434425    0.00000000
                                                     2        0.1200000       -1.37391547    0.00000000
                                                     2        0.1600000        3.65411806    0.00000000
                                                     2        0.2800000       -7.36479843    0.00000000
                                                     2        0.6000000       17.22091285    0.00000000
                                                     2        1.1000000      -23.50107827    0.00000000
                                                     2        3.0000000       16.29464063    0.00000000
                                      D - G
                                                     0        0.0000010       -0.28693103    0.00000000
                                                     2        0.1200000        0.12273044    0.00000000
                                                     2        0.3000000       -0.43416384    0.00000000
                                                     2        0.7000000        2.23358493    0.00000000
                                      F - G
                                                     0        0.0000010        0.07263570    0.00000000
                                                     2        0.1400000       -0.76152861    0.00000000
                                                     2        0.2200000        1.98045593    0.00000000
                                                     2        0.4000000       -2.42426427    0.00000000
                                                     2        0.7000000        0.52335237    0.00000000
    6          6            6
                                      G and up 
                                                     0        0.0000010       -0.00286759    0.00000000
                                                     2        0.1200000        0.03193960    0.00000000
                                                     2        0.1600000       -0.04027782    0.00000000
                                                     2        0.2600000        0.24782456    0.00000000
                                                     2        0.4000000       -0.62266671    0.00000000
                                                     2        0.7000000        0.35695227    0.00000000
                                      S - G
                                                     0        0.0000010       -0.06602313    0.00000000
                                                     2        0.1200000        1.47277455    0.00000000
                                                     2        0.1600000       -4.06924166    0.00000000
                                                     2        0.3000000        5.02952802    0.00000000
                                                     2        0.7000000       -5.65856978    0.00000000
                                                     2        1.7000000        8.57604414    0.00000000
                                      P - G
                                                     0        0.0000010        0.49434425    0.00000000
                                                     2        0.1200000       -1.37391547    0.00000000
                                                     2        0.1600000        3.65411806    0.00000000
                                                     2        0.2800000       -7.36479843    0.00000000
                                                     2        0.6000000       17.22091285    0.00000000
                                                     2        1.1000000      -23.50107827    0.00000000
                                                     2        3.0000000       16.29464063    0.00000000
                                      D - G
                                                     0        0.0000010       -0.28693103    0.00000000
                                                     2        0.1200000        0.12273044    0.00000000
                                                     2        0.3000000       -0.43416384    0.00000000
                                                     2        0.7000000        2.23358493    0.00000000
                                      F - G
                                                     0        0.0000010        0.07263570    0.00000000
                                                     2        0.1400000       -0.76152861    0.00000000
                                                     2        0.2200000        1.98045593    0.00000000
                                                     2        0.4000000       -2.42426427    0.00000000
                                                     2        0.7000000        0.52335237    0.00000000
    7          6            6
                                      G and up 
                                                     0        0.0000010       -0.00286759    0.00000000
                                                     2        0.1200000        0.03193960    0.00000000
                                                     2        0.1600000       -0.04027782    0.00000000
                                                     2        0.2600000        0.24782456    0.00000000
                                                     2        0.4000000       -0.62266671    0.00000000
                                                     2        0.7000000        0.35695227    0.00000000
                                      S - G
                                                     0        0.0000010       -0.06602313    0.00000000
                                                     2        0.1200000        1.47277455    0.00000000
                                                     2        0.1600000       -4.06924166    0.00000000
                                                     2        0.3000000        5.02952802    0.00000000
                                                     2        0.7000000       -5.65856978    0.00000000
                                                     2        1.7000000        8.57604414    0.00000000
                                      P - G
                                                     0        0.0000010        0.49434425    0.00000000
                                                     2        0.1200000       -1.37391547    0.00000000
                                                     2        0.1600000        3.65411806    0.00000000
                                                     2        0.2800000       -7.36479843    0.00000000
                                                     2        0.6000000       17.22091285    0.00000000
                                                     2        1.1000000      -23.50107827    0.00000000
                                                     2        3.0000000       16.29464063    0.00000000
                                      D - G
                                                     0        0.0000010       -0.28693103    0.00000000
                                                     2        0.1200000        0.12273044    0.00000000
                                                     2        0.3000000       -0.43416384    0.00000000
                                                     2        0.7000000        2.23358493    0.00000000
                                      F - G
                                                     0        0.0000010        0.07263570    0.00000000
                                                     2        0.1400000       -0.76152861    0.00000000
                                                     2        0.2200000        1.98045593    0.00000000
                                                     2        0.4000000       -2.42426427    0.00000000
                                                     2        0.7000000        0.52335237    0.00000000
    8          1            1
                                      F and up 
                                                     0        0.0000010        0.00072061    0.00000000
                                                     2        0.1200000        0.03832357    0.00000000
                                                     2        0.1400000       -0.08683256    0.00000000
                                                     2        0.1800000        0.09312970    0.00000000
                                                     2        0.2800000       -0.02532572    0.00000000
                                                     2        0.4000000       -0.09430787    0.00000000
                                                     2        0.7000000        0.42710831    0.00000000
                                                     2        1.2000000       -2.11746981    0.00000000
                                      S - F
                                                     0        0.0000010        0.14449603    0.00000000
                                                     2        0.1200000       -0.56378993    0.00000000
                                                     2        0.1400000        0.63941249    0.00000000
                                                     2        0.2600000       -0.58461015    0.00000000
                                                     2        0.5000000        1.00157293    0.00000000
                                                     2        1.8000000       -0.14135838    0.00000000
                                      P - F
                                                     0        0.0000010       -0.09353646    0.00000000
                                                     2        0.1200000        0.31768975    0.00000000
                                                     2        0.2000000       -0.71747951    0.00000000
                                                     2        0.4000000        0.65752308    0.00000000
                                                     2        1.7000000        2.94052587    0.00000000
                                      D - F
                                                     0        0.0000010       -0.04491202    0.00000000
                                                     2        0.1200000       -0.02862031    0.00000000
                                                     2        0.1800000       -0.21515263    0.00000000
                                                     2        0.3000000        0.80560647    0.00000000
                                                     2        0.4000000        0.47351754    0.00000000
                                                     2        0.7000000       -4.57051794    0.00000000
                                                     2        1.6000000       18.53737826    0.00000000
    9          1            1
                                      F and up 
                                                     0        0.0000010        0.00072061    0.00000000
                                                     2        0.1200000        0.03832357    0.00000000
                                                     2        0.1400000       -0.08683256    0.00000000
                                                     2        0.1800000        0.09312970    0.00000000
                                                     2        0.2800000       -0.02532572    0.00000000
                                                     2        0.4000000       -0.09430787    0.00000000
                                                     2        0.7000000        0.42710831    0.00000000
                                                     2        1.2000000       -2.11746981    0.00000000
                                      S - F
                                                     0        0.0000010        0.14449603    0.00000000
                                                     2        0.1200000       -0.56378993    0.00000000
                                                     2        0.1400000        0.63941249    0.00000000
                                                     2        0.2600000       -0.58461015    0.00000000
                                                     2        0.5000000        1.00157293    0.00000000
                                                     2        1.8000000       -0.14135838    0.00000000
                                      P - F
                                                     0        0.0000010       -0.09353646    0.00000000
                                                     2        0.1200000        0.31768975    0.00000000
                                                     2        0.2000000       -0.71747951    0.00000000
                                                     2        0.4000000        0.65752308    0.00000000
                                                     2        1.7000000        2.94052587    0.00000000
                                      D - F
                                                     0        0.0000010       -0.04491202    0.00000000
                                                     2        0.1200000       -0.02862031    0.00000000
                                                     2        0.1800000       -0.21515263    0.00000000
                                                     2        0.3000000        0.80560647    0.00000000
                                                     2        0.4000000        0.47351754    0.00000000
                                                     2        0.7000000       -4.57051794    0.00000000
                                                     2        1.6000000       18.53737826    0.00000000
   10          1            1
                                      F and up 
                                                     0        0.0000010        0.00072061    0.00000000
                                                     2        0.1200000        0.03832357    0.00000000
                                                     2        0.1400000       -0.08683256    0.00000000
                                                     2        0.1800000        0.09312970    0.00000000
                                                     2        0.2800000       -0.02532572    0.00000000
                                                     2        0.4000000       -0.09430787    0.00000000
                                                     2        0.7000000        0.42710831    0.00000000
                                                     2        1.2000000       -2.11746981    0.00000000
                                      S - F
                                                     0        0.0000010        0.14449603    0.00000000
                                                     2        0.1200000       -0.56378993    0.00000000
                                                     2        0.1400000        0.63941249    0.00000000
                                                     2        0.2600000       -0.58461015    0.00000000
                                                     2        0.5000000        1.00157293    0.00000000
                                                     2        1.8000000       -0.14135838    0.00000000
                                      P - F
                                                     0        0.0000010       -0.09353646    0.00000000
                                                     2        0.1200000        0.31768975    0.00000000
                                                     2        0.2000000       -0.71747951    0.00000000
                                                     2        0.4000000        0.65752308    0.00000000
                                                     2        1.7000000        2.94052587    0.00000000
                                      D - F
                                                     0        0.0000010       -0.04491202    0.00000000
                                                     2        0.1200000       -0.02862031    0.00000000
                                                     2        0.1800000       -0.21515263    0.00000000
                                                     2        0.3000000        0.80560647    0.00000000
                                                     2        0.4000000        0.47351754    0.00000000
                                                     2        0.7000000       -4.57051794    0.00000000
                                                     2        1.6000000       18.53737826    0.00000000
   11          1            1
                                      F and up 
                                                     0        0.0000010        0.00072061    0.00000000
                                                     2        0.1200000        0.03832357    0.00000000
                                                     2        0.1400000       -0.08683256    0.00000000
                                                     2        0.1800000        0.09312970    0.00000000
                                                     2        0.2800000       -0.02532572    0.00000000
                                                     2        0.4000000       -0.09430787    0.00000000
                                                     2        0.7000000        0.42710831    0.00000000
                                                     2        1.2000000       -2.11746981    0.00000000
                                      S - F
                                                     0        0.0000010        0.14449603    0.00000000
                                                     2        0.1200000       -0.56378993    0.00000000
                                                     2        0.1400000        0.63941249    0.00000000
                                                     2        0.2600000       -0.58461015    0.00000000
                                                     2        0.5000000        1.00157293    0.00000000
                                                     2        1.8000000       -0.14135838    0.00000000
                                      P - F
                                                     0        0.0000010       -0.09353646    0.00000000
                                                     2        0.1200000        0.31768975    0.00000000
                                                     2        0.2000000       -0.71747951    0.00000000
                                                     2        0.4000000        0.65752308    0.00000000
                                                     2        1.7000000        2.94052587    0.00000000
                                      D - F
                                                     0        0.0000010       -0.04491202    0.00000000
                                                     2        0.1200000       -0.02862031    0.00000000
                                                     2        0.1800000       -0.21515263    0.00000000
                                                     2        0.3000000        0.80560647    0.00000000
                                                     2        0.4000000        0.47351754    0.00000000
                                                     2        0.7000000       -4.57051794    0.00000000
                                                     2        1.6000000       18.53737826    0.00000000
   12          1            1
                                      F and up 
                                                     0        0.0000010        0.00072061    0.00000000
                                                     2        0.1200000        0.03832357    0.00000000
                                                     2        0.1400000       -0.08683256    0.00000000
                                                     2        0.1800000        0.09312970    0.00000000
                                                     2        0.2800000       -0.02532572    0.00000000
                                                     2        0.4000000       -0.09430787    0.00000000
                                                     2        0.7000000        0.42710831    0.00000000
                                                     2        1.2000000       -2.11746981    0.00000000
                                      S - F
                                                     0        0.0000010        0.14449603    0.00000000
                                                     2        0.1200000       -0.56378993    0.00000000
                                                     2        0.1400000        0.63941249    0.00000000
                                                     2        0.2600000       -0.58461015    0.00000000
                                                     2        0.5000000        1.00157293    0.00000000
                                                     2        1.8000000       -0.14135838    0.00000000
                                      P - F
                                                     0        0.0000010       -0.09353646    0.00000000
                                                     2        0.1200000        0.31768975    0.00000000
                                                     2        0.2000000       -0.71747951    0.00000000
                                                     2        0.4000000        0.65752308    0.00000000
                                                     2        1.7000000        2.94052587    0.00000000
                                      D - F
                                                     0        0.0000010       -0.04491202    0.00000000
                                                     2        0.1200000       -0.02862031    0.00000000
                                                     2        0.1800000       -0.21515263    0.00000000
                                                     2        0.3000000        0.80560647    0.00000000
                                                     2        0.4000000        0.47351754    0.00000000
                                                     2        0.7000000       -4.57051794    0.00000000
                                                     2        1.6000000       18.53737826    0.00000000
   13          1            1
                                      F and up 
                                                     0        0.0000010        0.00072061    0.00000000
                                                     2        0.1200000        0.03832357    0.00000000
                                                     2        0.1400000       -0.08683256    0.00000000
                                                     2        0.1800000        0.09312970    0.00000000
                                                     2        0.2800000       -0.02532572    0.00000000
                                                     2        0.4000000       -0.09430787    0.00000000
                                                     2        0.7000000        0.42710831    0.00000000
                                                     2        1.2000000       -2.11746981    0.00000000
                                      S - F
                                                     0        0.0000010        0.14449603    0.00000000
                                                     2        0.1200000       -0.56378993    0.00000000
                                                     2        0.1400000        0.63941249    0.00000000
                                                     2        0.2600000       -0.58461015    0.00000000
                                                     2        0.5000000        1.00157293    0.00000000
                                                     2        1.8000000       -0.14135838    0.00000000
                                      P - F
                                                     0        0.0000010       -0.09353646    0.00000000
                                                     2        0.1200000        0.31768975    0.00000000
                                                     2        0.2000000       -0.71747951    0.00000000
                                                     2        0.4000000        0.65752308    0.00000000
                                                     2        1.7000000        2.94052587    0.00000000
                                      D - F
                                                     0        0.0000010       -0.04491202    0.00000000
                                                     2        0.1200000       -0.02862031    0.00000000
                                                     2        0.1800000       -0.21515263    0.00000000
                                                     2        0.3000000        0.80560647    0.00000000
                                                     2        0.4000000        0.47351754    0.00000000
                                                     2        0.7000000       -4.57051794    0.00000000
                                                     2        1.6000000       18.53737826    0.00000000
   14          1            1
                                      F and up 
                                                     0        0.0000010        0.00072061    0.00000000
                                                     2        0.1200000        0.03832357    0.00000000
                                                     2        0.1400000       -0.08683256    0.00000000
                                                     2        0.1800000        0.09312970    0.00000000
                                                     2        0.2800000       -0.02532572    0.00000000
                                                     2        0.4000000       -0.09430787    0.00000000
                                                     2        0.7000000        0.42710831    0.00000000
                                                     2        1.2000000       -2.11746981    0.00000000
                                      S - F
                                                     0        0.0000010        0.14449603    0.00000000
                                                     2        0.1200000       -0.56378993    0.00000000
                                                     2        0.1400000        0.63941249    0.00000000
                                                     2        0.2600000       -0.58461015    0.00000000
                                                     2        0.5000000        1.00157293    0.00000000
                                                     2        1.8000000       -0.14135838    0.00000000
                                      P - F
                                                     0        0.0000010       -0.09353646    0.00000000
                                                     2        0.1200000        0.31768975    0.00000000
                                                     2        0.2000000       -0.71747951    0.00000000
                                                     2        0.4000000        0.65752308    0.00000000
                                                     2        1.7000000        2.94052587    0.00000000
                                      D - F
                                                     0        0.0000010       -0.04491202    0.00000000
                                                     2        0.1200000       -0.02862031    0.00000000
                                                     2        0.1800000       -0.21515263    0.00000000
                                                     2        0.3000000        0.80560647    0.00000000
                                                     2        0.4000000        0.47351754    0.00000000
                                                     2        0.7000000       -4.57051794    0.00000000
                                                     2        1.6000000       18.53737826    0.00000000
   15          1            1
                                      F and up 
                                                     0        0.0000010        0.00072061    0.00000000
                                                     2        0.1200000        0.03832357    0.00000000
                                                     2        0.1400000       -0.08683256    0.00000000
                                                     2        0.1800000        0.09312970    0.00000000
                                                     2        0.2800000       -0.02532572    0.00000000
                                                     2        0.4000000       -0.09430787    0.00000000
                                                     2        0.7000000        0.42710831    0.00000000
                                                     2        1.2000000       -2.11746981    0.00000000
                                      S - F
                                                     0        0.0000010        0.14449603    0.00000000
                                                     2        0.1200000       -0.56378993    0.00000000
                                                     2        0.1400000        0.63941249    0.00000000
                                                     2        0.2600000       -0.58461015    0.00000000
                                                     2        0.5000000        1.00157293    0.00000000
                                                     2        1.8000000       -0.14135838    0.00000000
                                      P - F
                                                     0        0.0000010       -0.09353646    0.00000000
                                                     2        0.1200000        0.31768975    0.00000000
                                                     2        0.2000000       -0.71747951    0.00000000
                                                     2        0.4000000        0.65752308    0.00000000
                                                     2        1.7000000        2.94052587    0.00000000
                                      D - F
                                                     0        0.0000010       -0.04491202    0.00000000
                                                     2        0.1200000       -0.02862031    0.00000000
                                                     2        0.1800000       -0.21515263    0.00000000
                                                     2        0.3000000        0.80560647    0.00000000
                                                     2        0.4000000        0.47351754    0.00000000
                                                     2        0.7000000       -4.57051794    0.00000000
                                                     2        1.6000000       18.53737826    0.00000000
 ======================================================================================================
   233 basis functions,   389 primitive gaussians,   247 cartesian basis functions
    26 alpha electrons       26 beta electrons
       nuclear repulsion energy       302.2755799090 Hartrees.
 NAtoms=   15 NActive=   15 NUniq=   15 SFac= 1.00D+00 NAtFMM=   60 NAOKFM=F Big=F
   1 Symmetry operations used in ECPInt.
 ECPInt:  NShTT=    5356 NPrTT=   23992 LenC2=    5354 LenP2D=   19260.
 LDataN:  DoStor=T MaxTD1= 6 Len=  172
 Initial guess from the checkpoint file:  "Grambow2020_wb97xd3_007232_reverse_mol1.chk"
 B after Tr=    -0.351777   -0.257455    0.357270
         Rot=    0.631192    0.771048   -0.051627    0.066452 Ang= 101.72 deg.
 >>>>>>>>>> Convergence criterion not met.
 SCF Done:  E(RHF) =  -304.178096405     A.U. after    2 cycles
            NFock=  1  Conv=0.35D+00     -V/T= 2.0113

 **********************************************************************

            Population analysis using the SCF Density.

 **********************************************************************

 Orbital symmetries:
       Occupied  (A) (A) (A) (A) (A) (A) (A) (A) (A) (A) (A) (A)
                 (A) (A) (A) (A) (A) (A) (A) (A) (A) (A) (A) (A)
                 (A) (A)
       Virtual   (A) (A) (A) (A) (A) (A) (A) (A) (A) (A) (A) (A)
                 (A) (A) (A) (A) (A) (A) (A) (A) (A) (A) (A) (A)
                 (A) (A) (A) (A) (A) (A) (A) (A) (A) (A) (A) (A)
                 (A) (A) (A) (A) (A) (A) (A) (A) (A) (A) (A) (A)
                 (A) (A) (A) (A) (A) (A) (A) (A) (A) (A) (A) (A)
                 (A) (A) (A) (A) (A) (A) (A) (A) (A) (A) (A) (A)
                 (A) (A) (A) (A) (A) (A) (A) (A) (A) (A) (A) (A)
                 (A) (A) (A) (A) (A) (A) (A) (A) (A) (A) (A) (A)
                 (A) (A) (A) (A) (A) (A) (A) (A) (A) (A) (A) (A)
                 (A) (A) (A) (A) (A) (A) (A) (A) (A) (A) (A) (A)
                 (A) (A) (A) (A) (A) (A) (A) (A) (A) (A) (A) (A)
                 (A) (A) (A) (A) (A) (A) (A) (A) (A) (A) (A) (A)
                 (A) (A) (A) (A) (A) (A) (A) (A) (A) (A) (A) (A)
                 (A) (A) (A) (A) (A) (A) (A) (A) (A) (A) (A) (A)
                 (A) (A) (A) (A) (A) (A) (A) (A) (A) (A) (A) (A)
                 (A) (A) (A) (A) (A) (A) (A) (A) (A) (A) (A) (A)
                 (A) (A) (A) (A) (A) (A) (A) (A) (A) (A) (A) (A)
                 (A) (A) (A)
 The electronic state is 1-A.
 Alpha  occ. eigenvalues --  -15.81619 -15.67445 -11.48298 -11.45227 -11.44018
 Alpha  occ. eigenvalues --  -11.42102 -11.38605  -1.60287  -1.33387  -1.13264
 Alpha  occ. eigenvalues --   -1.07173  -0.95512  -0.81697  -0.79950  -0.70454
 Alpha  occ. eigenvalues --   -0.68710  -0.62543  -0.61129  -0.59356  -0.56468
 Alpha  occ. eigenvalues --   -0.50428  -0.49577  -0.41111  -0.36248  -0.32894
 Alpha  occ. eigenvalues --   -0.26496
 Alpha virt. eigenvalues --    0.02716   0.04516   0.04765   0.05490   0.05891
 Alpha virt. eigenvalues --    0.06843   0.07083   0.08933   0.09497   0.10134
 Alpha virt. eigenvalues --    0.10677   0.11361   0.12640   0.12896   0.13673
 Alpha virt. eigenvalues --    0.14412   0.14778   0.15351   0.16125   0.16759
 Alpha virt. eigenvalues --    0.17046   0.17913   0.18329   0.18731   0.19062
 Alpha virt. eigenvalues --    0.20899   0.21804   0.24075   0.24359   0.24761
 Alpha virt. eigenvalues --    0.25552   0.26913   0.28066   0.28407   0.30591
 Alpha virt. eigenvalues --    0.31346   0.31743   0.32668   0.34236   0.34664
 Alpha virt. eigenvalues --    0.35330   0.36273   0.37882   0.38648   0.39672
 Alpha virt. eigenvalues --    0.40608   0.41247   0.42424   0.43078   0.43731
 Alpha virt. eigenvalues --    0.43772   0.44974   0.46417   0.47115   0.48150
 Alpha virt. eigenvalues --    0.50413   0.50733   0.52493   0.52910   0.53539
 Alpha virt. eigenvalues --    0.55385   0.56136   0.57135   0.57406   0.57635
 Alpha virt. eigenvalues --    0.58165   0.60445   0.61228   0.62388   0.63832
 Alpha virt. eigenvalues --    0.63954   0.65259   0.65870   0.66653   0.67524
 Alpha virt. eigenvalues --    0.68589   0.69161   0.70094   0.70557   0.72631
 Alpha virt. eigenvalues --    0.73428   0.73807   0.75339   0.76032   0.76659
 Alpha virt. eigenvalues --    0.77455   0.78730   0.79696   0.80317   0.81935
 Alpha virt. eigenvalues --    0.83083   0.84068   0.85456   0.87000   0.89196
 Alpha virt. eigenvalues --    0.90358   0.91217   0.92111   0.93973   0.97374
 Alpha virt. eigenvalues --    1.00275   1.01068   1.01693   1.03332   1.04931
 Alpha virt. eigenvalues --    1.06796   1.08017   1.10583   1.15017   1.16839
 Alpha virt. eigenvalues --    1.22561   1.23776   1.26629   1.27752   1.31733
 Alpha virt. eigenvalues --    1.34448   1.35652   1.36981   1.41012   1.44207
 Alpha virt. eigenvalues --    1.50346   1.53428   1.54825   1.56858   1.62721
 Alpha virt. eigenvalues --    1.64012   1.66705   1.68838   1.72184   1.74183
 Alpha virt. eigenvalues --    1.78358   1.79985   1.82113   1.86629   1.87768
 Alpha virt. eigenvalues --    1.92338   1.92734   1.93709   1.94695   1.97591
 Alpha virt. eigenvalues --    1.99356   2.00154   2.01563   2.02075   2.03467
 Alpha virt. eigenvalues --    2.07709   2.08879   2.09430   2.14356   2.16455
 Alpha virt. eigenvalues --    2.19463   2.22179   2.24632   2.25916   2.28033
 Alpha virt. eigenvalues --    2.29462   2.32205   2.34558   2.36915   2.38667
 Alpha virt. eigenvalues --    2.41028   2.42521   2.45237   2.46033   2.49553
 Alpha virt. eigenvalues --    2.52623   2.55184   2.58385   2.61064   2.63473
 Alpha virt. eigenvalues --    2.66263   2.68007   2.70889   2.74057   2.76911
 Alpha virt. eigenvalues --    2.82112   2.85907   2.87190   2.92616   2.94505
 Alpha virt. eigenvalues --    2.95637   2.97742   3.02297   3.08888   3.12427
 Alpha virt. eigenvalues --    3.17910   3.21644   3.23365   3.26686   3.28582
 Alpha virt. eigenvalues --    3.31139   3.39147   3.43007   3.43525   3.49406
 Alpha virt. eigenvalues --    3.57684   3.58327   3.66282   3.72816   3.76034
 Alpha virt. eigenvalues --    3.85251   3.91811   3.98855   4.03424   4.06051
 Alpha virt. eigenvalues --    4.20395   4.30662
          Condensed to atoms (all electrons):
 Mulliken charges:
               1
     1  C   -3.144016
     2  N   -2.803925
     3  C    0.504429
     4  N   -2.890555
     5  C   -0.086656
     6  C   -2.245921
     7  C    0.576420
     8  H    1.424214
     9  H    1.458711
    10  H    1.482514
    11  H    1.375334
    12  H    1.401104
    13  H    0.227756
    14  H    1.249805
    15  H    1.470786
 Sum of Mulliken charges =  -0.00000
 Mulliken charges with hydrogens summed into heavy atoms:
               1
     1  C    1.221423
     2  N   -2.803925
     3  C    2.107518
     4  N   -2.890555
     5  C   -0.086656
     6  C    0.404988
     7  C    2.047206
 Electronic spatial extent (au):  <R**2>=            698.1208
 Charge=              0.0000 electrons
 Dipole moment (field-independent basis, Debye):
    X=             -4.4531    Y=             -2.7943    Z=             -0.2922  Tot=              5.2653

 Test job not archived.
 1\1\GINC-SE168\SP\RHF\Aug-CC-pVDZ\C5H8N2\OHZDE\09-Apr-2025\0\\#t hf au
 g-cc-pvdz iop(5/13=1,5/36=2,99/5=2) pseudo=read geom=check guess=(read
 ,tcheck) scf=(maxcycle=1)\\title\\0,1\C,0,-2.07050684,-0.03310404,-0.5
 2573349\N,0,-0.76346961,0.27007832,0.00945256\C,0,-0.22840473,-0.27182
 577,1.23469505\N,0,0.88404019,0.35499576,1.56721124\C,0,1.34461519,0.6
 8076684,0.31411809\C,0,2.23360836,-0.25560287,-0.21422991\C,0,0.229408
 37,0.89160617,-0.55971344\H,0,-2.8452267,0.47938146,0.04536361\H,0,-2.
 12488922,0.27745297,-1.56746633\H,0,-2.23091431,-1.10970726,-0.4703636
 3\H,0,-0.94768994,-0.68421832,1.93532856\H,0,2.86610673,-0.80865332,0.
 46759262\H,0,0.66107099,-1.34220456,0.276488\H,0,2.54146053,-0.2183984
 2,-1.25438128\H,0,0.20158098,1.23604205,-1.58332567\\Version=ES64L-G16
 RevC.01\State=1-A\HF=-304.1780964\RMSD=3.511e-01\Dipole=-1.5517064,0.3
 227166,-1.3339217\Quadrupole=4.2897624,-3.8828958,-0.4068667,0.029827,
 -1.76364,-2.5777211\PG=C01 [X(C5H8N2)]\\@


 The hours that make us happy make us wise.
                         -- John Masefield
 Job cpu time:       0 days  0 hours  1 minutes  0.6 seconds.
 Elapsed time:       0 days  0 hours  0 minutes  4.7 seconds.
 File lengths (MBytes):  RWF=     10 Int=      0 D2E=      0 Chk=      8 Scr=      1
 Normal termination of Gaussian 16 at Wed Apr  9 18:31:56 2025.
