 Entering Gaussian System, Link 0=g16
 Input=Grambow2020_wb97xd3_008170_forward_mol2.gjf
 Output=Grambow2020_wb97xd3_008170_forward_mol2.log
 Initial command:
 /arc/software/Gaussian/g16.c01/l1.exe "/tmp/slurm/4882609/Gau-1309822.inp" -scrdir="/tmp/slurm/4882609/"
 Entering Link 1 = /arc/software/Gaussian/g16.c01/l1.exe PID=   1309823.
  
 Copyright (c) 1988-2019, Gaussian, Inc.  All Rights Reserved.
  
 This is part of the Gaussian(R) 16 program.  It is based on
 the Gaussian(R) 09 system (copyright 2009, Gaussian, Inc.),
 the Gaussian(R) 03 system (copyright 2003, Gaussian, Inc.),
 the Gaussian(R) 98 system (copyright 1998, Gaussian, Inc.),
 the Gaussian(R) 94 system (copyright 1995, Gaussian, Inc.),
 the Gaussian 92(TM) system (copyright 1992, Gaussian, Inc.),
 the Gaussian 90(TM) system (copyright 1990, Gaussian, Inc.),
 the Gaussian 88(TM) system (copyright 1988, Gaussian, Inc.),
 the Gaussian 86(TM) system (copyright 1986, Carnegie Mellon
 University), and the Gaussian 82(TM) system (copyright 1983,
 Carnegie Mellon University). Gaussian is a federally registered
 trademark of Gaussian, Inc.
  
 This software contains proprietary and confidential information,
 including trade secrets, belonging to Gaussian, Inc.
  
 This software is provided under written license and may be
 used, copied, transmitted, or stored only in accord with that
 written license.
  
 The following legend is applicable only to US Government
 contracts under FAR:
  
                    RESTRICTED RIGHTS LEGEND
  
 Use, reproduction and disclosure by the US Government is
 subject to restrictions as set forth in subparagraphs (a)
 and (c) of the Commercial Computer Software - Restricted
 Rights clause in FAR 52.227-19.
  
 Gaussian, Inc.
 340 Quinnipiac St., Bldg. 40, Wallingford CT 06492
  
  
 ---------------------------------------------------------------
 Warning -- This program may not be used in any manner that
 competes with the business of Gaussian, Inc. or will provide
 assistance to any competitor of Gaussian, Inc.  The licensee
 of this program is prohibited from giving any competitor of
 Gaussian, Inc. access to this program.  By using this program,
 the user acknowledges that Gaussian, Inc. is engaged in the
 business of creating and licensing software in the field of
 computational chemistry and represents and warrants to the
 licensee that it is not a competitor of Gaussian, Inc. and that
 it will not use this program in any manner prohibited above.
 ---------------------------------------------------------------
  

 Cite this work as:
 Gaussian 16, Revision C.01,
 M. J. Frisch, G. W. Trucks, H. B. Schlegel, G. E. Scuseria, 
 M. A. Robb, J. R. Cheeseman, G. Scalmani, V. Barone, 
 G. A. Petersson, H. Nakatsuji, X. Li, M. Caricato, A. V. Marenich, 
 J. Bloino, B. G. Janesko, R. Gomperts, B. Mennucci, H. P. Hratchian, 
 J. V. Ortiz, A. F. Izmaylov, J. L. Sonnenberg, D. Williams-Young, 
 F. Ding, F. Lipparini, F. Egidi, J. Goings, B. Peng, A. Petrone, 
 T. Henderson, D. Ranasinghe, V. G. Zakrzewski, J. Gao, N. Rega, 
 G. Zheng, W. Liang, M. Hada, M. Ehara, K. Toyota, R. Fukuda, 
 J. Hasegawa, M. Ishida, T. Nakajima, Y. Honda, O. Kitao, H. Nakai, 
 T. Vreven, K. Throssell, J. A. Montgomery, Jr., J. E. Peralta, 
 F. Ogliaro, M. J. Bearpark, J. J. Heyd, E. N. Brothers, K. N. Kudin, 
 V. N. Staroverov, T. A. Keith, R. Kobayashi, J. Normand, 
 K. Raghavachari, A. P. Rendell, J. C. Burant, S. S. Iyengar, 
 J. Tomasi, M. Cossi, J. M. Millam, M. Klene, C. Adamo, R. Cammi, 
 J. W. Ochterski, R. L. Martin, K. Morokuma, O. Farkas, 
 J. B. Foresman, and D. J. Fox, Gaussian, Inc., Wallingford CT, 2019.
 
 ******************************************
 Gaussian 16:  ES64L-G16RevC.01  3-Jul-2019
                 9-Apr-2025 
 ******************************************
 %nprocs=16
 Will use up to   16 processors via shared memory.
 %mem=30GB
 %chk=Grambow2020_wb97xd3_008170_forward_mol2.chk
 ----------------------------------------------------------------------
 #t hf aug-cc-pvdz symm=none int=(grid=ultrafine) guess=(read,tcheck) s
 table=(opt,rrhf)
 ----------------------------------------------------------------------
 -----
 title
 -----
 Symbolic Z-matrix:
 Charge =  0 Multiplicity = 1
 C                    -1.6055   -0.1329   -0.2521 
 C                    -0.66977  -0.48204   0.91387 
 O                     0.14568  -1.50795   0.34719 
 C                     0.78393  -0.69943  -0.64119 
 C                     1.59065   0.28476   0.21739 
 C                     0.19596   0.79061   0.57513 
 C                    -0.31254   0.41265  -0.85158 
 H                    -2.12729  -0.96196  -0.73076 
 H                    -2.29251   0.67882  -0.00876 
 H                    -1.00573  -0.74943   1.91218 
 H                     1.20524  -1.30587  -1.43847 
 H                     2.23585  -0.14313   0.98509 
 H                     2.12702   1.02045  -0.38359 
 H                    -0.02817   1.7301    1.07343 
 H                    -0.24282   1.06532  -1.71783 
 
                    Distance matrix (angstroms):
                    1          2          3          4          5
     1  C    0.000000
     2  C    1.535247   0.000000
     3  O    2.305761   1.427789   0.000000
     4  C    2.486309   2.139801   1.427576   0.000000
     5  C    3.257334   2.486482   2.306212   1.535116   0.000000
     6  C    2.186881   1.576036   2.310385   2.011313   1.526114
     7  C    1.526018   2.011200   2.309922   1.575836   2.186597
     8  H    1.090291   2.249340   2.574197   2.924414   4.034406
     9  H    1.090911   2.198212   3.294454   3.429876   3.909650
    10  H    2.328937   1.086731   2.085738   3.118513   3.268502
    11  H    3.268569   3.118952   2.086163   1.086698   2.328197
    12  H    4.035676   2.926183   2.576520   2.249961   1.090296
    13  H    3.908861   3.429713   3.294323   2.197324   1.090916
    14  H    2.777725   2.308828   3.323045   3.082540   2.332895
    15  H    2.332587   3.082609   3.322191   2.308185   2.777763
                    6          7          8          9         10
     6  C    0.000000
     7  C    1.561073   0.000000
     8  H    3.189734   2.279798   0.000000
     9  H    2.558500   2.168283   1.800209   0.000000
    10  H    2.367174   3.077229   2.878927   2.717667   0.000000
    11  H    3.077084   2.366728   3.424160   4.268169   4.052760
    12  H    2.280587   3.190075   4.759375   4.708435   3.425629
    13  H    2.168167   2.557327   4.706346   4.448533   4.268158
    14  H    1.086818   2.349936   3.861170   2.720947   2.794142
    15  H    2.350676   1.086839   2.938604   2.696573   4.129447
                   11         12         13         14         15
    11  H    0.000000
    12  H    2.878849   0.000000
    13  H    2.715552   1.799737   0.000000
    14  H    4.128924   2.939827   2.696540   0.000000
    15  H    2.792388   3.861342   2.719998   2.877348   0.000000
 Symmetry turned off by external request.
 Rotational constants (GHZ):           4.9515643           3.6204320           3.1750719
   233 basis functions,   389 primitive gaussians,   247 cartesian basis functions
    26 alpha electrons       26 beta electrons
       nuclear repulsion energy       319.8220147302 Hartrees.
 NAtoms=   15 NActive=   15 NUniq=   15 SFac= 1.00D+00 NAtFMM=   60 NAOKFM=F Big=F
 ExpMin= 2.97D-02 ExpMax= 1.17D+04 ExpMxC= 4.01D+02 IAcc=3 IRadAn=         5 AccDes= 0.00D+00
 Harris functional with IExCor=  205 and IRadAn=       5 diagonalized for initial guess.
 HarFok:  IExCor=  205 AccDes= 0.00D+00 IRadAn=         5 IDoV= 1 UseB2=F ITyADJ=14
 ICtDFT=  3500011 ScaDFX=  1.000000  1.000000  1.000000  1.000000
 FoFCou: FMM=F IPFlag=           0 FMFlag=      100000 FMFlg1=           0
         NFxFlg=           0 DoJE=T BraDBF=F KetDBF=T FulRan=T
         wScrn=  0.000000 ICntrl=       500 IOpCl=  0 I1Cent=   200000004 NGrid=           0
         NMat0=    1 NMatS0=      1 NMatT0=    0 NMatD0=    1 NMtDS0=    0 NMtDT0=    0
 Symmetry not used in FoFCou.
 SCF Done:  E(RHF) =  -306.664354117     A.U. after   12 cycles
            NFock= 12  Conv=0.81D-08     -V/T= 2.0006

 **********************************************************************

            Population analysis using the SCF Density.

 **********************************************************************

 Alpha  occ. eigenvalues --  -20.56022 -11.28658 -11.28650 -11.23978 -11.23924
 Alpha  occ. eigenvalues --  -11.22707 -11.22707  -1.40541  -1.14851  -1.03476
 Alpha  occ. eigenvalues --   -0.92412  -0.83984  -0.77603  -0.75197  -0.71213
 Alpha  occ. eigenvalues --   -0.64610  -0.63425  -0.59398  -0.54399  -0.52555
 Alpha  occ. eigenvalues --   -0.50165  -0.48442  -0.46610  -0.43381  -0.41015
 Alpha  occ. eigenvalues --   -0.39472
 Alpha virt. eigenvalues --    0.03327   0.04108   0.04548   0.04705   0.06101
 Alpha virt. eigenvalues --    0.06546   0.06808   0.06847   0.11322   0.12284
 Alpha virt. eigenvalues --    0.12499   0.12672   0.13329   0.13932   0.14205
 Alpha virt. eigenvalues --    0.14938   0.15100   0.15263   0.16212   0.16704
 Alpha virt. eigenvalues --    0.17446   0.18898   0.19088   0.19127   0.19962
 Alpha virt. eigenvalues --    0.20084   0.21786   0.24413   0.26946   0.27252
 Alpha virt. eigenvalues --    0.27429   0.28902   0.29242   0.30833   0.32755
 Alpha virt. eigenvalues --    0.33364   0.35465   0.35667   0.36880   0.37227
 Alpha virt. eigenvalues --    0.37540   0.37665   0.38380   0.39137   0.41305
 Alpha virt. eigenvalues --    0.42222   0.43151   0.43163   0.43919   0.44170
 Alpha virt. eigenvalues --    0.45012   0.45643   0.45720   0.46264   0.49629
 Alpha virt. eigenvalues --    0.49854   0.51358   0.53188   0.53472   0.55003
 Alpha virt. eigenvalues --    0.55619   0.56814   0.57427   0.58608   0.59191
 Alpha virt. eigenvalues --    0.60043   0.61488   0.61984   0.62856   0.64167
 Alpha virt. eigenvalues --    0.64259   0.65332   0.65599   0.66380   0.67571
 Alpha virt. eigenvalues --    0.68927   0.70317   0.71517   0.72980   0.73518
 Alpha virt. eigenvalues --    0.74095   0.74111   0.74698   0.75687   0.77151
 Alpha virt. eigenvalues --    0.79318   0.80553   0.81062   0.81352   0.81533
 Alpha virt. eigenvalues --    0.82894   0.83484   0.84063   0.86681   0.86906
 Alpha virt. eigenvalues --    0.87886   0.90046   0.91319   0.91457   0.94561
 Alpha virt. eigenvalues --    0.95029   0.96534   0.97323   1.00892   1.01541
 Alpha virt. eigenvalues --    1.02437   1.06167   1.11739   1.16583   1.18630
 Alpha virt. eigenvalues --    1.19711   1.21134   1.25404   1.26841   1.28473
 Alpha virt. eigenvalues --    1.29886   1.33511   1.37040   1.37789   1.40058
 Alpha virt. eigenvalues --    1.40729   1.45071   1.46352   1.48512   1.49160
 Alpha virt. eigenvalues --    1.50914   1.52252   1.57828   1.58145   1.58635
 Alpha virt. eigenvalues --    1.65903   1.68008   1.71611   1.71810   1.72566
 Alpha virt. eigenvalues --    1.73081   1.74290   1.75753   1.76671   1.81357
 Alpha virt. eigenvalues --    1.81541   1.87687   1.87955   1.90295   1.93520
 Alpha virt. eigenvalues --    1.96267   1.96912   2.00161   2.04109   2.04347
 Alpha virt. eigenvalues --    2.06567   2.08576   2.08901   2.12707   2.13418
 Alpha virt. eigenvalues --    2.15798   2.17970   2.19730   2.21861   2.22164
 Alpha virt. eigenvalues --    2.24841   2.30059   2.30635   2.32246   2.33279
 Alpha virt. eigenvalues --    2.36894   2.37451   2.40456   2.41775   2.44301
 Alpha virt. eigenvalues --    2.45482   2.47097   2.50335   2.56067   2.57342
 Alpha virt. eigenvalues --    2.58262   2.64119   2.67203   2.68880   2.69606
 Alpha virt. eigenvalues --    2.69853   2.70681   2.75878   2.75919   2.78568
 Alpha virt. eigenvalues --    2.80753   2.81831   2.88113   2.94623   2.98048
 Alpha virt. eigenvalues --    3.03714   3.06354   3.07034   3.15591   3.24371
 Alpha virt. eigenvalues --    3.25040   3.54748   3.71706   3.82659   3.83260
 Alpha virt. eigenvalues --    3.92434   3.99277   4.04365   4.17268   4.26728
 Alpha virt. eigenvalues --    4.59002   4.92123
          Condensed to atoms (all electrons):
 Mulliken charges:
               1
     1  C    0.747031
     2  C    0.861654
     3  O   -1.145561
     4  C    0.862898
     5  C    0.746427
     6  C    0.206427
     7  C    0.205483
     8  H   -0.224151
     9  H   -0.221312
    10  H   -0.352957
    11  H   -0.352802
    12  H   -0.224921
    13  H   -0.220956
    14  H   -0.443516
    15  H   -0.443744
 Sum of Mulliken charges =  -0.00000
 Mulliken charges with hydrogens summed into heavy atoms:
               1
     1  C    0.301568
     2  C    0.508697
     3  O   -1.145561
     4  C    0.510096
     5  C    0.300550
     6  C   -0.237089
     7  C   -0.238261
 Electronic spatial extent (au):  <R**2>=            535.5875
 Charge=             -0.0000 electrons
 Dipole moment (field-independent basis, Debye):
    X=             -0.1787    Y=              1.8505    Z=             -0.4264  Tot=              1.9074
 NROrb=    233 NOA=    26 NOB=    26 NVA=   207 NVB=   207

 **** Warning!!: The largest alpha MO coefficient is  0.76485571D+02

    12 initial guesses have been made.
 Iteration     1 Dimension    12 NMult     0 NNew     12
 Iteration     2 Dimension    24 NMult    12 NNew     12
 Iteration     3 Dimension    27 NMult    24 NNew      3
 Iteration     4 Dimension    30 NMult    27 NNew      3
 Iteration     5 Dimension    33 NMult    30 NNew      3
 Iteration     6 Dimension    36 NMult    33 NNew      3
 Iteration     7 Dimension    39 NMult    36 NNew      3
 Iteration     8 Dimension    42 NMult    39 NNew      3
 ***********************************************************************
 Stability analysis using <AA,BB:AA,BB> singles matrix:
 ***********************************************************************
 Ground to excited state transition densities written to RWF  633

 Eigenvectors of the stability matrix:
 
 Excited state symmetry could not be determined.
 Eigenvector   1:      Singlet-?Sym  Eigenvalue= 0.3036399  <S**2>=0.000
      26 -> 27         0.55683
      26 -> 30        -0.30969
      26 -> 35        -0.13424
      26 -> 44        -0.16907
 The wavefunction is stable under the perturbations considered.
 The wavefunction is already stable.

 **********************************************************************

            Population analysis using the SCF Density.

 **********************************************************************

 Alpha  occ. eigenvalues --  -20.56022 -11.28658 -11.28650 -11.23978 -11.23924
 Alpha  occ. eigenvalues --  -11.22707 -11.22707  -1.40541  -1.14851  -1.03476
 Alpha  occ. eigenvalues --   -0.92412  -0.83984  -0.77603  -0.75197  -0.71213
 Alpha  occ. eigenvalues --   -0.64610  -0.63425  -0.59398  -0.54399  -0.52555
 Alpha  occ. eigenvalues --   -0.50165  -0.48442  -0.46610  -0.43381  -0.41015
 Alpha  occ. eigenvalues --   -0.39472
 Alpha virt. eigenvalues --    0.03327   0.04108   0.04548   0.04705   0.06101
 Alpha virt. eigenvalues --    0.06546   0.06808   0.06847   0.11322   0.12284
 Alpha virt. eigenvalues --    0.12499   0.12672   0.13329   0.13932   0.14205
 Alpha virt. eigenvalues --    0.14938   0.15100   0.15263   0.16212   0.16704
 Alpha virt. eigenvalues --    0.17446   0.18898   0.19088   0.19127   0.19962
 Alpha virt. eigenvalues --    0.20084   0.21786   0.24413   0.26946   0.27252
 Alpha virt. eigenvalues --    0.27429   0.28902   0.29242   0.30833   0.32755
 Alpha virt. eigenvalues --    0.33364   0.35465   0.35667   0.36880   0.37227
 Alpha virt. eigenvalues --    0.37540   0.37665   0.38380   0.39137   0.41305
 Alpha virt. eigenvalues --    0.42222   0.43151   0.43163   0.43919   0.44170
 Alpha virt. eigenvalues --    0.45012   0.45643   0.45720   0.46264   0.49629
 Alpha virt. eigenvalues --    0.49854   0.51358   0.53188   0.53472   0.55003
 Alpha virt. eigenvalues --    0.55619   0.56814   0.57427   0.58608   0.59191
 Alpha virt. eigenvalues --    0.60043   0.61488   0.61984   0.62856   0.64167
 Alpha virt. eigenvalues --    0.64259   0.65332   0.65599   0.66380   0.67571
 Alpha virt. eigenvalues --    0.68927   0.70317   0.71517   0.72980   0.73518
 Alpha virt. eigenvalues --    0.74095   0.74111   0.74698   0.75687   0.77151
 Alpha virt. eigenvalues --    0.79318   0.80553   0.81062   0.81352   0.81533
 Alpha virt. eigenvalues --    0.82894   0.83484   0.84063   0.86681   0.86906
 Alpha virt. eigenvalues --    0.87886   0.90046   0.91319   0.91457   0.94561
 Alpha virt. eigenvalues --    0.95029   0.96534   0.97323   1.00892   1.01541
 Alpha virt. eigenvalues --    1.02437   1.06167   1.11739   1.16583   1.18630
 Alpha virt. eigenvalues --    1.19711   1.21134   1.25404   1.26841   1.28473
 Alpha virt. eigenvalues --    1.29886   1.33511   1.37040   1.37789   1.40058
 Alpha virt. eigenvalues --    1.40729   1.45071   1.46352   1.48512   1.49160
 Alpha virt. eigenvalues --    1.50914   1.52252   1.57828   1.58145   1.58635
 Alpha virt. eigenvalues --    1.65903   1.68008   1.71611   1.71810   1.72566
 Alpha virt. eigenvalues --    1.73081   1.74290   1.75753   1.76671   1.81357
 Alpha virt. eigenvalues --    1.81541   1.87687   1.87955   1.90295   1.93520
 Alpha virt. eigenvalues --    1.96267   1.96912   2.00161   2.04109   2.04347
 Alpha virt. eigenvalues --    2.06567   2.08576   2.08901   2.12707   2.13418
 Alpha virt. eigenvalues --    2.15798   2.17970   2.19730   2.21861   2.22164
 Alpha virt. eigenvalues --    2.24841   2.30059   2.30635   2.32246   2.33279
 Alpha virt. eigenvalues --    2.36894   2.37451   2.40456   2.41775   2.44301
 Alpha virt. eigenvalues --    2.45482   2.47097   2.50335   2.56067   2.57342
 Alpha virt. eigenvalues --    2.58262   2.64119   2.67203   2.68880   2.69606
 Alpha virt. eigenvalues --    2.69853   2.70681   2.75878   2.75919   2.78568
 Alpha virt. eigenvalues --    2.80753   2.81831   2.88113   2.94623   2.98048
 Alpha virt. eigenvalues --    3.03714   3.06354   3.07034   3.15591   3.24371
 Alpha virt. eigenvalues --    3.25040   3.54748   3.71706   3.82659   3.83260
 Alpha virt. eigenvalues --    3.92434   3.99277   4.04365   4.17268   4.26728
 Alpha virt. eigenvalues --    4.59002   4.92123
          Condensed to atoms (all electrons):
 Mulliken charges:
               1
     1  C    0.747031
     2  C    0.861654
     3  O   -1.145561
     4  C    0.862898
     5  C    0.746427
     6  C    0.206427
     7  C    0.205483
     8  H   -0.224151
     9  H   -0.221312
    10  H   -0.352957
    11  H   -0.352802
    12  H   -0.224921
    13  H   -0.220956
    14  H   -0.443516
    15  H   -0.443744
 Sum of Mulliken charges =  -0.00000
 Mulliken charges with hydrogens summed into heavy atoms:
               1
     1  C    0.301568
     2  C    0.508697
     3  O   -1.145561
     4  C    0.510096
     5  C    0.300550
     6  C   -0.237089
     7  C   -0.238261
 Electronic spatial extent (au):  <R**2>=            535.5875
 Charge=             -0.0000 electrons
 Dipole moment (field-independent basis, Debye):
    X=             -0.1787    Y=              1.8505    Z=             -0.4264  Tot=              1.9074
 Unable to Open any file for archive entry.
 1\1\GINC-SE231\Stability\RHF\Aug-CC-pVDZ\C6H8O1\OHZDE\09-Apr-2025\0\\#
 t hf aug-cc-pvdz symm=none int=(grid=ultrafine) guess=(read,tcheck) st
 able=(opt,rrhf)\\title\\0,1\C,0,-1.6054966,-0.13289782,-0.25210139\C,0
 ,-0.66977088,-0.48204093,0.91387453\O,0,0.14567822,-1.50795131,0.34719
 01\C,0,0.78393481,-0.69943143,-0.64119109\C,0,1.5906528,0.28476003,0.2
 1738629\C,0,0.19596436,0.79061234,0.57513177\C,0,-0.31254338,0.4126516
 5,-0.85158263\H,0,-2.12729403,-0.96196121,-0.73076273\H,0,-2.29250754,
 0.67882226,-0.00876175\H,0,-1.00573346,-0.74943004,1.91218177\H,0,1.20
 523577,-1.30586825,-1.43846875\H,0,2.23584762,-0.14313366,0.98509486\H
 ,0,2.12702205,1.02044928,-0.38358503\H,0,-0.02816767,1.73010229,1.0734
 2532\H,0,-0.24282205,1.0653168,-1.71783125\\Version=ES64L-G16RevC.01\H
 F=-306.6643541\RMSD=8.144e-09\Dipole=-0.0702996,0.7280619,-0.1677415\Q
 uadrupole=1.0369527,-2.5339638,1.4970111,0.0870336,-1.2034376,0.858185
 \PG=Unknown\\@
 The archive entry for this job was punched.


 MARY HAD A LITTLE LAMB
      HIS FEET WERE BLACK AS SOOT,
           AND EVERYWHERE THAT MARY WENT
                HIS SOOTY FOOT HE PUT.

                    -- NONAME
 Job cpu time:       0 days  0 hours  7 minutes 31.2 seconds.
 Elapsed time:       0 days  0 hours  0 minutes 32.4 seconds.
 File lengths (MBytes):  RWF=    239 Int=      0 D2E=      0 Chk=      8 Scr=      1
 Normal termination of Gaussian 16 at Wed Apr  9 19:08:56 2025.
 Initial command:
 /arc/software/Gaussian/g16.c01/l1.exe "/tmp/slurm/4882609/Gau-1309822.inp" -scrdir="/tmp/slurm/4882609/"
 Entering Link 1 = /arc/software/Gaussian/g16.c01/l1.exe PID=   1310070.
  
 Copyright (c) 1988-2019, Gaussian, Inc.  All Rights Reserved.
  
 This is part of the Gaussian(R) 16 program.  It is based on
 the Gaussian(R) 09 system (copyright 2009, Gaussian, Inc.),
 the Gaussian(R) 03 system (copyright 2003, Gaussian, Inc.),
 the Gaussian(R) 98 system (copyright 1998, Gaussian, Inc.),
 the Gaussian(R) 94 system (copyright 1995, Gaussian, Inc.),
 the Gaussian 92(TM) system (copyright 1992, Gaussian, Inc.),
 the Gaussian 90(TM) system (copyright 1990, Gaussian, Inc.),
 the Gaussian 88(TM) system (copyright 1988, Gaussian, Inc.),
 the Gaussian 86(TM) system (copyright 1986, Carnegie Mellon
 University), and the Gaussian 82(TM) system (copyright 1983,
 Carnegie Mellon University). Gaussian is a federally registered
 trademark of Gaussian, Inc.
  
 This software contains proprietary and confidential information,
 including trade secrets, belonging to Gaussian, Inc.
  
 This software is provided under written license and may be
 used, copied, transmitted, or stored only in accord with that
 written license.
  
 The following legend is applicable only to US Government
 contracts under FAR:
  
                    RESTRICTED RIGHTS LEGEND
  
 Use, reproduction and disclosure by the US Government is
 subject to restrictions as set forth in subparagraphs (a)
 and (c) of the Commercial Computer Software - Restricted
 Rights clause in FAR 52.227-19.
  
 Gaussian, Inc.
 340 Quinnipiac St., Bldg. 40, Wallingford CT 06492
  
  
 ---------------------------------------------------------------
 Warning -- This program may not be used in any manner that
 competes with the business of Gaussian, Inc. or will provide
 assistance to any competitor of Gaussian, Inc.  The licensee
 of this program is prohibited from giving any competitor of
 Gaussian, Inc. access to this program.  By using this program,
 the user acknowledges that Gaussian, Inc. is engaged in the
 business of creating and licensing software in the field of
 computational chemistry and represents and warrants to the
 licensee that it is not a competitor of Gaussian, Inc. and that
 it will not use this program in any manner prohibited above.
 ---------------------------------------------------------------
  

 Cite this work as:
 Gaussian 16, Revision C.01,
 M. J. Frisch, G. W. Trucks, H. B. Schlegel, G. E. Scuseria, 
 M. A. Robb, J. R. Cheeseman, G. Scalmani, V. Barone, 
 G. A. Petersson, H. Nakatsuji, X. Li, M. Caricato, A. V. Marenich, 
 J. Bloino, B. G. Janesko, R. Gomperts, B. Mennucci, H. P. Hratchian, 
 J. V. Ortiz, A. F. Izmaylov, J. L. Sonnenberg, D. Williams-Young, 
 F. Ding, F. Lipparini, F. Egidi, J. Goings, B. Peng, A. Petrone, 
 T. Henderson, D. Ranasinghe, V. G. Zakrzewski, J. Gao, N. Rega, 
 G. Zheng, W. Liang, M. Hada, M. Ehara, K. Toyota, R. Fukuda, 
 J. Hasegawa, M. Ishida, T. Nakajima, Y. Honda, O. Kitao, H. Nakai, 
 T. Vreven, K. Throssell, J. A. Montgomery, Jr., J. E. Peralta, 
 F. Ogliaro, M. J. Bearpark, J. J. Heyd, E. N. Brothers, K. N. Kudin, 
 V. N. Staroverov, T. A. Keith, R. Kobayashi, J. Normand, 
 K. Raghavachari, A. P. Rendell, J. C. Burant, S. S. Iyengar, 
 J. Tomasi, M. Cossi, J. M. Millam, M. Klene, C. Adamo, R. Cammi, 
 J. W. Ochterski, R. L. Martin, K. Morokuma, O. Farkas, 
 J. B. Foresman, and D. J. Fox, Gaussian, Inc., Wallingford CT, 2019.
 
 ******************************************
 Gaussian 16:  ES64L-G16RevC.01  3-Jul-2019
                 9-Apr-2025 
 ******************************************
 %nprocs=16
 Will use up to   16 processors via shared memory.
 %mem=30GB
 %chk=Grambow2020_wb97xd3_008170_forward_mol2.chk
 ----------------------------------------------------------------------
 #t hf aug-cc-pvdz iop(5/13=1,5/36=2,99/5=2) pseudo=read geom=check gue
 ss=(read,tcheck) scf=(maxcycle=1)
 ----------------------------------------------------------------------
 -----
 title
 -----
 Structure from the checkpoint file:  "Grambow2020_wb97xd3_008170_forward_mol2.chk"
 Charge =  0 Multiplicity = 1
 Z-Matrix found in chk file.
 C,0,-1.6054966,-0.13289782,-0.25210139
 C,0,-0.66977088,-0.48204093,0.91387453
 O,0,0.14567822,-1.50795131,0.3471901
 C,0,0.78393481,-0.69943143,-0.64119109
 C,0,1.5906528,0.28476003,0.21738629
 C,0,0.19596436,0.79061234,0.57513177
 C,0,-0.31254338,0.41265165,-0.85158263
 H,0,-2.12729403,-0.96196121,-0.73076273
 H,0,-2.29250754,0.67882226,-0.00876175
 H,0,-1.00573346,-0.74943004,1.91218177
 H,0,1.20523577,-1.30586825,-1.43846875
 H,0,2.23584762,-0.14313366,0.98509486
 H,0,2.12702205,1.02044928,-0.38358503
 H,0,-0.02816767,1.73010229,1.07342532
 H,0,-0.24282205,1.0653168,-1.71783125
 Recover connectivity data from disk.
                    Distance matrix (angstroms):
                    1          2          3          4          5
     1  C    0.000000
     2  C    1.535247   0.000000
     3  O    2.305761   1.427789   0.000000
     4  C    2.486309   2.139801   1.427576   0.000000
     5  C    3.257334   2.486482   2.306212   1.535116   0.000000
     6  C    2.186881   1.576036   2.310385   2.011313   1.526114
     7  C    1.526018   2.011200   2.309922   1.575836   2.186597
     8  H    1.090291   2.249340   2.574197   2.924414   4.034406
     9  H    1.090911   2.198212   3.294454   3.429876   3.909650
    10  H    2.328937   1.086731   2.085738   3.118513   3.268502
    11  H    3.268569   3.118952   2.086163   1.086698   2.328197
    12  H    4.035676   2.926183   2.576520   2.249961   1.090296
    13  H    3.908861   3.429713   3.294323   2.197324   1.090916
    14  H    2.777725   2.308828   3.323045   3.082540   2.332895
    15  H    2.332587   3.082609   3.322191   2.308185   2.777763
                    6          7          8          9         10
     6  C    0.000000
     7  C    1.561073   0.000000
     8  H    3.189734   2.279798   0.000000
     9  H    2.558500   2.168283   1.800209   0.000000
    10  H    2.367174   3.077229   2.878927   2.717667   0.000000
    11  H    3.077084   2.366728   3.424160   4.268169   4.052760
    12  H    2.280587   3.190075   4.759375   4.708435   3.425629
    13  H    2.168167   2.557327   4.706346   4.448533   4.268158
    14  H    1.086818   2.349936   3.861170   2.720947   2.794142
    15  H    2.350676   1.086839   2.938604   2.696573   4.129447
                   11         12         13         14         15
    11  H    0.000000
    12  H    2.878849   0.000000
    13  H    2.715552   1.799737   0.000000
    14  H    4.128924   2.939827   2.696540   0.000000
    15  H    2.792388   3.861342   2.719998   2.877348   0.000000
 Framework group  C1[X(C6H8O)]
 Deg. of freedom    39
                         Standard orientation:                         
 ---------------------------------------------------------------------
 Center     Atomic      Atomic             Coordinates (Angstroms)
 Number     Number       Type             X           Y           Z
 ---------------------------------------------------------------------
      1          6           0       -1.610400   -0.270564    0.242793
      2          6           0       -0.714049    0.416517   -0.797140
      3          8           0       -0.000559    1.362203   -0.000151
      4          6           0        0.713797    0.417290    0.796599
      5          6           0        1.610560   -0.270007   -0.242640
      6          6           0        0.270670   -0.812302   -0.732166
      7          6           0       -0.270191   -0.811889    0.732217
      8          1           0       -2.209074    0.377845    0.883019
      9          1           0       -2.216301   -1.068503   -0.188790
     10          1           0       -1.075395    0.867098   -1.717678
     11          1           0        1.075660    0.867413    1.717119
     12          1           0        2.210617    0.377236   -0.882760
     13          1           0        2.216025   -1.067394    0.190584
     14          1           0        0.137501   -1.633716   -1.431250
     15          1           0       -0.136886   -1.631874    1.432984
 ---------------------------------------------------------------------
 Rotational constants (GHZ):           4.9515643           3.6204320           3.1750719
 ======================================================================================================
                                       Pseudopotential Parameters
 ======================================================================================================
  Center     Atomic      Valence      Angular      Power
  Number     Number     Electrons     Momentum     of R      Exponent        Coefficient   SO-Coeffient
 ======================================================================================================
    1          6            6
                                      G and up 
                                                     0        0.0000010       -0.00286759    0.00000000
                                                     2        0.1200000        0.03193960    0.00000000
                                                     2        0.1600000       -0.04027782    0.00000000
                                                     2        0.2600000        0.24782456    0.00000000
                                                     2        0.4000000       -0.62266671    0.00000000
                                                     2        0.7000000        0.35695227    0.00000000
                                      S - G
                                                     0        0.0000010       -0.06602313    0.00000000
                                                     2        0.1200000        1.47277455    0.00000000
                                                     2        0.1600000       -4.06924166    0.00000000
                                                     2        0.3000000        5.02952802    0.00000000
                                                     2        0.7000000       -5.65856978    0.00000000
                                                     2        1.7000000        8.57604414    0.00000000
                                      P - G
                                                     0        0.0000010        0.49434425    0.00000000
                                                     2        0.1200000       -1.37391547    0.00000000
                                                     2        0.1600000        3.65411806    0.00000000
                                                     2        0.2800000       -7.36479843    0.00000000
                                                     2        0.6000000       17.22091285    0.00000000
                                                     2        1.1000000      -23.50107827    0.00000000
                                                     2        3.0000000       16.29464063    0.00000000
                                      D - G
                                                     0        0.0000010       -0.28693103    0.00000000
                                                     2        0.1200000        0.12273044    0.00000000
                                                     2        0.3000000       -0.43416384    0.00000000
                                                     2        0.7000000        2.23358493    0.00000000
                                      F - G
                                                     0        0.0000010        0.07263570    0.00000000
                                                     2        0.1400000       -0.76152861    0.00000000
                                                     2        0.2200000        1.98045593    0.00000000
                                                     2        0.4000000       -2.42426427    0.00000000
                                                     2        0.7000000        0.52335237    0.00000000
    2          6            6
                                      G and up 
                                                     0        0.0000010       -0.00286759    0.00000000
                                                     2        0.1200000        0.03193960    0.00000000
                                                     2        0.1600000       -0.04027782    0.00000000
                                                     2        0.2600000        0.24782456    0.00000000
                                                     2        0.4000000       -0.62266671    0.00000000
                                                     2        0.7000000        0.35695227    0.00000000
                                      S - G
                                                     0        0.0000010       -0.06602313    0.00000000
                                                     2        0.1200000        1.47277455    0.00000000
                                                     2        0.1600000       -4.06924166    0.00000000
                                                     2        0.3000000        5.02952802    0.00000000
                                                     2        0.7000000       -5.65856978    0.00000000
                                                     2        1.7000000        8.57604414    0.00000000
                                      P - G
                                                     0        0.0000010        0.49434425    0.00000000
                                                     2        0.1200000       -1.37391547    0.00000000
                                                     2        0.1600000        3.65411806    0.00000000
                                                     2        0.2800000       -7.36479843    0.00000000
                                                     2        0.6000000       17.22091285    0.00000000
                                                     2        1.1000000      -23.50107827    0.00000000
                                                     2        3.0000000       16.29464063    0.00000000
                                      D - G
                                                     0        0.0000010       -0.28693103    0.00000000
                                                     2        0.1200000        0.12273044    0.00000000
                                                     2        0.3000000       -0.43416384    0.00000000
                                                     2        0.7000000        2.23358493    0.00000000
                                      F - G
                                                     0        0.0000010        0.07263570    0.00000000
                                                     2        0.1400000       -0.76152861    0.00000000
                                                     2        0.2200000        1.98045593    0.00000000
                                                     2        0.4000000       -2.42426427    0.00000000
                                                     2        0.7000000        0.52335237    0.00000000
    3          8            8
                                      G and up 
                                                     0        0.0000010       -0.00165251    0.00000000
                                                     2        0.1200000       -0.10937202    0.00000000
                                                     2        0.1400000        0.35668905    0.00000000
                                                     2        0.1800000       -0.51696033    0.00000000
                                                     2        0.2400000        0.52446472    0.00000000
                                                     2        0.4000000       -0.07754493    0.00000000
                                                     2        0.8000000       -1.90560988    0.00000000
                                                     2        1.7000000        0.19857963    0.00000000
                                      S - G
                                                     0        0.0000010       -0.03845181    0.00000000
                                                     2        0.1400000        0.42024558    0.00000000
                                                     2        0.4000000       -4.10467779    0.00000000
                                                     2        1.3000000        9.99571838    0.00000000
                                      P - G
                                                     0        0.0000010        0.33206183    0.00000000
                                                     2        0.1200000       -0.18708141    0.00000000
                                                     2        0.2800000       -0.18179081    0.00000000
                                                     2        0.7000000        1.18820394    0.00000000
                                      D - G
                                                     0        0.0000010       -0.57891674    0.00000000
                                                     2        0.1200000        0.60487490    0.00000000
                                                     2        0.2400000       -0.24931464    0.00000000
                                                     2        0.3000000       -2.75054612    0.00000000
                                                     2        1.0000000       15.96776040    0.00000000
                                      F - G
                                                     0        0.0000010        0.37449041    0.00000000
                                                     2        0.1200000       -0.63373642    0.00000000
                                                     2        0.1400000       -0.08412804    0.00000000
                                                     2        0.2800000        2.62321406    0.00000000
                                                     2        0.6000000       -2.68223623    0.00000000
    4          6            6
                                      G and up 
                                                     0        0.0000010       -0.00286759    0.00000000
                                                     2        0.1200000        0.03193960    0.00000000
                                                     2        0.1600000       -0.04027782    0.00000000
                                                     2        0.2600000        0.24782456    0.00000000
                                                     2        0.4000000       -0.62266671    0.00000000
                                                     2        0.7000000        0.35695227    0.00000000
                                      S - G
                                                     0        0.0000010       -0.06602313    0.00000000
                                                     2        0.1200000        1.47277455    0.00000000
                                                     2        0.1600000       -4.06924166    0.00000000
                                                     2        0.3000000        5.02952802    0.00000000
                                                     2        0.7000000       -5.65856978    0.00000000
                                                     2        1.7000000        8.57604414    0.00000000
                                      P - G
                                                     0        0.0000010        0.49434425    0.00000000
                                                     2        0.1200000       -1.37391547    0.00000000
                                                     2        0.1600000        3.65411806    0.00000000
                                                     2        0.2800000       -7.36479843    0.00000000
                                                     2        0.6000000       17.22091285    0.00000000
                                                     2        1.1000000      -23.50107827    0.00000000
                                                     2        3.0000000       16.29464063    0.00000000
                                      D - G
                                                     0        0.0000010       -0.28693103    0.00000000
                                                     2        0.1200000        0.12273044    0.00000000
                                                     2        0.3000000       -0.43416384    0.00000000
                                                     2        0.7000000        2.23358493    0.00000000
                                      F - G
                                                     0        0.0000010        0.07263570    0.00000000
                                                     2        0.1400000       -0.76152861    0.00000000
                                                     2        0.2200000        1.98045593    0.00000000
                                                     2        0.4000000       -2.42426427    0.00000000
                                                     2        0.7000000        0.52335237    0.00000000
    5          6            6
                                      G and up 
                                                     0        0.0000010       -0.00286759    0.00000000
                                                     2        0.1200000        0.03193960    0.00000000
                                                     2        0.1600000       -0.04027782    0.00000000
                                                     2        0.2600000        0.24782456    0.00000000
                                                     2        0.4000000       -0.62266671    0.00000000
                                                     2        0.7000000        0.35695227    0.00000000
                                      S - G
                                                     0        0.0000010       -0.06602313    0.00000000
                                                     2        0.1200000        1.47277455    0.00000000
                                                     2        0.1600000       -4.06924166    0.00000000
                                                     2        0.3000000        5.02952802    0.00000000
                                                     2        0.7000000       -5.65856978    0.00000000
                                                     2        1.7000000        8.57604414    0.00000000
                                      P - G
                                                     0        0.0000010        0.49434425    0.00000000
                                                     2        0.1200000       -1.37391547    0.00000000
                                                     2        0.1600000        3.65411806    0.00000000
                                                     2        0.2800000       -7.36479843    0.00000000
                                                     2        0.6000000       17.22091285    0.00000000
                                                     2        1.1000000      -23.50107827    0.00000000
                                                     2        3.0000000       16.29464063    0.00000000
                                      D - G
                                                     0        0.0000010       -0.28693103    0.00000000
                                                     2        0.1200000        0.12273044    0.00000000
                                                     2        0.3000000       -0.43416384    0.00000000
                                                     2        0.7000000        2.23358493    0.00000000
                                      F - G
                                                     0        0.0000010        0.07263570    0.00000000
                                                     2        0.1400000       -0.76152861    0.00000000
                                                     2        0.2200000        1.98045593    0.00000000
                                                     2        0.4000000       -2.42426427    0.00000000
                                                     2        0.7000000        0.52335237    0.00000000
    6          6            6
                                      G and up 
                                                     0        0.0000010       -0.00286759    0.00000000
                                                     2        0.1200000        0.03193960    0.00000000
                                                     2        0.1600000       -0.04027782    0.00000000
                                                     2        0.2600000        0.24782456    0.00000000
                                                     2        0.4000000       -0.62266671    0.00000000
                                                     2        0.7000000        0.35695227    0.00000000
                                      S - G
                                                     0        0.0000010       -0.06602313    0.00000000
                                                     2        0.1200000        1.47277455    0.00000000
                                                     2        0.1600000       -4.06924166    0.00000000
                                                     2        0.3000000        5.02952802    0.00000000
                                                     2        0.7000000       -5.65856978    0.00000000
                                                     2        1.7000000        8.57604414    0.00000000
                                      P - G
                                                     0        0.0000010        0.49434425    0.00000000
                                                     2        0.1200000       -1.37391547    0.00000000
                                                     2        0.1600000        3.65411806    0.00000000
                                                     2        0.2800000       -7.36479843    0.00000000
                                                     2        0.6000000       17.22091285    0.00000000
                                                     2        1.1000000      -23.50107827    0.00000000
                                                     2        3.0000000       16.29464063    0.00000000
                                      D - G
                                                     0        0.0000010       -0.28693103    0.00000000
                                                     2        0.1200000        0.12273044    0.00000000
                                                     2        0.3000000       -0.43416384    0.00000000
                                                     2        0.7000000        2.23358493    0.00000000
                                      F - G
                                                     0        0.0000010        0.07263570    0.00000000
                                                     2        0.1400000       -0.76152861    0.00000000
                                                     2        0.2200000        1.98045593    0.00000000
                                                     2        0.4000000       -2.42426427    0.00000000
                                                     2        0.7000000        0.52335237    0.00000000
    7          6            6
                                      G and up 
                                                     0        0.0000010       -0.00286759    0.00000000
                                                     2        0.1200000        0.03193960    0.00000000
                                                     2        0.1600000       -0.04027782    0.00000000
                                                     2        0.2600000        0.24782456    0.00000000
                                                     2        0.4000000       -0.62266671    0.00000000
                                                     2        0.7000000        0.35695227    0.00000000
                                      S - G
                                                     0        0.0000010       -0.06602313    0.00000000
                                                     2        0.1200000        1.47277455    0.00000000
                                                     2        0.1600000       -4.06924166    0.00000000
                                                     2        0.3000000        5.02952802    0.00000000
                                                     2        0.7000000       -5.65856978    0.00000000
                                                     2        1.7000000        8.57604414    0.00000000
                                      P - G
                                                     0        0.0000010        0.49434425    0.00000000
                                                     2        0.1200000       -1.37391547    0.00000000
                                                     2        0.1600000        3.65411806    0.00000000
                                                     2        0.2800000       -7.36479843    0.00000000
                                                     2        0.6000000       17.22091285    0.00000000
                                                     2        1.1000000      -23.50107827    0.00000000
                                                     2        3.0000000       16.29464063    0.00000000
                                      D - G
                                                     0        0.0000010       -0.28693103    0.00000000
                                                     2        0.1200000        0.12273044    0.00000000
                                                     2        0.3000000       -0.43416384    0.00000000
                                                     2        0.7000000        2.23358493    0.00000000
                                      F - G
                                                     0        0.0000010        0.07263570    0.00000000
                                                     2        0.1400000       -0.76152861    0.00000000
                                                     2        0.2200000        1.98045593    0.00000000
                                                     2        0.4000000       -2.42426427    0.00000000
                                                     2        0.7000000        0.52335237    0.00000000
    8          1            1
                                      F and up 
                                                     0        0.0000010        0.00072061    0.00000000
                                                     2        0.1200000        0.03832357    0.00000000
                                                     2        0.1400000       -0.08683256    0.00000000
                                                     2        0.1800000        0.09312970    0.00000000
                                                     2        0.2800000       -0.02532572    0.00000000
                                                     2        0.4000000       -0.09430787    0.00000000
                                                     2        0.7000000        0.42710831    0.00000000
                                                     2        1.2000000       -2.11746981    0.00000000
                                      S - F
                                                     0        0.0000010        0.14449603    0.00000000
                                                     2        0.1200000       -0.56378993    0.00000000
                                                     2        0.1400000        0.63941249    0.00000000
                                                     2        0.2600000       -0.58461015    0.00000000
                                                     2        0.5000000        1.00157293    0.00000000
                                                     2        1.8000000       -0.14135838    0.00000000
                                      P - F
                                                     0        0.0000010       -0.09353646    0.00000000
                                                     2        0.1200000        0.31768975    0.00000000
                                                     2        0.2000000       -0.71747951    0.00000000
                                                     2        0.4000000        0.65752308    0.00000000
                                                     2        1.7000000        2.94052587    0.00000000
                                      D - F
                                                     0        0.0000010       -0.04491202    0.00000000
                                                     2        0.1200000       -0.02862031    0.00000000
                                                     2        0.1800000       -0.21515263    0.00000000
                                                     2        0.3000000        0.80560647    0.00000000
                                                     2        0.4000000        0.47351754    0.00000000
                                                     2        0.7000000       -4.57051794    0.00000000
                                                     2        1.6000000       18.53737826    0.00000000
    9          1            1
                                      F and up 
                                                     0        0.0000010        0.00072061    0.00000000
                                                     2        0.1200000        0.03832357    0.00000000
                                                     2        0.1400000       -0.08683256    0.00000000
                                                     2        0.1800000        0.09312970    0.00000000
                                                     2        0.2800000       -0.02532572    0.00000000
                                                     2        0.4000000       -0.09430787    0.00000000
                                                     2        0.7000000        0.42710831    0.00000000
                                                     2        1.2000000       -2.11746981    0.00000000
                                      S - F
                                                     0        0.0000010        0.14449603    0.00000000
                                                     2        0.1200000       -0.56378993    0.00000000
                                                     2        0.1400000        0.63941249    0.00000000
                                                     2        0.2600000       -0.58461015    0.00000000
                                                     2        0.5000000        1.00157293    0.00000000
                                                     2        1.8000000       -0.14135838    0.00000000
                                      P - F
                                                     0        0.0000010       -0.09353646    0.00000000
                                                     2        0.1200000        0.31768975    0.00000000
                                                     2        0.2000000       -0.71747951    0.00000000
                                                     2        0.4000000        0.65752308    0.00000000
                                                     2        1.7000000        2.94052587    0.00000000
                                      D - F
                                                     0        0.0000010       -0.04491202    0.00000000
                                                     2        0.1200000       -0.02862031    0.00000000
                                                     2        0.1800000       -0.21515263    0.00000000
                                                     2        0.3000000        0.80560647    0.00000000
                                                     2        0.4000000        0.47351754    0.00000000
                                                     2        0.7000000       -4.57051794    0.00000000
                                                     2        1.6000000       18.53737826    0.00000000
   10          1            1
                                      F and up 
                                                     0        0.0000010        0.00072061    0.00000000
                                                     2        0.1200000        0.03832357    0.00000000
                                                     2        0.1400000       -0.08683256    0.00000000
                                                     2        0.1800000        0.09312970    0.00000000
                                                     2        0.2800000       -0.02532572    0.00000000
                                                     2        0.4000000       -0.09430787    0.00000000
                                                     2        0.7000000        0.42710831    0.00000000
                                                     2        1.2000000       -2.11746981    0.00000000
                                      S - F
                                                     0        0.0000010        0.14449603    0.00000000
                                                     2        0.1200000       -0.56378993    0.00000000
                                                     2        0.1400000        0.63941249    0.00000000
                                                     2        0.2600000       -0.58461015    0.00000000
                                                     2        0.5000000        1.00157293    0.00000000
                                                     2        1.8000000       -0.14135838    0.00000000
                                      P - F
                                                     0        0.0000010       -0.09353646    0.00000000
                                                     2        0.1200000        0.31768975    0.00000000
                                                     2        0.2000000       -0.71747951    0.00000000
                                                     2        0.4000000        0.65752308    0.00000000
                                                     2        1.7000000        2.94052587    0.00000000
                                      D - F
                                                     0        0.0000010       -0.04491202    0.00000000
                                                     2        0.1200000       -0.02862031    0.00000000
                                                     2        0.1800000       -0.21515263    0.00000000
                                                     2        0.3000000        0.80560647    0.00000000
                                                     2        0.4000000        0.47351754    0.00000000
                                                     2        0.7000000       -4.57051794    0.00000000
                                                     2        1.6000000       18.53737826    0.00000000
   11          1            1
                                      F and up 
                                                     0        0.0000010        0.00072061    0.00000000
                                                     2        0.1200000        0.03832357    0.00000000
                                                     2        0.1400000       -0.08683256    0.00000000
                                                     2        0.1800000        0.09312970    0.00000000
                                                     2        0.2800000       -0.02532572    0.00000000
                                                     2        0.4000000       -0.09430787    0.00000000
                                                     2        0.7000000        0.42710831    0.00000000
                                                     2        1.2000000       -2.11746981    0.00000000
                                      S - F
                                                     0        0.0000010        0.14449603    0.00000000
                                                     2        0.1200000       -0.56378993    0.00000000
                                                     2        0.1400000        0.63941249    0.00000000
                                                     2        0.2600000       -0.58461015    0.00000000
                                                     2        0.5000000        1.00157293    0.00000000
                                                     2        1.8000000       -0.14135838    0.00000000
                                      P - F
                                                     0        0.0000010       -0.09353646    0.00000000
                                                     2        0.1200000        0.31768975    0.00000000
                                                     2        0.2000000       -0.71747951    0.00000000
                                                     2        0.4000000        0.65752308    0.00000000
                                                     2        1.7000000        2.94052587    0.00000000
                                      D - F
                                                     0        0.0000010       -0.04491202    0.00000000
                                                     2        0.1200000       -0.02862031    0.00000000
                                                     2        0.1800000       -0.21515263    0.00000000
                                                     2        0.3000000        0.80560647    0.00000000
                                                     2        0.4000000        0.47351754    0.00000000
                                                     2        0.7000000       -4.57051794    0.00000000
                                                     2        1.6000000       18.53737826    0.00000000
   12          1            1
                                      F and up 
                                                     0        0.0000010        0.00072061    0.00000000
                                                     2        0.1200000        0.03832357    0.00000000
                                                     2        0.1400000       -0.08683256    0.00000000
                                                     2        0.1800000        0.09312970    0.00000000
                                                     2        0.2800000       -0.02532572    0.00000000
                                                     2        0.4000000       -0.09430787    0.00000000
                                                     2        0.7000000        0.42710831    0.00000000
                                                     2        1.2000000       -2.11746981    0.00000000
                                      S - F
                                                     0        0.0000010        0.14449603    0.00000000
                                                     2        0.1200000       -0.56378993    0.00000000
                                                     2        0.1400000        0.63941249    0.00000000
                                                     2        0.2600000       -0.58461015    0.00000000
                                                     2        0.5000000        1.00157293    0.00000000
                                                     2        1.8000000       -0.14135838    0.00000000
                                      P - F
                                                     0        0.0000010       -0.09353646    0.00000000
                                                     2        0.1200000        0.31768975    0.00000000
                                                     2        0.2000000       -0.71747951    0.00000000
                                                     2        0.4000000        0.65752308    0.00000000
                                                     2        1.7000000        2.94052587    0.00000000
                                      D - F
                                                     0        0.0000010       -0.04491202    0.00000000
                                                     2        0.1200000       -0.02862031    0.00000000
                                                     2        0.1800000       -0.21515263    0.00000000
                                                     2        0.3000000        0.80560647    0.00000000
                                                     2        0.4000000        0.47351754    0.00000000
                                                     2        0.7000000       -4.57051794    0.00000000
                                                     2        1.6000000       18.53737826    0.00000000
   13          1            1
                                      F and up 
                                                     0        0.0000010        0.00072061    0.00000000
                                                     2        0.1200000        0.03832357    0.00000000
                                                     2        0.1400000       -0.08683256    0.00000000
                                                     2        0.1800000        0.09312970    0.00000000
                                                     2        0.2800000       -0.02532572    0.00000000
                                                     2        0.4000000       -0.09430787    0.00000000
                                                     2        0.7000000        0.42710831    0.00000000
                                                     2        1.2000000       -2.11746981    0.00000000
                                      S - F
                                                     0        0.0000010        0.14449603    0.00000000
                                                     2        0.1200000       -0.56378993    0.00000000
                                                     2        0.1400000        0.63941249    0.00000000
                                                     2        0.2600000       -0.58461015    0.00000000
                                                     2        0.5000000        1.00157293    0.00000000
                                                     2        1.8000000       -0.14135838    0.00000000
                                      P - F
                                                     0        0.0000010       -0.09353646    0.00000000
                                                     2        0.1200000        0.31768975    0.00000000
                                                     2        0.2000000       -0.71747951    0.00000000
                                                     2        0.4000000        0.65752308    0.00000000
                                                     2        1.7000000        2.94052587    0.00000000
                                      D - F
                                                     0        0.0000010       -0.04491202    0.00000000
                                                     2        0.1200000       -0.02862031    0.00000000
                                                     2        0.1800000       -0.21515263    0.00000000
                                                     2        0.3000000        0.80560647    0.00000000
                                                     2        0.4000000        0.47351754    0.00000000
                                                     2        0.7000000       -4.57051794    0.00000000
                                                     2        1.6000000       18.53737826    0.00000000
   14          1            1
                                      F and up 
                                                     0        0.0000010        0.00072061    0.00000000
                                                     2        0.1200000        0.03832357    0.00000000
                                                     2        0.1400000       -0.08683256    0.00000000
                                                     2        0.1800000        0.09312970    0.00000000
                                                     2        0.2800000       -0.02532572    0.00000000
                                                     2        0.4000000       -0.09430787    0.00000000
                                                     2        0.7000000        0.42710831    0.00000000
                                                     2        1.2000000       -2.11746981    0.00000000
                                      S - F
                                                     0        0.0000010        0.14449603    0.00000000
                                                     2        0.1200000       -0.56378993    0.00000000
                                                     2        0.1400000        0.63941249    0.00000000
                                                     2        0.2600000       -0.58461015    0.00000000
                                                     2        0.5000000        1.00157293    0.00000000
                                                     2        1.8000000       -0.14135838    0.00000000
                                      P - F
                                                     0        0.0000010       -0.09353646    0.00000000
                                                     2        0.1200000        0.31768975    0.00000000
                                                     2        0.2000000       -0.71747951    0.00000000
                                                     2        0.4000000        0.65752308    0.00000000
                                                     2        1.7000000        2.94052587    0.00000000
                                      D - F
                                                     0        0.0000010       -0.04491202    0.00000000
                                                     2        0.1200000       -0.02862031    0.00000000
                                                     2        0.1800000       -0.21515263    0.00000000
                                                     2        0.3000000        0.80560647    0.00000000
                                                     2        0.4000000        0.47351754    0.00000000
                                                     2        0.7000000       -4.57051794    0.00000000
                                                     2        1.6000000       18.53737826    0.00000000
   15          1            1
                                      F and up 
                                                     0        0.0000010        0.00072061    0.00000000
                                                     2        0.1200000        0.03832357    0.00000000
                                                     2        0.1400000       -0.08683256    0.00000000
                                                     2        0.1800000        0.09312970    0.00000000
                                                     2        0.2800000       -0.02532572    0.00000000
                                                     2        0.4000000       -0.09430787    0.00000000
                                                     2        0.7000000        0.42710831    0.00000000
                                                     2        1.2000000       -2.11746981    0.00000000
                                      S - F
                                                     0        0.0000010        0.14449603    0.00000000
                                                     2        0.1200000       -0.56378993    0.00000000
                                                     2        0.1400000        0.63941249    0.00000000
                                                     2        0.2600000       -0.58461015    0.00000000
                                                     2        0.5000000        1.00157293    0.00000000
                                                     2        1.8000000       -0.14135838    0.00000000
                                      P - F
                                                     0        0.0000010       -0.09353646    0.00000000
                                                     2        0.1200000        0.31768975    0.00000000
                                                     2        0.2000000       -0.71747951    0.00000000
                                                     2        0.4000000        0.65752308    0.00000000
                                                     2        1.7000000        2.94052587    0.00000000
                                      D - F
                                                     0        0.0000010       -0.04491202    0.00000000
                                                     2        0.1200000       -0.02862031    0.00000000
                                                     2        0.1800000       -0.21515263    0.00000000
                                                     2        0.3000000        0.80560647    0.00000000
                                                     2        0.4000000        0.47351754    0.00000000
                                                     2        0.7000000       -4.57051794    0.00000000
                                                     2        1.6000000       18.53737826    0.00000000
 ======================================================================================================
   233 basis functions,   389 primitive gaussians,   247 cartesian basis functions
    26 alpha electrons       26 beta electrons
       nuclear repulsion energy       319.8220147302 Hartrees.
 NAtoms=   15 NActive=   15 NUniq=   15 SFac= 1.00D+00 NAtFMM=   60 NAOKFM=F Big=F
   1 Symmetry operations used in ECPInt.
 ECPInt:  NShTT=    5356 NPrTT=   23992 LenC2=    5357 LenP2D=   19750.
 LDataN:  DoStor=T MaxTD1= 6 Len=  172
 Initial guess from the checkpoint file:  "Grambow2020_wb97xd3_008170_forward_mol2.chk"
 B after Tr=     0.000249   -0.362909    0.000345
         Rot=    0.112194    0.992515    0.047988    0.004826 Ang= 167.12 deg.
 >>>>>>>>>> Convergence criterion not met.
 SCF Done:  E(RHF) =  -308.115312858     A.U. after    2 cycles
            NFock=  1  Conv=0.21D+01     -V/T= 2.0042

 **********************************************************************

            Population analysis using the SCF Density.

 **********************************************************************

 Orbital symmetries:
       Occupied  (A) (A) (A) (A) (A) (A) (A) (A) (A) (A) (A) (A)
                 (A) (A) (A) (A) (A) (A) (A) (A) (A) (A) (A) (A)
                 (A) (A)
       Virtual   (A) (A) (A) (A) (A) (A) (A) (A) (A) (A) (A) (A)
                 (A) (A) (A) (A) (A) (A) (A) (A) (A) (A) (A) (A)
                 (A) (A) (A) (A) (A) (A) (A) (A) (A) (A) (A) (A)
                 (A) (A) (A) (A) (A) (A) (A) (A) (A) (A) (A) (A)
                 (A) (A) (A) (A) (A) (A) (A) (A) (A) (A) (A) (A)
                 (A) (A) (A) (A) (A) (A) (A) (A) (A) (A) (A) (A)
                 (A) (A) (A) (A) (A) (A) (A) (A) (A) (A) (A) (A)
                 (A) (A) (A) (A) (A) (A) (A) (A) (A) (A) (A) (A)
                 (A) (A) (A) (A) (A) (A) (A) (A) (A) (A) (A) (A)
                 (A) (A) (A) (A) (A) (A) (A) (A) (A) (A) (A) (A)
                 (A) (A) (A) (A) (A) (A) (A) (A) (A) (A) (A) (A)
                 (A) (A) (A) (A) (A) (A) (A) (A) (A) (A) (A) (A)
                 (A) (A) (A) (A) (A) (A) (A) (A) (A) (A) (A) (A)
                 (A) (A) (A) (A) (A) (A) (A) (A) (A) (A) (A) (A)
                 (A) (A) (A) (A) (A) (A) (A) (A) (A) (A) (A) (A)
                 (A) (A) (A) (A) (A) (A) (A) (A) (A) (A) (A) (A)
                 (A) (A) (A) (A) (A) (A) (A) (A) (A) (A) (A) (A)
                 (A) (A) (A)
 The electronic state is 1-A.
 Alpha  occ. eigenvalues --  -21.03192 -11.52575 -11.47579 -11.43562 -11.41935
 Alpha  occ. eigenvalues --  -11.40209 -11.34661  -1.80618  -1.32858  -1.12716
 Alpha  occ. eigenvalues --   -0.97794  -0.89510  -0.80320  -0.77413  -0.74107
 Alpha  occ. eigenvalues --   -0.64130  -0.63257  -0.59318  -0.47594  -0.46689
 Alpha  occ. eigenvalues --   -0.45443  -0.44603  -0.42461  -0.38524  -0.35124
 Alpha  occ. eigenvalues --   -0.27542
 Alpha virt. eigenvalues --    0.04032   0.04485   0.05089   0.05445   0.05620
 Alpha virt. eigenvalues --    0.06405   0.06447   0.06847   0.10975   0.12184
 Alpha virt. eigenvalues --    0.12298   0.12907   0.13361   0.13667   0.14355
 Alpha virt. eigenvalues --    0.15010   0.15266   0.16061   0.16354   0.16862
 Alpha virt. eigenvalues --    0.17005   0.18503   0.18900   0.18987   0.20049
 Alpha virt. eigenvalues --    0.20138   0.20501   0.23800   0.25995   0.27477
 Alpha virt. eigenvalues --    0.27576   0.27711   0.29491   0.30996   0.33242
 Alpha virt. eigenvalues --    0.33957   0.34755   0.36487   0.36868   0.37315
 Alpha virt. eigenvalues --    0.37963   0.38947   0.39403   0.40037   0.42525
 Alpha virt. eigenvalues --    0.43101   0.44090   0.44354   0.44829   0.45165
 Alpha virt. eigenvalues --    0.45712   0.46043   0.46461   0.47601   0.50443
 Alpha virt. eigenvalues --    0.50719   0.52079   0.52797   0.54146   0.54455
 Alpha virt. eigenvalues --    0.56126   0.57662   0.59307   0.59319   0.60465
 Alpha virt. eigenvalues --    0.60609   0.61925   0.62679   0.64448   0.64479
 Alpha virt. eigenvalues --    0.65540   0.66149   0.66233   0.67549   0.69913
 Alpha virt. eigenvalues --    0.70338   0.72245   0.72610   0.72905   0.74213
 Alpha virt. eigenvalues --    0.75689   0.76219   0.76454   0.77363   0.79616
 Alpha virt. eigenvalues --    0.80656   0.80745   0.82546   0.82654   0.83103
 Alpha virt. eigenvalues --    0.84217   0.84944   0.87103   0.88045   0.89424
 Alpha virt. eigenvalues --    0.90905   0.92404   0.93256   0.93573   0.95873
 Alpha virt. eigenvalues --    0.97492   0.98123   0.99343   1.02534   1.03871
 Alpha virt. eigenvalues --    1.05731   1.08652   1.18277   1.18909   1.26273
 Alpha virt. eigenvalues --    1.31135   1.33202   1.35569   1.36931   1.42233
 Alpha virt. eigenvalues --    1.42527   1.43846   1.52043   1.52565   1.59642
 Alpha virt. eigenvalues --    1.59683   1.65140   1.65523   1.68263   1.69831
 Alpha virt. eigenvalues --    1.74327   1.74773   1.77877   1.81379   1.81386
 Alpha virt. eigenvalues --    1.89665   1.89679   1.92018   1.95241   1.95529
 Alpha virt. eigenvalues --    1.97179   1.97378   2.00441   2.01336   2.02271
 Alpha virt. eigenvalues --    2.07223   2.08140   2.09910   2.12045   2.14738
 Alpha virt. eigenvalues --    2.17228   2.18392   2.20328   2.21983   2.24213
 Alpha virt. eigenvalues --    2.27978   2.32708   2.34295   2.39215   2.39405
 Alpha virt. eigenvalues --    2.40712   2.45364   2.48169   2.49941   2.52272
 Alpha virt. eigenvalues --    2.53259   2.55294   2.58463   2.58827   2.61483
 Alpha virt. eigenvalues --    2.62799   2.65398   2.66094   2.67868   2.71931
 Alpha virt. eigenvalues --    2.73343   2.74797   2.79908   2.82364   2.86523
 Alpha virt. eigenvalues --    2.90803   2.91158   2.96083   2.96661   2.98063
 Alpha virt. eigenvalues --    3.06514   3.08666   3.18778   3.21132   3.24886
 Alpha virt. eigenvalues --    3.28537   3.33074   3.38156   3.42170   3.49029
 Alpha virt. eigenvalues --    3.54353   3.58665   3.65371   3.67673   3.80584
 Alpha virt. eigenvalues --    3.91857   3.99137   4.06428   4.26403   4.37077
 Alpha virt. eigenvalues --    4.74437   4.77487   6.22154   6.23118   6.28420
 Alpha virt. eigenvalues --    6.36855   6.47587
          Condensed to atoms (all electrons):
 Mulliken charges:
               1
     1  C   -2.967935
     2  C    0.602961
     3  O   -3.607539
     4  C    0.605165
     5  C   -2.966086
     6  C   -1.536905
     7  C   -1.535891
     8  H    1.264287
     9  H    1.330698
    10  H    1.639209
    11  H    1.640121
    12  H    1.263972
    13  H    1.330456
    14  H    1.468464
    15  H    1.469022
 Sum of Mulliken charges =  -0.00000
 Mulliken charges with hydrogens summed into heavy atoms:
               1
     1  C   -0.372949
     2  C    2.242170
     3  O   -3.607539
     4  C    2.245286
     5  C   -0.371658
     6  C   -0.068442
     7  C   -0.066868
 Electronic spatial extent (au):  <R**2>=            551.6971
 Charge=              0.0000 electrons
 Dipole moment (field-independent basis, Debye):
    X=              0.0004    Y=             -0.7298    Z=              0.0008  Tot=              0.7298

 Test job not archived.
 1\1\GINC-SE231\SP\RHF\Aug-CC-pVDZ\C6H8O1\OHZDE\09-Apr-2025\0\\#t hf au
 g-cc-pvdz iop(5/13=1,5/36=2,99/5=2) pseudo=read geom=check guess=(read
 ,tcheck) scf=(maxcycle=1)\\title\\0,1\C,0,-1.6054966,-0.13289782,-0.25
 210139\C,0,-0.66977088,-0.48204093,0.91387453\O,0,0.14567822,-1.507951
 31,0.3471901\C,0,0.78393481,-0.69943143,-0.64119109\C,0,1.5906528,0.28
 476003,0.21738629\C,0,0.19596436,0.79061234,0.57513177\C,0,-0.31254338
 ,0.41265165,-0.85158263\H,0,-2.12729403,-0.96196121,-0.73076273\H,0,-2
 .29250754,0.67882226,-0.00876175\H,0,-1.00573346,-0.74943004,1.9121817
 7\H,0,1.20523577,-1.30586825,-1.43846875\H,0,2.23584762,-0.14313366,0.
 98509486\H,0,2.12702205,1.02044928,-0.38358503\H,0,-0.02816767,1.73010
 229,1.07342532\H,0,-0.24282205,1.0653168,-1.71783125\\Version=ES64L-G1
 6RevC.01\State=1-A\HF=-308.1153129\RMSD=2.097e+00\Dipole=-0.026871,0.2
 785159,-0.0643863\Quadrupole=-0.0440102,-1.090117,1.1341272,-0.1267639
 ,-1.0210159,0.4329083\PG=C01 [X(C6H8O1)]\\@


 WHEN ALL ELSE FAILS, LOOK AT THE SCHRODINGER EQUATION.
     -- RUSSELL T. PACK, APRIL 1978
 Job cpu time:       0 days  0 hours  1 minutes  3.6 seconds.
 Elapsed time:       0 days  0 hours  0 minutes  4.9 seconds.
 File lengths (MBytes):  RWF=     10 Int=      0 D2E=      0 Chk=      8 Scr=      1
 Normal termination of Gaussian 16 at Wed Apr  9 19:09:01 2025.
