 Entering Gaussian System, Link 0=g16
 Input=Grambow2020_wb97xd3_007084_reverse_mol2.gjf
 Output=Grambow2020_wb97xd3_007084_reverse_mol2.log
 Initial command:
 /arc/software/Gaussian/g16.c01/l1.exe "/tmp/slurm/4865042/Gau-2578391.inp" -scrdir="/tmp/slurm/4865042/"
 Entering Link 1 = /arc/software/Gaussian/g16.c01/l1.exe PID=   2578392.
  
 Copyright (c) 1988-2019, Gaussian, Inc.  All Rights Reserved.
  
 This is part of the Gaussian(R) 16 program.  It is based on
 the Gaussian(R) 09 system (copyright 2009, Gaussian, Inc.),
 the Gaussian(R) 03 system (copyright 2003, Gaussian, Inc.),
 the Gaussian(R) 98 system (copyright 1998, Gaussian, Inc.),
 the Gaussian(R) 94 system (copyright 1995, Gaussian, Inc.),
 the Gaussian 92(TM) system (copyright 1992, Gaussian, Inc.),
 the Gaussian 90(TM) system (copyright 1990, Gaussian, Inc.),
 the Gaussian 88(TM) system (copyright 1988, Gaussian, Inc.),
 the Gaussian 86(TM) system (copyright 1986, Carnegie Mellon
 University), and the Gaussian 82(TM) system (copyright 1983,
 Carnegie Mellon University). Gaussian is a federally registered
 trademark of Gaussian, Inc.
  
 This software contains proprietary and confidential information,
 including trade secrets, belonging to Gaussian, Inc.
  
 This software is provided under written license and may be
 used, copied, transmitted, or stored only in accord with that
 written license.
  
 The following legend is applicable only to US Government
 contracts under FAR:
  
                    RESTRICTED RIGHTS LEGEND
  
 Use, reproduction and disclosure by the US Government is
 subject to restrictions as set forth in subparagraphs (a)
 and (c) of the Commercial Computer Software - Restricted
 Rights clause in FAR 52.227-19.
  
 Gaussian, Inc.
 340 Quinnipiac St., Bldg. 40, Wallingford CT 06492
  
  
 ---------------------------------------------------------------
 Warning -- This program may not be used in any manner that
 competes with the business of Gaussian, Inc. or will provide
 assistance to any competitor of Gaussian, Inc.  The licensee
 of this program is prohibited from giving any competitor of
 Gaussian, Inc. access to this program.  By using this program,
 the user acknowledges that Gaussian, Inc. is engaged in the
 business of creating and licensing software in the field of
 computational chemistry and represents and warrants to the
 licensee that it is not a competitor of Gaussian, Inc. and that
 it will not use this program in any manner prohibited above.
 ---------------------------------------------------------------
  

 Cite this work as:
 Gaussian 16, Revision C.01,
 M. J. Frisch, G. W. Trucks, H. B. Schlegel, G. E. Scuseria, 
 M. A. Robb, J. R. Cheeseman, G. Scalmani, V. Barone, 
 G. A. Petersson, H. Nakatsuji, X. Li, M. Caricato, A. V. Marenich, 
 J. Bloino, B. G. Janesko, R. Gomperts, B. Mennucci, H. P. Hratchian, 
 J. V. Ortiz, A. F. Izmaylov, J. L. Sonnenberg, D. Williams-Young, 
 F. Ding, F. Lipparini, F. Egidi, J. Goings, B. Peng, A. Petrone, 
 T. Henderson, D. Ranasinghe, V. G. Zakrzewski, J. Gao, N. Rega, 
 G. Zheng, W. Liang, M. Hada, M. Ehara, K. Toyota, R. Fukuda, 
 J. Hasegawa, M. Ishida, T. Nakajima, Y. Honda, O. Kitao, H. Nakai, 
 T. Vreven, K. Throssell, J. A. Montgomery, Jr., J. E. Peralta, 
 F. Ogliaro, M. J. Bearpark, J. J. Heyd, E. N. Brothers, K. N. Kudin, 
 V. N. Staroverov, T. A. Keith, R. Kobayashi, J. Normand, 
 K. Raghavachari, A. P. Rendell, J. C. Burant, S. S. Iyengar, 
 J. Tomasi, M. Cossi, J. M. Millam, M. Klene, C. Adamo, R. Cammi, 
 J. W. Ochterski, R. L. Martin, K. Morokuma, O. Farkas, 
 J. B. Foresman, and D. J. Fox, Gaussian, Inc., Wallingford CT, 2019.
 
 ******************************************
 Gaussian 16:  ES64L-G16RevC.01  3-Jul-2019
                 9-Apr-2025 
 ******************************************
 %nprocs=16
 Will use up to   16 processors via shared memory.
 %mem=30GB
 %chk=Grambow2020_wb97xd3_007084_reverse_mol2.chk
 ----------------------------------------------------------------------
 #t hf aug-cc-pvdz symm=none int=(grid=ultrafine) guess=(read,tcheck) s
 table=(opt,rrhf)
 ----------------------------------------------------------------------
 -----
 title
 -----
 Symbolic Z-matrix:
 Charge =  0 Multiplicity = 1
 O                     1.11279   2.21313   0.66488 
 C                     0.63419   1.10618   0.56577 
 N                     1.26077  -0.06787   0.3651 
 C                     0.54229  -1.30824   0.14937 
 C                    -0.70018  -0.64926   0.55809 
 O                    -1.10365  -0.27531   1.71048 
 C                    -0.86181   0.76982   0.60144 
 H                     0.04092   0.60507  -2.36465 
 H                     0.8216   -2.10654   0.83675 
 H                     0.56831  -1.64297  -0.88759 
 H                    -0.58536   0.3203   -2.65366 
 H                    -1.74132   1.32915   0.32031 
 
                    Distance matrix (angstroms):
                    1          2          3          4          5
     1  O    0.000000
     2  C    1.210044   0.000000
     3  N    2.305373   1.345838   0.000000
     4  C    3.604344   2.451794   1.449579   0.000000
     5  C    3.389920   2.205042   2.054409   1.464592   0.000000
     6  O    3.492596   2.497800   2.728295   2.492615   1.276961
     7  C    2.446678   1.533771   2.294112   2.548371   1.428913
     8  H    3.593437   3.031568   3.064697   3.198813   3.265729
     9  H    4.332886   3.229576   2.138107   1.089854   2.125351
    10  H    4.192387   3.110373   2.128299   1.089957   2.164832
    11  H    4.180811   3.531233   3.559741   3.432306   3.356874
    12  H    3.007672   2.398547   3.311532   3.492839   2.248252
                    6          7          8          9         10
     6  O    0.000000
     7  C    1.542967   0.000000
     8  H    4.323399   3.104793   0.000000
     9  H    2.797036   3.341060   4.267457   0.000000
    10  H    3.378742   3.175526   2.741072   1.803441   0.000000
    11  H    4.434986   3.297598   0.746220   4.477951   2.881730
    12  H    2.216642   1.079548   3.302977   4.317320   3.953081
                   11         12
    11  H    0.000000
    12  H    3.346413   0.000000
 Symmetry turned off by external request.
 Rotational constants (GHZ):           4.4203070           2.8357614           2.1971350
   206 basis functions,   356 primitive gaussians,   220 cartesian basis functions
    26 alpha electrons       26 beta electrons
       nuclear repulsion energy       299.3637818555 Hartrees.
 NAtoms=   12 NActive=   12 NUniq=   12 SFac= 1.00D+00 NAtFMM=   60 NAOKFM=F Big=F
 ExpMin= 2.97D-02 ExpMax= 1.17D+04 ExpMxC= 4.01D+02 IAcc=3 IRadAn=         5 AccDes= 0.00D+00
 Harris functional with IExCor=  205 and IRadAn=       5 diagonalized for initial guess.
 HarFok:  IExCor=  205 AccDes= 0.00D+00 IRadAn=         5 IDoV= 1 UseB2=F ITyADJ=14
 ICtDFT=  3500011 ScaDFX=  1.000000  1.000000  1.000000  1.000000
 FoFCou: FMM=F IPFlag=           0 FMFlag=      100000 FMFlg1=           0
         NFxFlg=           0 DoJE=T BraDBF=F KetDBF=T FulRan=T
         wScrn=  0.000000 ICntrl=       500 IOpCl=  0 I1Cent=   200000004 NGrid=           0
         NMat0=    1 NMatS0=      1 NMatT0=    0 NMatD0=    1 NMtDS0=    0 NMtDT0=    0
 Symmetry not used in FoFCou.
 SCF Done:  E(RHF) =  -358.358878869     A.U. after   17 cycles
            NFock= 17  Conv=0.63D-08     -V/T= 2.0011

 **********************************************************************

            Population analysis using the SCF Density.

 **********************************************************************

 Alpha  occ. eigenvalues --  -20.71101 -20.52339 -15.56119 -11.43988 -11.37754
 Alpha  occ. eigenvalues --  -11.36558 -11.34036  -1.57084  -1.37924  -1.25162
 Alpha  occ. eigenvalues --   -1.04450  -1.00628  -0.85826  -0.80011  -0.73481
 Alpha  occ. eigenvalues --   -0.71077  -0.70135  -0.65456  -0.61802  -0.60814
 Alpha  occ. eigenvalues --   -0.59999  -0.55289  -0.51422  -0.43243  -0.39613
 Alpha  occ. eigenvalues --   -0.36165
 Alpha virt. eigenvalues --    0.00261   0.03083   0.03440   0.04588   0.06500
 Alpha virt. eigenvalues --    0.06977   0.07947   0.08933   0.09991   0.10425
 Alpha virt. eigenvalues --    0.12567   0.12918   0.13666   0.14198   0.14225
 Alpha virt. eigenvalues --    0.15178   0.15533   0.16077   0.17071   0.18079
 Alpha virt. eigenvalues --    0.19571   0.20395   0.22607   0.24344   0.25418
 Alpha virt. eigenvalues --    0.26076   0.27237   0.27716   0.28523   0.30245
 Alpha virt. eigenvalues --    0.30704   0.31845   0.32367   0.32937   0.34310
 Alpha virt. eigenvalues --    0.34774   0.35755   0.36980   0.37120   0.37774
 Alpha virt. eigenvalues --    0.39306   0.40106   0.41638   0.42472   0.43772
 Alpha virt. eigenvalues --    0.44164   0.45317   0.45967   0.48331   0.49559
 Alpha virt. eigenvalues --    0.50407   0.52463   0.52942   0.55431   0.55498
 Alpha virt. eigenvalues --    0.56826   0.57088   0.58953   0.59743   0.60274
 Alpha virt. eigenvalues --    0.61205   0.63327   0.64262   0.65710   0.68759
 Alpha virt. eigenvalues --    0.68953   0.70848   0.71681   0.73103   0.73575
 Alpha virt. eigenvalues --    0.74070   0.75262   0.77317   0.78232   0.78907
 Alpha virt. eigenvalues --    0.79848   0.83346   0.84471   0.85768   0.87814
 Alpha virt. eigenvalues --    0.90091   0.92457   0.93317   0.96201   0.98207
 Alpha virt. eigenvalues --    1.00027   1.00676   1.01403   1.06002   1.07887
 Alpha virt. eigenvalues --    1.09809   1.11225   1.12436   1.15963   1.18168
 Alpha virt. eigenvalues --    1.21225   1.24579   1.25104   1.28316   1.31120
 Alpha virt. eigenvalues --    1.34535   1.35718   1.36849   1.37592   1.41214
 Alpha virt. eigenvalues --    1.43527   1.45167   1.45954   1.49883   1.51566
 Alpha virt. eigenvalues --    1.52894   1.56675   1.58494   1.61829   1.63531
 Alpha virt. eigenvalues --    1.67390   1.68020   1.69948   1.72048   1.73888
 Alpha virt. eigenvalues --    1.75888   1.78369   1.80509   1.82574   1.85025
 Alpha virt. eigenvalues --    1.88150   1.89896   1.92960   1.94836   1.99813
 Alpha virt. eigenvalues --    2.04798   2.07520   2.09743   2.11384   2.14572
 Alpha virt. eigenvalues --    2.14960   2.20173   2.21594   2.24239   2.25803
 Alpha virt. eigenvalues --    2.28072   2.29824   2.31529   2.35300   2.36866
 Alpha virt. eigenvalues --    2.38041   2.41246   2.47339   2.51307   2.54517
 Alpha virt. eigenvalues --    2.55522   2.59431   2.64510   2.66098   2.70876
 Alpha virt. eigenvalues --    2.79541   2.83055   2.88305   2.92781   2.96187
 Alpha virt. eigenvalues --    3.00442   3.07048   3.12432   3.18586   3.26014
 Alpha virt. eigenvalues --    3.32808   3.48580   3.53638   3.60493   3.67883
 Alpha virt. eigenvalues --    3.71483   3.77391   3.80741   3.84181   3.85463
 Alpha virt. eigenvalues --    3.90114   3.91764   3.97393   4.06672   4.22730
          Condensed to atoms (all electrons):
 Mulliken charges:
               1
     1  O   -0.728523
     2  C    0.608444
     3  N   -0.772753
     4  C    1.016077
     5  C    0.151627
     6  O   -0.775807
     7  C    0.729160
     8  H    0.046299
     9  H    0.002838
    10  H   -0.055565
    11  H   -0.009184
    12  H   -0.212611
 Sum of Mulliken charges =  -0.00000
 Mulliken charges with hydrogens summed into heavy atoms:
               1
     1  O   -0.728523
     2  C    0.654742
     3  N   -0.772753
     4  C    0.963349
     5  C    0.151627
     6  O   -0.775807
     7  C    0.507365
 Electronic spatial extent (au):  <R**2>=            699.5626
 Charge=             -0.0000 electrons
 Dipole moment (field-independent basis, Debye):
    X=             -5.2760    Y=             -4.7336    Z=             -1.6452  Tot=              7.2767
 NROrb=    206 NOA=    26 NOB=    26 NVA=   180 NVB=   180

 **** Warning!!: The largest alpha MO coefficient is  0.37812612D+02

    12 initial guesses have been made.
 Iteration     1 Dimension    12 NMult     0 NNew     12
 Iteration     2 Dimension    24 NMult    12 NNew     12
 Iteration     3 Dimension    27 NMult    24 NNew      3
 Iteration     4 Dimension    30 NMult    27 NNew      3
 Iteration     5 Dimension    33 NMult    30 NNew      3
 Iteration     6 Dimension    36 NMult    33 NNew      3
 ***********************************************************************
 Stability analysis using <AA,BB:AA,BB> singles matrix:
 ***********************************************************************
 Ground to excited state transition densities written to RWF  633

 Eigenvectors of the stability matrix:
 
 Excited state symmetry could not be determined.
 Eigenvector   1:      Singlet-?Sym  Eigenvalue= 0.1237473  <S**2>=0.000
      23 -> 27         0.12295
      25 -> 27        -0.11016
      26 -> 27         0.58298
      26 -> 28         0.24144
      26 -> 31        -0.12174
 The wavefunction is stable under the perturbations considered.
 The wavefunction is already stable.

 **********************************************************************

            Population analysis using the SCF Density.

 **********************************************************************

 Alpha  occ. eigenvalues --  -20.71101 -20.52339 -15.56119 -11.43988 -11.37754
 Alpha  occ. eigenvalues --  -11.36558 -11.34036  -1.57084  -1.37924  -1.25162
 Alpha  occ. eigenvalues --   -1.04450  -1.00628  -0.85826  -0.80011  -0.73481
 Alpha  occ. eigenvalues --   -0.71077  -0.70135  -0.65456  -0.61802  -0.60814
 Alpha  occ. eigenvalues --   -0.59999  -0.55289  -0.51422  -0.43243  -0.39613
 Alpha  occ. eigenvalues --   -0.36165
 Alpha virt. eigenvalues --    0.00261   0.03083   0.03440   0.04588   0.06500
 Alpha virt. eigenvalues --    0.06977   0.07947   0.08933   0.09991   0.10425
 Alpha virt. eigenvalues --    0.12567   0.12918   0.13666   0.14198   0.14225
 Alpha virt. eigenvalues --    0.15178   0.15533   0.16077   0.17071   0.18079
 Alpha virt. eigenvalues --    0.19571   0.20395   0.22607   0.24344   0.25418
 Alpha virt. eigenvalues --    0.26076   0.27237   0.27716   0.28523   0.30245
 Alpha virt. eigenvalues --    0.30704   0.31845   0.32367   0.32937   0.34310
 Alpha virt. eigenvalues --    0.34774   0.35755   0.36980   0.37120   0.37774
 Alpha virt. eigenvalues --    0.39306   0.40106   0.41638   0.42472   0.43772
 Alpha virt. eigenvalues --    0.44164   0.45317   0.45967   0.48331   0.49559
 Alpha virt. eigenvalues --    0.50407   0.52463   0.52942   0.55431   0.55498
 Alpha virt. eigenvalues --    0.56826   0.57088   0.58953   0.59743   0.60274
 Alpha virt. eigenvalues --    0.61205   0.63327   0.64262   0.65710   0.68759
 Alpha virt. eigenvalues --    0.68953   0.70848   0.71681   0.73103   0.73575
 Alpha virt. eigenvalues --    0.74070   0.75262   0.77317   0.78232   0.78907
 Alpha virt. eigenvalues --    0.79848   0.83346   0.84471   0.85768   0.87814
 Alpha virt. eigenvalues --    0.90091   0.92457   0.93317   0.96201   0.98207
 Alpha virt. eigenvalues --    1.00027   1.00676   1.01403   1.06002   1.07887
 Alpha virt. eigenvalues --    1.09809   1.11225   1.12436   1.15963   1.18168
 Alpha virt. eigenvalues --    1.21225   1.24579   1.25104   1.28316   1.31120
 Alpha virt. eigenvalues --    1.34535   1.35718   1.36849   1.37592   1.41214
 Alpha virt. eigenvalues --    1.43527   1.45167   1.45954   1.49883   1.51566
 Alpha virt. eigenvalues --    1.52894   1.56675   1.58494   1.61829   1.63531
 Alpha virt. eigenvalues --    1.67390   1.68020   1.69948   1.72048   1.73888
 Alpha virt. eigenvalues --    1.75888   1.78369   1.80509   1.82574   1.85025
 Alpha virt. eigenvalues --    1.88150   1.89896   1.92960   1.94836   1.99813
 Alpha virt. eigenvalues --    2.04798   2.07520   2.09743   2.11384   2.14572
 Alpha virt. eigenvalues --    2.14960   2.20173   2.21594   2.24239   2.25803
 Alpha virt. eigenvalues --    2.28072   2.29824   2.31529   2.35300   2.36866
 Alpha virt. eigenvalues --    2.38041   2.41246   2.47339   2.51307   2.54517
 Alpha virt. eigenvalues --    2.55522   2.59431   2.64510   2.66098   2.70876
 Alpha virt. eigenvalues --    2.79541   2.83055   2.88305   2.92781   2.96187
 Alpha virt. eigenvalues --    3.00442   3.07048   3.12432   3.18586   3.26014
 Alpha virt. eigenvalues --    3.32808   3.48580   3.53638   3.60493   3.67883
 Alpha virt. eigenvalues --    3.71483   3.77391   3.80741   3.84181   3.85463
 Alpha virt. eigenvalues --    3.90114   3.91764   3.97393   4.06672   4.22730
          Condensed to atoms (all electrons):
 Mulliken charges:
               1
     1  O   -0.728523
     2  C    0.608444
     3  N   -0.772753
     4  C    1.016077
     5  C    0.151627
     6  O   -0.775807
     7  C    0.729160
     8  H    0.046299
     9  H    0.002838
    10  H   -0.055565
    11  H   -0.009184
    12  H   -0.212611
 Sum of Mulliken charges =  -0.00000
 Mulliken charges with hydrogens summed into heavy atoms:
               1
     1  O   -0.728523
     2  C    0.654742
     3  N   -0.772753
     4  C    0.963349
     5  C    0.151627
     6  O   -0.775807
     7  C    0.507365
 Electronic spatial extent (au):  <R**2>=            699.5626
 Charge=             -0.0000 electrons
 Dipole moment (field-independent basis, Debye):
    X=             -5.2760    Y=             -4.7336    Z=             -1.6452  Tot=              7.2767
 Unable to Open any file for archive entry.
 1\1\GINC-SE105\Stability\RHF\Aug-CC-pVDZ\C4H5N1O2\OHZDE\09-Apr-2025\0\
 \#t hf aug-cc-pvdz symm=none int=(grid=ultrafine) guess=(read,tcheck) 
 stable=(opt,rrhf)\\title\\0,1\O,0,1.11278827,2.21313088,0.6648794\C,0,
 0.63419348,1.10618455,0.56576659\N,0,1.26077362,-0.06787228,0.36509604
 \C,0,0.54228818,-1.30824347,0.1493712\C,0,-0.70017832,-0.64926492,0.55
 809338\O,0,-1.10365038,-0.27531134,1.71048125\C,0,-0.86181292,0.769815
 16,0.60143962\H,0,0.04092463,0.60506628,-2.36464617\H,0,0.82160151,-2.
 10654204,0.83674664\H,0,0.56830642,-1.64296603,-0.88759077\H,0,-0.5853
 5613,0.32030481,-2.65365867\H,0,-1.74132036,1.32914838,0.3203055\\Vers
 ion=ES64L-G16RevC.01\HF=-358.3588789\RMSD=6.287e-09\Dipole=-2.0757556,
 -1.8623456,-0.6472524\Quadrupole=-0.2873611,-0.7375595,1.0249205,-5.87
 00435,-1.0203039,-1.7660601\PG=Unknown\\@
 The archive entry for this job was punched.


 SOME THINGS ARE EASY, THEY ARE ONLY HARD TO DO.
            -- A. EINSTEIN TO J. O. HIRSCHFELDER
 THE ONLY TROUBLE WITH A SURE THING IS THE UNCERTAINTY.
     -- FROM A TEABAG (BELONGING TO W.H.?)
 Job cpu time:       0 days  0 hours  1 minutes 58.5 seconds.
 Elapsed time:       0 days  0 hours  0 minutes 16.3 seconds.
 File lengths (MBytes):  RWF=    213 Int=      0 D2E=      0 Chk=      6 Scr=      1
 Normal termination of Gaussian 16 at Wed Apr  9 03:34:09 2025.
 Initial command:
 /arc/software/Gaussian/g16.c01/l1.exe "/tmp/slurm/4865042/Gau-2578391.inp" -scrdir="/tmp/slurm/4865042/"
 Entering Link 1 = /arc/software/Gaussian/g16.c01/l1.exe PID=   2578610.
  
 Copyright (c) 1988-2019, Gaussian, Inc.  All Rights Reserved.
  
 This is part of the Gaussian(R) 16 program.  It is based on
 the Gaussian(R) 09 system (copyright 2009, Gaussian, Inc.),
 the Gaussian(R) 03 system (copyright 2003, Gaussian, Inc.),
 the Gaussian(R) 98 system (copyright 1998, Gaussian, Inc.),
 the Gaussian(R) 94 system (copyright 1995, Gaussian, Inc.),
 the Gaussian 92(TM) system (copyright 1992, Gaussian, Inc.),
 the Gaussian 90(TM) system (copyright 1990, Gaussian, Inc.),
 the Gaussian 88(TM) system (copyright 1988, Gaussian, Inc.),
 the Gaussian 86(TM) system (copyright 1986, Carnegie Mellon
 University), and the Gaussian 82(TM) system (copyright 1983,
 Carnegie Mellon University). Gaussian is a federally registered
 trademark of Gaussian, Inc.
  
 This software contains proprietary and confidential information,
 including trade secrets, belonging to Gaussian, Inc.
  
 This software is provided under written license and may be
 used, copied, transmitted, or stored only in accord with that
 written license.
  
 The following legend is applicable only to US Government
 contracts under FAR:
  
                    RESTRICTED RIGHTS LEGEND
  
 Use, reproduction and disclosure by the US Government is
 subject to restrictions as set forth in subparagraphs (a)
 and (c) of the Commercial Computer Software - Restricted
 Rights clause in FAR 52.227-19.
  
 Gaussian, Inc.
 340 Quinnipiac St., Bldg. 40, Wallingford CT 06492
  
  
 ---------------------------------------------------------------
 Warning -- This program may not be used in any manner that
 competes with the business of Gaussian, Inc. or will provide
 assistance to any competitor of Gaussian, Inc.  The licensee
 of this program is prohibited from giving any competitor of
 Gaussian, Inc. access to this program.  By using this program,
 the user acknowledges that Gaussian, Inc. is engaged in the
 business of creating and licensing software in the field of
 computational chemistry and represents and warrants to the
 licensee that it is not a competitor of Gaussian, Inc. and that
 it will not use this program in any manner prohibited above.
 ---------------------------------------------------------------
  

 Cite this work as:
 Gaussian 16, Revision C.01,
 M. J. Frisch, G. W. Trucks, H. B. Schlegel, G. E. Scuseria, 
 M. A. Robb, J. R. Cheeseman, G. Scalmani, V. Barone, 
 G. A. Petersson, H. Nakatsuji, X. Li, M. Caricato, A. V. Marenich, 
 J. Bloino, B. G. Janesko, R. Gomperts, B. Mennucci, H. P. Hratchian, 
 J. V. Ortiz, A. F. Izmaylov, J. L. Sonnenberg, D. Williams-Young, 
 F. Ding, F. Lipparini, F. Egidi, J. Goings, B. Peng, A. Petrone, 
 T. Henderson, D. Ranasinghe, V. G. Zakrzewski, J. Gao, N. Rega, 
 G. Zheng, W. Liang, M. Hada, M. Ehara, K. Toyota, R. Fukuda, 
 J. Hasegawa, M. Ishida, T. Nakajima, Y. Honda, O. Kitao, H. Nakai, 
 T. Vreven, K. Throssell, J. A. Montgomery, Jr., J. E. Peralta, 
 F. Ogliaro, M. J. Bearpark, J. J. Heyd, E. N. Brothers, K. N. Kudin, 
 V. N. Staroverov, T. A. Keith, R. Kobayashi, J. Normand, 
 K. Raghavachari, A. P. Rendell, J. C. Burant, S. S. Iyengar, 
 J. Tomasi, M. Cossi, J. M. Millam, M. Klene, C. Adamo, R. Cammi, 
 J. W. Ochterski, R. L. Martin, K. Morokuma, O. Farkas, 
 J. B. Foresman, and D. J. Fox, Gaussian, Inc., Wallingford CT, 2019.
 
 ******************************************
 Gaussian 16:  ES64L-G16RevC.01  3-Jul-2019
                 9-Apr-2025 
 ******************************************
 %nprocs=16
 Will use up to   16 processors via shared memory.
 %mem=30GB
 %chk=Grambow2020_wb97xd3_007084_reverse_mol2.chk
 ----------------------------------------------------------------------
 #t hf aug-cc-pvdz iop(5/13=1,5/36=2,99/5=2) pseudo=read geom=check gue
 ss=(read,tcheck) scf=(maxcycle=1)
 ----------------------------------------------------------------------
 -----
 title
 -----
 Structure from the checkpoint file:  "Grambow2020_wb97xd3_007084_reverse_mol2.chk"
 Charge =  0 Multiplicity = 1
 Z-Matrix found in chk file.
 O,0,1.11278827,2.21313088,0.6648794
 C,0,0.63419348,1.10618455,0.56576659
 N,0,1.26077362,-0.06787228,0.36509604
 C,0,0.54228818,-1.30824347,0.1493712
 C,0,-0.70017832,-0.64926492,0.55809338
 O,0,-1.10365038,-0.27531134,1.71048125
 C,0,-0.86181292,0.76981516,0.60143962
 H,0,0.04092463,0.60506628,-2.36464617
 H,0,0.82160151,-2.10654204,0.83674664
 H,0,0.56830642,-1.64296603,-0.88759077
 H,0,-0.58535613,0.32030481,-2.65365867
 H,0,-1.74132036,1.32914838,0.3203055
 Recover connectivity data from disk.
                    Distance matrix (angstroms):
                    1          2          3          4          5
     1  O    0.000000
     2  C    1.210044   0.000000
     3  N    2.305373   1.345838   0.000000
     4  C    3.604344   2.451794   1.449579   0.000000
     5  C    3.389920   2.205042   2.054409   1.464592   0.000000
     6  O    3.492596   2.497800   2.728295   2.492615   1.276961
     7  C    2.446678   1.533771   2.294112   2.548371   1.428913
     8  H    3.593437   3.031568   3.064697   3.198813   3.265729
     9  H    4.332886   3.229576   2.138107   1.089854   2.125351
    10  H    4.192387   3.110373   2.128299   1.089957   2.164832
    11  H    4.180811   3.531233   3.559741   3.432306   3.356874
    12  H    3.007672   2.398547   3.311532   3.492839   2.248252
                    6          7          8          9         10
     6  O    0.000000
     7  C    1.542967   0.000000
     8  H    4.323399   3.104793   0.000000
     9  H    2.797036   3.341060   4.267457   0.000000
    10  H    3.378742   3.175526   2.741072   1.803441   0.000000
    11  H    4.434986   3.297598   0.746220   4.477951   2.881730
    12  H    2.216642   1.079548   3.302977   4.317320   3.953081
                   11         12
    11  H    0.000000
    12  H    3.346413   0.000000
 Framework group  C1[X(C4H5NO2)]
 Deg. of freedom    30
                         Standard orientation:                         
 ---------------------------------------------------------------------
 Center     Atomic      Atomic             Coordinates (Angstroms)
 Number     Number       Type             X           Y           Z
 ---------------------------------------------------------------------
      1          8           0        2.189033   -0.125033   -0.256061
      2          6           0        0.994181    0.024339   -0.136792
      3          7           0        0.226536    1.046341   -0.558116
      4          6           0       -1.184113    1.144969   -0.239336
      5          6           0       -1.161296   -0.235799    0.248505
      6          8           0       -1.082387   -1.341257   -0.385816
      7          6           0        0.039524   -0.930619    0.590626
      8          1           0        0.493702    1.506317    2.460065
      9          1           0       -1.828106    1.254983   -1.111661
     10          1           0       -1.399993    1.898942    0.517583
     11          1           0       -0.013695    1.340012    2.981348
     12          1           0        0.179400   -1.611664    1.416481
 ---------------------------------------------------------------------
 Rotational constants (GHZ):           4.4203070           2.8357614           2.1971350
 ======================================================================================================
                                       Pseudopotential Parameters
 ======================================================================================================
  Center     Atomic      Valence      Angular      Power
  Number     Number     Electrons     Momentum     of R      Exponent        Coefficient   SO-Coeffient
 ======================================================================================================
    1          8            8
                                      G and up 
                                                     0        0.0000010       -0.00165251    0.00000000
                                                     2        0.1200000       -0.10937202    0.00000000
                                                     2        0.1400000        0.35668905    0.00000000
                                                     2        0.1800000       -0.51696033    0.00000000
                                                     2        0.2400000        0.52446472    0.00000000
                                                     2        0.4000000       -0.07754493    0.00000000
                                                     2        0.8000000       -1.90560988    0.00000000
                                                     2        1.7000000        0.19857963    0.00000000
                                      S - G
                                                     0        0.0000010       -0.03845181    0.00000000
                                                     2        0.1400000        0.42024558    0.00000000
                                                     2        0.4000000       -4.10467779    0.00000000
                                                     2        1.3000000        9.99571838    0.00000000
                                      P - G
                                                     0        0.0000010        0.33206183    0.00000000
                                                     2        0.1200000       -0.18708141    0.00000000
                                                     2        0.2800000       -0.18179081    0.00000000
                                                     2        0.7000000        1.18820394    0.00000000
                                      D - G
                                                     0        0.0000010       -0.57891674    0.00000000
                                                     2        0.1200000        0.60487490    0.00000000
                                                     2        0.2400000       -0.24931464    0.00000000
                                                     2        0.3000000       -2.75054612    0.00000000
                                                     2        1.0000000       15.96776040    0.00000000
                                      F - G
                                                     0        0.0000010        0.37449041    0.00000000
                                                     2        0.1200000       -0.63373642    0.00000000
                                                     2        0.1400000       -0.08412804    0.00000000
                                                     2        0.2800000        2.62321406    0.00000000
                                                     2        0.6000000       -2.68223623    0.00000000
    2          6            6
                                      G and up 
                                                     0        0.0000010       -0.00286759    0.00000000
                                                     2        0.1200000        0.03193960    0.00000000
                                                     2        0.1600000       -0.04027782    0.00000000
                                                     2        0.2600000        0.24782456    0.00000000
                                                     2        0.4000000       -0.62266671    0.00000000
                                                     2        0.7000000        0.35695227    0.00000000
                                      S - G
                                                     0        0.0000010       -0.06602313    0.00000000
                                                     2        0.1200000        1.47277455    0.00000000
                                                     2        0.1600000       -4.06924166    0.00000000
                                                     2        0.3000000        5.02952802    0.00000000
                                                     2        0.7000000       -5.65856978    0.00000000
                                                     2        1.7000000        8.57604414    0.00000000
                                      P - G
                                                     0        0.0000010        0.49434425    0.00000000
                                                     2        0.1200000       -1.37391547    0.00000000
                                                     2        0.1600000        3.65411806    0.00000000
                                                     2        0.2800000       -7.36479843    0.00000000
                                                     2        0.6000000       17.22091285    0.00000000
                                                     2        1.1000000      -23.50107827    0.00000000
                                                     2        3.0000000       16.29464063    0.00000000
                                      D - G
                                                     0        0.0000010       -0.28693103    0.00000000
                                                     2        0.1200000        0.12273044    0.00000000
                                                     2        0.3000000       -0.43416384    0.00000000
                                                     2        0.7000000        2.23358493    0.00000000
                                      F - G
                                                     0        0.0000010        0.07263570    0.00000000
                                                     2        0.1400000       -0.76152861    0.00000000
                                                     2        0.2200000        1.98045593    0.00000000
                                                     2        0.4000000       -2.42426427    0.00000000
                                                     2        0.7000000        0.52335237    0.00000000
    3          7            7
                                      G and up 
                                                     0        0.0000010        0.00420138    0.00000000
                                                     2        0.1200000        0.05872431    0.00000000
                                                     2        0.1400000       -0.08436978    0.00000000
                                                     2        0.2000000        0.05409159    0.00000000
                                                     2        0.2600000        0.14199713    0.00000000
                                                     2        0.6000000       -0.79062770    0.00000000
                                                     2        0.7000000       -0.14441060    0.00000000
                                                     2        1.5000000        0.73772979    0.00000000
                                      S - G
                                                     0        0.0000010       -0.03094411    0.00000000
                                                     2        0.1200000        0.65332522    0.00000000
                                                     2        0.1800000       -1.38149133    0.00000000
                                                     2        1.3000000        3.29267299    0.00000000
                                      P - G
                                                     0        0.0000010        0.07303105    0.00000000
                                                     2        0.1200000        0.23145115    0.00000000
                                                     2        0.2000000       -1.20679699    0.00000000
                                                     2        0.4000000        1.75088447    0.00000000
                                                     2        1.2000000       -0.67486559    0.00000000
                                      D - G
                                                     0        0.0000010        0.07560739    0.00000000
                                                     2        0.3000000       -0.68679114    0.00000000
                                                     2        0.9000000        3.60133241    0.00000000
                                      F - G
                                                     0        0.0000010       -0.18221184    0.00000000
                                                     2        0.1200000       -0.39369067    0.00000000
                                                     2        0.1800000        0.72091725    0.00000000
                                                     2        0.6000000        0.15946111    0.00000000
    4          6            6
                                      G and up 
                                                     0        0.0000010       -0.00286759    0.00000000
                                                     2        0.1200000        0.03193960    0.00000000
                                                     2        0.1600000       -0.04027782    0.00000000
                                                     2        0.2600000        0.24782456    0.00000000
                                                     2        0.4000000       -0.62266671    0.00000000
                                                     2        0.7000000        0.35695227    0.00000000
                                      S - G
                                                     0        0.0000010       -0.06602313    0.00000000
                                                     2        0.1200000        1.47277455    0.00000000
                                                     2        0.1600000       -4.06924166    0.00000000
                                                     2        0.3000000        5.02952802    0.00000000
                                                     2        0.7000000       -5.65856978    0.00000000
                                                     2        1.7000000        8.57604414    0.00000000
                                      P - G
                                                     0        0.0000010        0.49434425    0.00000000
                                                     2        0.1200000       -1.37391547    0.00000000
                                                     2        0.1600000        3.65411806    0.00000000
                                                     2        0.2800000       -7.36479843    0.00000000
                                                     2        0.6000000       17.22091285    0.00000000
                                                     2        1.1000000      -23.50107827    0.00000000
                                                     2        3.0000000       16.29464063    0.00000000
                                      D - G
                                                     0        0.0000010       -0.28693103    0.00000000
                                                     2        0.1200000        0.12273044    0.00000000
                                                     2        0.3000000       -0.43416384    0.00000000
                                                     2        0.7000000        2.23358493    0.00000000
                                      F - G
                                                     0        0.0000010        0.07263570    0.00000000
                                                     2        0.1400000       -0.76152861    0.00000000
                                                     2        0.2200000        1.98045593    0.00000000
                                                     2        0.4000000       -2.42426427    0.00000000
                                                     2        0.7000000        0.52335237    0.00000000
    5          6            6
                                      G and up 
                                                     0        0.0000010       -0.00286759    0.00000000
                                                     2        0.1200000        0.03193960    0.00000000
                                                     2        0.1600000       -0.04027782    0.00000000
                                                     2        0.2600000        0.24782456    0.00000000
                                                     2        0.4000000       -0.62266671    0.00000000
                                                     2        0.7000000        0.35695227    0.00000000
                                      S - G
                                                     0        0.0000010       -0.06602313    0.00000000
                                                     2        0.1200000        1.47277455    0.00000000
                                                     2        0.1600000       -4.06924166    0.00000000
                                                     2        0.3000000        5.02952802    0.00000000
                                                     2        0.7000000       -5.65856978    0.00000000
                                                     2        1.7000000        8.57604414    0.00000000
                                      P - G
                                                     0        0.0000010        0.49434425    0.00000000
                                                     2        0.1200000       -1.37391547    0.00000000
                                                     2        0.1600000        3.65411806    0.00000000
                                                     2        0.2800000       -7.36479843    0.00000000
                                                     2        0.6000000       17.22091285    0.00000000
                                                     2        1.1000000      -23.50107827    0.00000000
                                                     2        3.0000000       16.29464063    0.00000000
                                      D - G
                                                     0        0.0000010       -0.28693103    0.00000000
                                                     2        0.1200000        0.12273044    0.00000000
                                                     2        0.3000000       -0.43416384    0.00000000
                                                     2        0.7000000        2.23358493    0.00000000
                                      F - G
                                                     0        0.0000010        0.07263570    0.00000000
                                                     2        0.1400000       -0.76152861    0.00000000
                                                     2        0.2200000        1.98045593    0.00000000
                                                     2        0.4000000       -2.42426427    0.00000000
                                                     2        0.7000000        0.52335237    0.00000000
    6          8            8
                                      G and up 
                                                     0        0.0000010       -0.00165251    0.00000000
                                                     2        0.1200000       -0.10937202    0.00000000
                                                     2        0.1400000        0.35668905    0.00000000
                                                     2        0.1800000       -0.51696033    0.00000000
                                                     2        0.2400000        0.52446472    0.00000000
                                                     2        0.4000000       -0.07754493    0.00000000
                                                     2        0.8000000       -1.90560988    0.00000000
                                                     2        1.7000000        0.19857963    0.00000000
                                      S - G
                                                     0        0.0000010       -0.03845181    0.00000000
                                                     2        0.1400000        0.42024558    0.00000000
                                                     2        0.4000000       -4.10467779    0.00000000
                                                     2        1.3000000        9.99571838    0.00000000
                                      P - G
                                                     0        0.0000010        0.33206183    0.00000000
                                                     2        0.1200000       -0.18708141    0.00000000
                                                     2        0.2800000       -0.18179081    0.00000000
                                                     2        0.7000000        1.18820394    0.00000000
                                      D - G
                                                     0        0.0000010       -0.57891674    0.00000000
                                                     2        0.1200000        0.60487490    0.00000000
                                                     2        0.2400000       -0.24931464    0.00000000
                                                     2        0.3000000       -2.75054612    0.00000000
                                                     2        1.0000000       15.96776040    0.00000000
                                      F - G
                                                     0        0.0000010        0.37449041    0.00000000
                                                     2        0.1200000       -0.63373642    0.00000000
                                                     2        0.1400000       -0.08412804    0.00000000
                                                     2        0.2800000        2.62321406    0.00000000
                                                     2        0.6000000       -2.68223623    0.00000000
    7          6            6
                                      G and up 
                                                     0        0.0000010       -0.00286759    0.00000000
                                                     2        0.1200000        0.03193960    0.00000000
                                                     2        0.1600000       -0.04027782    0.00000000
                                                     2        0.2600000        0.24782456    0.00000000
                                                     2        0.4000000       -0.62266671    0.00000000
                                                     2        0.7000000        0.35695227    0.00000000
                                      S - G
                                                     0        0.0000010       -0.06602313    0.00000000
                                                     2        0.1200000        1.47277455    0.00000000
                                                     2        0.1600000       -4.06924166    0.00000000
                                                     2        0.3000000        5.02952802    0.00000000
                                                     2        0.7000000       -5.65856978    0.00000000
                                                     2        1.7000000        8.57604414    0.00000000
                                      P - G
                                                     0        0.0000010        0.49434425    0.00000000
                                                     2        0.1200000       -1.37391547    0.00000000
                                                     2        0.1600000        3.65411806    0.00000000
                                                     2        0.2800000       -7.36479843    0.00000000
                                                     2        0.6000000       17.22091285    0.00000000
                                                     2        1.1000000      -23.50107827    0.00000000
                                                     2        3.0000000       16.29464063    0.00000000
                                      D - G
                                                     0        0.0000010       -0.28693103    0.00000000
                                                     2        0.1200000        0.12273044    0.00000000
                                                     2        0.3000000       -0.43416384    0.00000000
                                                     2        0.7000000        2.23358493    0.00000000
                                      F - G
                                                     0        0.0000010        0.07263570    0.00000000
                                                     2        0.1400000       -0.76152861    0.00000000
                                                     2        0.2200000        1.98045593    0.00000000
                                                     2        0.4000000       -2.42426427    0.00000000
                                                     2        0.7000000        0.52335237    0.00000000
    8          1            1
                                      F and up 
                                                     0        0.0000010        0.00072061    0.00000000
                                                     2        0.1200000        0.03832357    0.00000000
                                                     2        0.1400000       -0.08683256    0.00000000
                                                     2        0.1800000        0.09312970    0.00000000
                                                     2        0.2800000       -0.02532572    0.00000000
                                                     2        0.4000000       -0.09430787    0.00000000
                                                     2        0.7000000        0.42710831    0.00000000
                                                     2        1.2000000       -2.11746981    0.00000000
                                      S - F
                                                     0        0.0000010        0.14449603    0.00000000
                                                     2        0.1200000       -0.56378993    0.00000000
                                                     2        0.1400000        0.63941249    0.00000000
                                                     2        0.2600000       -0.58461015    0.00000000
                                                     2        0.5000000        1.00157293    0.00000000
                                                     2        1.8000000       -0.14135838    0.00000000
                                      P - F
                                                     0        0.0000010       -0.09353646    0.00000000
                                                     2        0.1200000        0.31768975    0.00000000
                                                     2        0.2000000       -0.71747951    0.00000000
                                                     2        0.4000000        0.65752308    0.00000000
                                                     2        1.7000000        2.94052587    0.00000000
                                      D - F
                                                     0        0.0000010       -0.04491202    0.00000000
                                                     2        0.1200000       -0.02862031    0.00000000
                                                     2        0.1800000       -0.21515263    0.00000000
                                                     2        0.3000000        0.80560647    0.00000000
                                                     2        0.4000000        0.47351754    0.00000000
                                                     2        0.7000000       -4.57051794    0.00000000
                                                     2        1.6000000       18.53737826    0.00000000
    9          1            1
                                      F and up 
                                                     0        0.0000010        0.00072061    0.00000000
                                                     2        0.1200000        0.03832357    0.00000000
                                                     2        0.1400000       -0.08683256    0.00000000
                                                     2        0.1800000        0.09312970    0.00000000
                                                     2        0.2800000       -0.02532572    0.00000000
                                                     2        0.4000000       -0.09430787    0.00000000
                                                     2        0.7000000        0.42710831    0.00000000
                                                     2        1.2000000       -2.11746981    0.00000000
                                      S - F
                                                     0        0.0000010        0.14449603    0.00000000
                                                     2        0.1200000       -0.56378993    0.00000000
                                                     2        0.1400000        0.63941249    0.00000000
                                                     2        0.2600000       -0.58461015    0.00000000
                                                     2        0.5000000        1.00157293    0.00000000
                                                     2        1.8000000       -0.14135838    0.00000000
                                      P - F
                                                     0        0.0000010       -0.09353646    0.00000000
                                                     2        0.1200000        0.31768975    0.00000000
                                                     2        0.2000000       -0.71747951    0.00000000
                                                     2        0.4000000        0.65752308    0.00000000
                                                     2        1.7000000        2.94052587    0.00000000
                                      D - F
                                                     0        0.0000010       -0.04491202    0.00000000
                                                     2        0.1200000       -0.02862031    0.00000000
                                                     2        0.1800000       -0.21515263    0.00000000
                                                     2        0.3000000        0.80560647    0.00000000
                                                     2        0.4000000        0.47351754    0.00000000
                                                     2        0.7000000       -4.57051794    0.00000000
                                                     2        1.6000000       18.53737826    0.00000000
   10          1            1
                                      F and up 
                                                     0        0.0000010        0.00072061    0.00000000
                                                     2        0.1200000        0.03832357    0.00000000
                                                     2        0.1400000       -0.08683256    0.00000000
                                                     2        0.1800000        0.09312970    0.00000000
                                                     2        0.2800000       -0.02532572    0.00000000
                                                     2        0.4000000       -0.09430787    0.00000000
                                                     2        0.7000000        0.42710831    0.00000000
                                                     2        1.2000000       -2.11746981    0.00000000
                                      S - F
                                                     0        0.0000010        0.14449603    0.00000000
                                                     2        0.1200000       -0.56378993    0.00000000
                                                     2        0.1400000        0.63941249    0.00000000
                                                     2        0.2600000       -0.58461015    0.00000000
                                                     2        0.5000000        1.00157293    0.00000000
                                                     2        1.8000000       -0.14135838    0.00000000
                                      P - F
                                                     0        0.0000010       -0.09353646    0.00000000
                                                     2        0.1200000        0.31768975    0.00000000
                                                     2        0.2000000       -0.71747951    0.00000000
                                                     2        0.4000000        0.65752308    0.00000000
                                                     2        1.7000000        2.94052587    0.00000000
                                      D - F
                                                     0        0.0000010       -0.04491202    0.00000000
                                                     2        0.1200000       -0.02862031    0.00000000
                                                     2        0.1800000       -0.21515263    0.00000000
                                                     2        0.3000000        0.80560647    0.00000000
                                                     2        0.4000000        0.47351754    0.00000000
                                                     2        0.7000000       -4.57051794    0.00000000
                                                     2        1.6000000       18.53737826    0.00000000
   11          1            1
                                      F and up 
                                                     0        0.0000010        0.00072061    0.00000000
                                                     2        0.1200000        0.03832357    0.00000000
                                                     2        0.1400000       -0.08683256    0.00000000
                                                     2        0.1800000        0.09312970    0.00000000
                                                     2        0.2800000       -0.02532572    0.00000000
                                                     2        0.4000000       -0.09430787    0.00000000
                                                     2        0.7000000        0.42710831    0.00000000
                                                     2        1.2000000       -2.11746981    0.00000000
                                      S - F
                                                     0        0.0000010        0.14449603    0.00000000
                                                     2        0.1200000       -0.56378993    0.00000000
                                                     2        0.1400000        0.63941249    0.00000000
                                                     2        0.2600000       -0.58461015    0.00000000
                                                     2        0.5000000        1.00157293    0.00000000
                                                     2        1.8000000       -0.14135838    0.00000000
                                      P - F
                                                     0        0.0000010       -0.09353646    0.00000000
                                                     2        0.1200000        0.31768975    0.00000000
                                                     2        0.2000000       -0.71747951    0.00000000
                                                     2        0.4000000        0.65752308    0.00000000
                                                     2        1.7000000        2.94052587    0.00000000
                                      D - F
                                                     0        0.0000010       -0.04491202    0.00000000
                                                     2        0.1200000       -0.02862031    0.00000000
                                                     2        0.1800000       -0.21515263    0.00000000
                                                     2        0.3000000        0.80560647    0.00000000
                                                     2        0.4000000        0.47351754    0.00000000
                                                     2        0.7000000       -4.57051794    0.00000000
                                                     2        1.6000000       18.53737826    0.00000000
   12          1            1
                                      F and up 
                                                     0        0.0000010        0.00072061    0.00000000
                                                     2        0.1200000        0.03832357    0.00000000
                                                     2        0.1400000       -0.08683256    0.00000000
                                                     2        0.1800000        0.09312970    0.00000000
                                                     2        0.2800000       -0.02532572    0.00000000
                                                     2        0.4000000       -0.09430787    0.00000000
                                                     2        0.7000000        0.42710831    0.00000000
                                                     2        1.2000000       -2.11746981    0.00000000
                                      S - F
                                                     0        0.0000010        0.14449603    0.00000000
                                                     2        0.1200000       -0.56378993    0.00000000
                                                     2        0.1400000        0.63941249    0.00000000
                                                     2        0.2600000       -0.58461015    0.00000000
                                                     2        0.5000000        1.00157293    0.00000000
                                                     2        1.8000000       -0.14135838    0.00000000
                                      P - F
                                                     0        0.0000010       -0.09353646    0.00000000
                                                     2        0.1200000        0.31768975    0.00000000
                                                     2        0.2000000       -0.71747951    0.00000000
                                                     2        0.4000000        0.65752308    0.00000000
                                                     2        1.7000000        2.94052587    0.00000000
                                      D - F
                                                     0        0.0000010       -0.04491202    0.00000000
                                                     2        0.1200000       -0.02862031    0.00000000
                                                     2        0.1800000       -0.21515263    0.00000000
                                                     2        0.3000000        0.80560647    0.00000000
                                                     2        0.4000000        0.47351754    0.00000000
                                                     2        0.7000000       -4.57051794    0.00000000
                                                     2        1.6000000       18.53737826    0.00000000
 ======================================================================================================
   206 basis functions,   356 primitive gaussians,   220 cartesian basis functions
    26 alpha electrons       26 beta electrons
       nuclear repulsion energy       299.3637818555 Hartrees.
 NAtoms=   12 NActive=   12 NUniq=   12 SFac= 1.00D+00 NAtFMM=   60 NAOKFM=F Big=F
   1 Symmetry operations used in ECPInt.
 ECPInt:  NShTT=    3916 NPrTT=   19636 LenC2=    3913 LenP2D=   15297.
 LDataN:  DoStor=T MaxTD1= 6 Len=  172
 Initial guess from the checkpoint file:  "Grambow2020_wb97xd3_007084_reverse_mol2.chk"
 B after Tr=    -0.443326    0.632485    0.842932
         Rot=   -0.242168    0.811567    0.495995   -0.191579 Ang= 208.03 deg.
 >>>>>>>>>> Convergence criterion not met.
 SCF Done:  E(RHF) =  -359.933222359     A.U. after    2 cycles
            NFock=  1  Conv=0.57D+00     -V/T= 2.0270

 **********************************************************************

            Population analysis using the SCF Density.

 **********************************************************************

 Orbital symmetries:
       Occupied  (A) (A) (A) (A) (A) (A) (A) (A) (A) (A) (A) (A)
                 (A) (A) (A) (A) (A) (A) (A) (A) (A) (A) (A) (A)
                 (A) (A)
       Virtual   (A) (A) (A) (A) (A) (A) (A) (A) (A) (A) (A) (A)
                 (A) (A) (A) (A) (A) (A) (A) (A) (A) (A) (A) (A)
                 (A) (A) (A) (A) (A) (A) (A) (A) (A) (A) (A) (A)
                 (A) (A) (A) (A) (A) (A) (A) (A) (A) (A) (A) (A)
                 (A) (A) (A) (A) (A) (A) (A) (A) (A) (A) (A) (A)
                 (A) (A) (A) (A) (A) (A) (A) (A) (A) (A) (A) (A)
                 (A) (A) (A) (A) (A) (A) (A) (A) (A) (A) (A) (A)
                 (A) (A) (A) (A) (A) (A) (A) (A) (A) (A) (A) (A)
                 (A) (A) (A) (A) (A) (A) (A) (A) (A) (A) (A) (A)
                 (A) (A) (A) (A) (A) (A) (A) (A) (A) (A) (A) (A)
                 (A) (A) (A) (A) (A) (A) (A) (A) (A) (A) (A) (A)
                 (A) (A) (A) (A) (A) (A) (A) (A) (A) (A) (A) (A)
                 (A) (A) (A) (A) (A) (A) (A) (A) (A) (A) (A) (A)
                 (A) (A) (A) (A) (A) (A) (A) (A) (A) (A) (A) (A)
                 (A) (A) (A) (A) (A) (A) (A) (A) (A) (A) (A) (A)
 The electronic state is 1-A.
 Alpha  occ. eigenvalues --  -21.19408 -21.01647 -15.71454 -11.59248 -11.54562
 Alpha  occ. eigenvalues --  -11.50501 -11.49017  -1.92368  -1.68746  -1.41706
 Alpha  occ. eigenvalues --   -1.10768  -1.05329  -0.86685  -0.79551  -0.70367
 Alpha  occ. eigenvalues --   -0.68920  -0.66795  -0.63458  -0.57771  -0.52490
 Alpha  occ. eigenvalues --   -0.50570  -0.47162  -0.41636  -0.36077  -0.28277
 Alpha  occ. eigenvalues --   -0.26900
 Alpha virt. eigenvalues --    0.02086   0.04159   0.04636   0.05095   0.06363
 Alpha virt. eigenvalues --    0.07209   0.07746   0.09904   0.10472   0.11168
 Alpha virt. eigenvalues --    0.12360   0.12946   0.13815   0.14159   0.14742
 Alpha virt. eigenvalues --    0.15551   0.15634   0.16648   0.17560   0.18629
 Alpha virt. eigenvalues --    0.19986   0.20403   0.22682   0.23727   0.25152
 Alpha virt. eigenvalues --    0.25556   0.27233   0.28142   0.28915   0.29980
 Alpha virt. eigenvalues --    0.30428   0.31666   0.32964   0.33170   0.34305
 Alpha virt. eigenvalues --    0.35370   0.36236   0.37041   0.38242   0.38771
 Alpha virt. eigenvalues --    0.39841   0.40793   0.41894   0.42507   0.43462
 Alpha virt. eigenvalues --    0.45142   0.45818   0.46375   0.47964   0.50233
 Alpha virt. eigenvalues --    0.51681   0.52318   0.54695   0.55594   0.56055
 Alpha virt. eigenvalues --    0.57295   0.58229   0.58945   0.60348   0.60488
 Alpha virt. eigenvalues --    0.62065   0.64727   0.64851   0.66256   0.69427
 Alpha virt. eigenvalues --    0.70051   0.70499   0.71567   0.73327   0.73862
 Alpha virt. eigenvalues --    0.74828   0.77333   0.78749   0.79750   0.81094
 Alpha virt. eigenvalues --    0.82759   0.84084   0.85282   0.87517   0.89996
 Alpha virt. eigenvalues --    0.90553   0.94750   0.95302   0.97604   0.98217
 Alpha virt. eigenvalues --    1.01960   1.03480   1.04312   1.09123   1.11886
 Alpha virt. eigenvalues --    1.13357   1.16434   1.18504   1.25082   1.27663
 Alpha virt. eigenvalues --    1.29646   1.31291   1.33420   1.38486   1.40356
 Alpha virt. eigenvalues --    1.42387   1.44449   1.51279   1.54532   1.56319
 Alpha virt. eigenvalues --    1.57302   1.61828   1.62558   1.69998   1.70917
 Alpha virt. eigenvalues --    1.74331   1.77324   1.80361   1.81138   1.83801
 Alpha virt. eigenvalues --    1.85468   1.91317   1.92351   1.94304   1.96054
 Alpha virt. eigenvalues --    1.98217   2.00390   2.02438   2.06969   2.09114
 Alpha virt. eigenvalues --    2.11811   2.13499   2.18402   2.23207   2.28318
 Alpha virt. eigenvalues --    2.30344   2.33605   2.34540   2.38154   2.43049
 Alpha virt. eigenvalues --    2.44146   2.45646   2.45916   2.51117   2.53851
 Alpha virt. eigenvalues --    2.57800   2.59819   2.63097   2.64307   2.65924
 Alpha virt. eigenvalues --    2.74761   2.76783   2.78930   2.84295   2.89341
 Alpha virt. eigenvalues --    2.94460   3.02767   3.03318   3.06942   3.09258
 Alpha virt. eigenvalues --    3.14582   3.20494   3.22297   3.35523   3.37104
 Alpha virt. eigenvalues --    3.43685   3.59688   3.62393   3.68490   3.72596
 Alpha virt. eigenvalues --    3.77005   3.85403   3.98472   4.11681   4.77639
 Alpha virt. eigenvalues --    5.97110   6.04062   6.06245   6.08369   6.10013
 Alpha virt. eigenvalues --    6.12485   6.15055   6.23691   6.25581   6.48947
          Condensed to atoms (all electrons):
 Mulliken charges:
               1
     1  O   -3.178592
     2  C    4.861363
     3  N   -2.305357
     4  C   -2.462231
     5  C    3.543030
     6  O   -2.699168
     7  C   -1.773913
     8  H   -0.204485
     9  H    1.269874
    10  H    1.446232
    11  H    0.108946
    12  H    1.394300
 Sum of Mulliken charges =  -0.00000
 Mulliken charges with hydrogens summed into heavy atoms:
               1
     1  O   -3.178592
     2  C    4.656878
     3  N   -2.305357
     4  C    0.253875
     5  C    3.543030
     6  O   -2.699168
     7  C   -0.270666
 Electronic spatial extent (au):  <R**2>=            645.3299
 Charge=             -0.0000 electrons
 Dipole moment (field-independent basis, Debye):
    X=             -5.0651    Y=             -1.9695    Z=              1.5881  Tot=              5.6619

 Test job not archived.
 1\1\GINC-SE105\SP\RHF\Aug-CC-pVDZ\C4H5N1O2\OHZDE\09-Apr-2025\0\\#t hf 
 aug-cc-pvdz iop(5/13=1,5/36=2,99/5=2) pseudo=read geom=check guess=(re
 ad,tcheck) scf=(maxcycle=1)\\title\\0,1\O,0,1.11278827,2.21313088,0.66
 48794\C,0,0.63419348,1.10618455,0.56576659\N,0,1.26077362,-0.06787228,
 0.36509604\C,0,0.54228818,-1.30824347,0.1493712\C,0,-0.70017832,-0.649
 26492,0.55809338\O,0,-1.10365038,-0.27531134,1.71048125\C,0,-0.8618129
 2,0.76981516,0.60143962\H,0,0.04092463,0.60506628,-2.36464617\H,0,0.82
 160151,-2.10654204,0.83674664\H,0,0.56830642,-1.64296603,-0.88759077\H
 ,0,-0.58535613,0.32030481,-2.65365867\H,0,-1.74132036,1.32914838,0.320
 3055\\Version=ES64L-G16RevC.01\State=1-A\HF=-359.9332224\RMSD=5.718e-0
 1\Dipole=-1.7623053,-1.3596524,0.0871051\Quadrupole=-0.9248945,-0.4069
 81,1.3318755,-2.4532787,-0.3491383,-0.3140215\PG=C01 [X(C4H5N1O2)]\\@


 Until you make peace with who you are,
 you'll never be content with what you have.
                           -- Doris Mortman
 Job cpu time:       0 days  0 hours  0 minutes 47.5 seconds.
 Elapsed time:       0 days  0 hours  0 minutes  4.1 seconds.
 File lengths (MBytes):  RWF=     10 Int=      0 D2E=      0 Chk=      6 Scr=      1
 Normal termination of Gaussian 16 at Wed Apr  9 03:34:13 2025.
