 Entering Gaussian System, Link 0=g16
 Input=Grambow2020_wb97xd3_006105_reverse_mol1.gjf
 Output=Grambow2020_wb97xd3_006105_reverse_mol1.log
 Initial command:
 /arc/software/Gaussian/g16.c01/l1.exe "/tmp/slurm/4863043/Gau-3525600.inp" -scrdir="/tmp/slurm/4863043/"
 Entering Link 1 = /arc/software/Gaussian/g16.c01/l1.exe PID=   3525601.
  
 Copyright (c) 1988-2019, Gaussian, Inc.  All Rights Reserved.
  
 This is part of the Gaussian(R) 16 program.  It is based on
 the Gaussian(R) 09 system (copyright 2009, Gaussian, Inc.),
 the Gaussian(R) 03 system (copyright 2003, Gaussian, Inc.),
 the Gaussian(R) 98 system (copyright 1998, Gaussian, Inc.),
 the Gaussian(R) 94 system (copyright 1995, Gaussian, Inc.),
 the Gaussian 92(TM) system (copyright 1992, Gaussian, Inc.),
 the Gaussian 90(TM) system (copyright 1990, Gaussian, Inc.),
 the Gaussian 88(TM) system (copyright 1988, Gaussian, Inc.),
 the Gaussian 86(TM) system (copyright 1986, Carnegie Mellon
 University), and the Gaussian 82(TM) system (copyright 1983,
 Carnegie Mellon University). Gaussian is a federally registered
 trademark of Gaussian, Inc.
  
 This software contains proprietary and confidential information,
 including trade secrets, belonging to Gaussian, Inc.
  
 This software is provided under written license and may be
 used, copied, transmitted, or stored only in accord with that
 written license.
  
 The following legend is applicable only to US Government
 contracts under FAR:
  
                    RESTRICTED RIGHTS LEGEND
  
 Use, reproduction and disclosure by the US Government is
 subject to restrictions as set forth in subparagraphs (a)
 and (c) of the Commercial Computer Software - Restricted
 Rights clause in FAR 52.227-19.
  
 Gaussian, Inc.
 340 Quinnipiac St., Bldg. 40, Wallingford CT 06492
  
  
 ---------------------------------------------------------------
 Warning -- This program may not be used in any manner that
 competes with the business of Gaussian, Inc. or will provide
 assistance to any competitor of Gaussian, Inc.  The licensee
 of this program is prohibited from giving any competitor of
 Gaussian, Inc. access to this program.  By using this program,
 the user acknowledges that Gaussian, Inc. is engaged in the
 business of creating and licensing software in the field of
 computational chemistry and represents and warrants to the
 licensee that it is not a competitor of Gaussian, Inc. and that
 it will not use this program in any manner prohibited above.
 ---------------------------------------------------------------
  

 Cite this work as:
 Gaussian 16, Revision C.01,
 M. J. Frisch, G. W. Trucks, H. B. Schlegel, G. E. Scuseria, 
 M. A. Robb, J. R. Cheeseman, G. Scalmani, V. Barone, 
 G. A. Petersson, H. Nakatsuji, X. Li, M. Caricato, A. V. Marenich, 
 J. Bloino, B. G. Janesko, R. Gomperts, B. Mennucci, H. P. Hratchian, 
 J. V. Ortiz, A. F. Izmaylov, J. L. Sonnenberg, D. Williams-Young, 
 F. Ding, F. Lipparini, F. Egidi, J. Goings, B. Peng, A. Petrone, 
 T. Henderson, D. Ranasinghe, V. G. Zakrzewski, J. Gao, N. Rega, 
 G. Zheng, W. Liang, M. Hada, M. Ehara, K. Toyota, R. Fukuda, 
 J. Hasegawa, M. Ishida, T. Nakajima, Y. Honda, O. Kitao, H. Nakai, 
 T. Vreven, K. Throssell, J. A. Montgomery, Jr., J. E. Peralta, 
 F. Ogliaro, M. J. Bearpark, J. J. Heyd, E. N. Brothers, K. N. Kudin, 
 V. N. Staroverov, T. A. Keith, R. Kobayashi, J. Normand, 
 K. Raghavachari, A. P. Rendell, J. C. Burant, S. S. Iyengar, 
 J. Tomasi, M. Cossi, J. M. Millam, M. Klene, C. Adamo, R. Cammi, 
 J. W. Ochterski, R. L. Martin, K. Morokuma, O. Farkas, 
 J. B. Foresman, and D. J. Fox, Gaussian, Inc., Wallingford CT, 2019.
 
 ******************************************
 Gaussian 16:  ES64L-G16RevC.01  3-Jul-2019
                 9-Apr-2025 
 ******************************************
 %nprocs=16
 Will use up to   16 processors via shared memory.
 %mem=30GB
 %chk=Grambow2020_wb97xd3_006105_reverse_mol1.chk
 ----------------------------------------------------------------------
 #t hf aug-cc-pvdz symm=none int=(grid=ultrafine) guess=(read,tcheck) s
 table=(opt,rrhf)
 ----------------------------------------------------------------------
 -----
 title
 -----
 Symbolic Z-matrix:
 Charge =  0 Multiplicity = 1
 C                    -1.24518  -0.31042  -0.06043 
 O                    -0.78918   0.77612  -0.86577 
 C                     0.34845   1.31625  -0.4368 
 C                     1.25088  -0.67466  -0.29582 
 O                     0.78764   0.15426   1.02228 
 C                     0.03179  -0.90741   0.47929 
 H                    -1.88389   0.05099   0.75238 
 H                    -1.80894  -0.97833  -0.71101 
 H                     1.04787   1.53731  -1.23177 
 H                     0.26116   2.07409   0.34112 
 H                     2.06059  -1.32431   0.0536 
 H                    -0.06946  -1.75273   1.15379 
 
                    Distance matrix (angstroms):
                    1          2          3          4          5
     1  C    0.000000
     2  O    1.427254   0.000000
     3  C    2.308106   1.330400   0.000000
     4  C    2.533456   2.567385   2.190433   0.000000
     5  O    2.349590   2.537289   1.916259   1.624528   0.000000
     6  C    1.509424   2.305959   2.425728   1.463266   1.411837
     7  H    1.095089   2.083886   2.828136   3.384087   2.687114
     8  H    1.089582   2.035178   3.161429   3.102757   3.321043
     9  H    3.169264   2.021919   1.081684   2.410408   2.657316
    10  H    2.848891   2.060226   1.089544   2.990134   2.104029
    11  H    3.459642   3.657629   3.185039   1.095337   2.178283
    12  H    2.221916   3.315367   3.481845   2.237604   2.094878
                    6          7          8          9         10
     6  C    0.000000
     7  H    2.159379   0.000000
     8  H    2.193205   1.790706   0.000000
     9  H    3.152274   3.839430   3.842011   0.000000
    10  H    2.993500   2.977128   3.835307   1.838760   0.000000
    11  H    2.114490   4.235406   3.959498   3.296460   3.856133
    12  H    1.086167   2.589723   2.665137   4.214700   3.926103
                   11         12
    11  H    0.000000
    12  H    2.435383   0.000000
 Symmetry turned off by external request.
 Rotational constants (GHZ):           6.2116726           4.5441764           3.4772221
   192 basis functions,   324 primitive gaussians,   204 cartesian basis functions
    23 alpha electrons       23 beta electrons
       nuclear repulsion energy       248.7582923472 Hartrees.
 NAtoms=   12 NActive=   12 NUniq=   12 SFac= 1.00D+00 NAtFMM=   60 NAOKFM=F Big=F
 ExpMin= 2.97D-02 ExpMax= 1.17D+04 ExpMxC= 4.01D+02 IAcc=3 IRadAn=         5 AccDes= 0.00D+00
 Harris functional with IExCor=  205 and IRadAn=       5 diagonalized for initial guess.
 HarFok:  IExCor=  205 AccDes= 0.00D+00 IRadAn=         5 IDoV= 1 UseB2=F ITyADJ=14
 ICtDFT=  3500011 ScaDFX=  1.000000  1.000000  1.000000  1.000000
 FoFCou: FMM=F IPFlag=           0 FMFlag=      100000 FMFlg1=           0
         NFxFlg=           0 DoJE=T BraDBF=F KetDBF=T FulRan=T
         wScrn=  0.000000 ICntrl=       500 IOpCl=  0 I1Cent=   200000004 NGrid=           0
         NMat0=    1 NMatS0=      1 NMatT0=    0 NMatD0=    1 NMtDS0=    0 NMtDT0=    0
 Symmetry not used in FoFCou.
 SCF Done:  E(RHF) =  -304.478709637     A.U. after   16 cycles
            NFock= 16  Conv=0.56D-08     -V/T= 2.0010

 **********************************************************************

            Population analysis using the SCF Density.

 **********************************************************************

 Alpha  occ. eigenvalues --  -20.61920 -20.58618 -11.40429 -11.30878 -11.28279
 Alpha  occ. eigenvalues --  -11.22566  -1.46712  -1.37758  -1.04215  -0.92165
 Alpha  occ. eigenvalues --   -0.88846  -0.79156  -0.72930  -0.71688  -0.66726
 Alpha  occ. eigenvalues --   -0.62670  -0.59803  -0.54462  -0.52175  -0.48383
 Alpha  occ. eigenvalues --   -0.45731  -0.43035  -0.31014
 Alpha virt. eigenvalues --    0.03444   0.04237   0.04788   0.05222   0.06671
 Alpha virt. eigenvalues --    0.06722   0.09141   0.09965   0.10939   0.12737
 Alpha virt. eigenvalues --    0.13253   0.13645   0.14688   0.15472   0.15954
 Alpha virt. eigenvalues --    0.16399   0.16916   0.17898   0.18607   0.19625
 Alpha virt. eigenvalues --    0.20410   0.22713   0.25224   0.26353   0.28138
 Alpha virt. eigenvalues --    0.29057   0.29755   0.29869   0.31502   0.32715
 Alpha virt. eigenvalues --    0.33020   0.33714   0.36929   0.37226   0.38367
 Alpha virt. eigenvalues --    0.39168   0.39934   0.40690   0.41581   0.42325
 Alpha virt. eigenvalues --    0.42948   0.47228   0.47529   0.47628   0.48271
 Alpha virt. eigenvalues --    0.49992   0.51138   0.52543   0.53190   0.54806
 Alpha virt. eigenvalues --    0.55509   0.56889   0.59186   0.59747   0.61241
 Alpha virt. eigenvalues --    0.62379   0.63100   0.64770   0.65690   0.65916
 Alpha virt. eigenvalues --    0.67234   0.68775   0.69896   0.71160   0.71772
 Alpha virt. eigenvalues --    0.72943   0.73118   0.76392   0.76834   0.78177
 Alpha virt. eigenvalues --    0.78642   0.79682   0.80385   0.82163   0.83442
 Alpha virt. eigenvalues --    0.84299   0.85075   0.87197   0.91138   0.93642
 Alpha virt. eigenvalues --    0.95660   1.00277   1.02327   1.02907   1.08342
 Alpha virt. eigenvalues --    1.10681   1.12488   1.13995   1.15442   1.20861
 Alpha virt. eigenvalues --    1.24124   1.27671   1.28918   1.32663   1.35434
 Alpha virt. eigenvalues --    1.36746   1.41836   1.44595   1.47665   1.48440
 Alpha virt. eigenvalues --    1.50397   1.53700   1.57079   1.60002   1.62563
 Alpha virt. eigenvalues --    1.65828   1.67513   1.71202   1.75064   1.76620
 Alpha virt. eigenvalues --    1.77200   1.80901   1.82136   1.82367   1.83953
 Alpha virt. eigenvalues --    1.87201   1.89320   1.91065   1.92027   1.95180
 Alpha virt. eigenvalues --    1.96917   1.99418   2.03391   2.09690   2.10911
 Alpha virt. eigenvalues --    2.11277   2.16049   2.16684   2.21478   2.25206
 Alpha virt. eigenvalues --    2.26332   2.29110   2.32555   2.35221   2.37008
 Alpha virt. eigenvalues --    2.42205   2.43236   2.44220   2.49500   2.52779
 Alpha virt. eigenvalues --    2.57751   2.59088   2.62827   2.66000   2.72309
 Alpha virt. eigenvalues --    2.75648   2.76506   2.79116   2.88536   2.90294
 Alpha virt. eigenvalues --    2.95468   2.98848   3.03628   3.06260   3.13068
 Alpha virt. eigenvalues --    3.25003   3.45799   3.46715   3.77976   3.79656
 Alpha virt. eigenvalues --    3.80594   3.90776   3.93903   3.94898   3.97339
 Alpha virt. eigenvalues --    4.03500   4.06543   4.07310   4.20242
          Condensed to atoms (all electrons):
 Mulliken charges:
               1
     1  C    1.045429
     2  O   -0.829995
     3  C    1.233489
     4  C   -0.057820
     5  O   -0.968481
     6  C    0.657706
     7  H   -0.104120
     8  H   -0.137097
     9  H   -0.123812
    10  H   -0.173520
    11  H   -0.250269
    12  H   -0.291510
 Sum of Mulliken charges =  -0.00000
 Mulliken charges with hydrogens summed into heavy atoms:
               1
     1  C    0.804213
     2  O   -0.829995
     3  C    0.936157
     4  C   -0.308089
     5  O   -0.968481
     6  C    0.366196
 Electronic spatial extent (au):  <R**2>=            433.7066
 Charge=             -0.0000 electrons
 Dipole moment (field-independent basis, Debye):
    X=             -1.9729    Y=              0.6134    Z=              0.3625  Tot=              2.0976
 NROrb=    192 NOA=    23 NOB=    23 NVA=   169 NVB=   169

 **** Warning!!: The largest alpha MO coefficient is  0.37973357D+02

    12 initial guesses have been made.
 Iteration     1 Dimension    12 NMult     0 NNew     12
 Iteration     2 Dimension    24 NMult    12 NNew     12
 Iteration     3 Dimension    27 NMult    24 NNew      3
 Iteration     4 Dimension    30 NMult    27 NNew      3
 Iteration     5 Dimension    33 NMult    30 NNew      3
 Iteration     6 Dimension    36 NMult    33 NNew      3
 Iteration     7 Dimension    39 NMult    36 NNew      3
 ***********************************************************************
 Stability analysis using <AA,BB:AA,BB> singles matrix:
 ***********************************************************************
 Ground to excited state transition densities written to RWF  633

 Eigenvectors of the stability matrix:
 
 Excited state symmetry could not be determined.
 Eigenvector   1:      Singlet-?Sym  Eigenvalue= 0.1537388  <S**2>=0.000
      23 -> 25        -0.14049
      23 -> 26         0.10529
      23 -> 28         0.15895
      23 -> 30         0.35769
      23 -> 31         0.21384
      23 -> 32        -0.11281
      23 -> 33        -0.22608
      23 -> 34        -0.23323
      23 -> 37        -0.14691
      23 -> 38        -0.16851
 The wavefunction is stable under the perturbations considered.
 The wavefunction is already stable.

 **********************************************************************

            Population analysis using the SCF Density.

 **********************************************************************

 Alpha  occ. eigenvalues --  -20.61920 -20.58618 -11.40429 -11.30878 -11.28279
 Alpha  occ. eigenvalues --  -11.22566  -1.46712  -1.37758  -1.04215  -0.92165
 Alpha  occ. eigenvalues --   -0.88846  -0.79156  -0.72930  -0.71688  -0.66726
 Alpha  occ. eigenvalues --   -0.62670  -0.59803  -0.54462  -0.52175  -0.48383
 Alpha  occ. eigenvalues --   -0.45731  -0.43035  -0.31014
 Alpha virt. eigenvalues --    0.03444   0.04237   0.04788   0.05222   0.06671
 Alpha virt. eigenvalues --    0.06722   0.09141   0.09965   0.10939   0.12737
 Alpha virt. eigenvalues --    0.13253   0.13645   0.14688   0.15472   0.15954
 Alpha virt. eigenvalues --    0.16399   0.16916   0.17898   0.18607   0.19625
 Alpha virt. eigenvalues --    0.20410   0.22713   0.25224   0.26353   0.28138
 Alpha virt. eigenvalues --    0.29057   0.29755   0.29869   0.31502   0.32715
 Alpha virt. eigenvalues --    0.33020   0.33714   0.36929   0.37226   0.38367
 Alpha virt. eigenvalues --    0.39168   0.39934   0.40690   0.41581   0.42325
 Alpha virt. eigenvalues --    0.42948   0.47228   0.47529   0.47628   0.48271
 Alpha virt. eigenvalues --    0.49992   0.51138   0.52543   0.53190   0.54806
 Alpha virt. eigenvalues --    0.55509   0.56889   0.59186   0.59747   0.61241
 Alpha virt. eigenvalues --    0.62379   0.63100   0.64770   0.65690   0.65916
 Alpha virt. eigenvalues --    0.67234   0.68775   0.69896   0.71160   0.71772
 Alpha virt. eigenvalues --    0.72943   0.73118   0.76392   0.76834   0.78177
 Alpha virt. eigenvalues --    0.78642   0.79682   0.80385   0.82163   0.83442
 Alpha virt. eigenvalues --    0.84299   0.85075   0.87197   0.91138   0.93642
 Alpha virt. eigenvalues --    0.95660   1.00277   1.02327   1.02907   1.08342
 Alpha virt. eigenvalues --    1.10681   1.12488   1.13995   1.15442   1.20861
 Alpha virt. eigenvalues --    1.24124   1.27671   1.28918   1.32663   1.35434
 Alpha virt. eigenvalues --    1.36746   1.41836   1.44595   1.47665   1.48440
 Alpha virt. eigenvalues --    1.50397   1.53700   1.57079   1.60002   1.62563
 Alpha virt. eigenvalues --    1.65828   1.67513   1.71202   1.75064   1.76620
 Alpha virt. eigenvalues --    1.77200   1.80901   1.82136   1.82367   1.83953
 Alpha virt. eigenvalues --    1.87201   1.89320   1.91065   1.92027   1.95180
 Alpha virt. eigenvalues --    1.96917   1.99418   2.03391   2.09690   2.10911
 Alpha virt. eigenvalues --    2.11277   2.16049   2.16684   2.21478   2.25206
 Alpha virt. eigenvalues --    2.26332   2.29110   2.32555   2.35221   2.37008
 Alpha virt. eigenvalues --    2.42205   2.43236   2.44220   2.49500   2.52779
 Alpha virt. eigenvalues --    2.57751   2.59088   2.62827   2.66000   2.72309
 Alpha virt. eigenvalues --    2.75648   2.76506   2.79116   2.88536   2.90294
 Alpha virt. eigenvalues --    2.95468   2.98848   3.03628   3.06260   3.13068
 Alpha virt. eigenvalues --    3.25003   3.45799   3.46715   3.77976   3.79656
 Alpha virt. eigenvalues --    3.80594   3.90776   3.93903   3.94898   3.97339
 Alpha virt. eigenvalues --    4.03500   4.06543   4.07310   4.20242
          Condensed to atoms (all electrons):
 Mulliken charges:
               1
     1  C    1.045429
     2  O   -0.829995
     3  C    1.233489
     4  C   -0.057820
     5  O   -0.968481
     6  C    0.657706
     7  H   -0.104120
     8  H   -0.137097
     9  H   -0.123812
    10  H   -0.173520
    11  H   -0.250269
    12  H   -0.291510
 Sum of Mulliken charges =  -0.00000
 Mulliken charges with hydrogens summed into heavy atoms:
               1
     1  C    0.804213
     2  O   -0.829995
     3  C    0.936157
     4  C   -0.308089
     5  O   -0.968481
     6  C    0.366196
 Electronic spatial extent (au):  <R**2>=            433.7066
 Charge=             -0.0000 electrons
 Dipole moment (field-independent basis, Debye):
    X=             -1.9729    Y=              0.6134    Z=              0.3625  Tot=              2.0976
 Unable to Open any file for archive entry.
 1\1\GINC-SE120\Stability\RHF\Aug-CC-pVDZ\C4H6O2\OHZDE\09-Apr-2025\0\\#
 t hf aug-cc-pvdz symm=none int=(grid=ultrafine) guess=(read,tcheck) st
 able=(opt,rrhf)\\title\\0,1\C,0,-1.24518137,-0.31041607,-0.06043385\O,
 0,-0.78918461,0.77611723,-0.86576949\C,0,0.34844761,1.31625108,-0.4368
 0329\C,0,1.25087931,-0.67466228,-0.29581727\O,0,0.78764217,0.15426033,
 1.0222836\C,0,0.03179008,-0.90740591,0.47929433\H,0,-1.88388724,0.0509
 8994,0.75237667\H,0,-1.80894076,-0.97833298,-0.71101183\H,0,1.04787182
 ,1.53731441,-1.23177293\H,0,0.26115502,2.07409402,0.34111723\H,0,2.060
 59383,-1.32430514,0.05359737\H,0,-0.06945985,-1.75272562,1.15378748\\V
 ersion=ES64L-G16RevC.01\HF=-304.4787096\RMSD=5.569e-09\Dipole=-0.77618
 32,0.2413206,0.1426269\Quadrupole=-0.8533682,4.0245897,-3.1712215,2.21
 58052,-1.1436662,-1.4122665\PG=Unknown\\@
 The archive entry for this job was punched.


 QUHEN THE CAUSS IS TAKEN AWAY THE EFFECT WANISHETH.
 -- PROVERBS AND REASONS OF THE YEAR 1585
           AS REPRINTED IN PAISLEY MAGAZINE 1828.
 Job cpu time:       0 days  0 hours  1 minutes 45.9 seconds.
 Elapsed time:       0 days  0 hours  0 minutes 14.4 seconds.
 File lengths (MBytes):  RWF=    183 Int=      0 D2E=      0 Chk=      6 Scr=      1
 Normal termination of Gaussian 16 at Wed Apr  9 03:21:57 2025.
 Initial command:
 /arc/software/Gaussian/g16.c01/l1.exe "/tmp/slurm/4863043/Gau-3525600.inp" -scrdir="/tmp/slurm/4863043/"
 Entering Link 1 = /arc/software/Gaussian/g16.c01/l1.exe PID=   3525813.
  
 Copyright (c) 1988-2019, Gaussian, Inc.  All Rights Reserved.
  
 This is part of the Gaussian(R) 16 program.  It is based on
 the Gaussian(R) 09 system (copyright 2009, Gaussian, Inc.),
 the Gaussian(R) 03 system (copyright 2003, Gaussian, Inc.),
 the Gaussian(R) 98 system (copyright 1998, Gaussian, Inc.),
 the Gaussian(R) 94 system (copyright 1995, Gaussian, Inc.),
 the Gaussian 92(TM) system (copyright 1992, Gaussian, Inc.),
 the Gaussian 90(TM) system (copyright 1990, Gaussian, Inc.),
 the Gaussian 88(TM) system (copyright 1988, Gaussian, Inc.),
 the Gaussian 86(TM) system (copyright 1986, Carnegie Mellon
 University), and the Gaussian 82(TM) system (copyright 1983,
 Carnegie Mellon University). Gaussian is a federally registered
 trademark of Gaussian, Inc.
  
 This software contains proprietary and confidential information,
 including trade secrets, belonging to Gaussian, Inc.
  
 This software is provided under written license and may be
 used, copied, transmitted, or stored only in accord with that
 written license.
  
 The following legend is applicable only to US Government
 contracts under FAR:
  
                    RESTRICTED RIGHTS LEGEND
  
 Use, reproduction and disclosure by the US Government is
 subject to restrictions as set forth in subparagraphs (a)
 and (c) of the Commercial Computer Software - Restricted
 Rights clause in FAR 52.227-19.
  
 Gaussian, Inc.
 340 Quinnipiac St., Bldg. 40, Wallingford CT 06492
  
  
 ---------------------------------------------------------------
 Warning -- This program may not be used in any manner that
 competes with the business of Gaussian, Inc. or will provide
 assistance to any competitor of Gaussian, Inc.  The licensee
 of this program is prohibited from giving any competitor of
 Gaussian, Inc. access to this program.  By using this program,
 the user acknowledges that Gaussian, Inc. is engaged in the
 business of creating and licensing software in the field of
 computational chemistry and represents and warrants to the
 licensee that it is not a competitor of Gaussian, Inc. and that
 it will not use this program in any manner prohibited above.
 ---------------------------------------------------------------
  

 Cite this work as:
 Gaussian 16, Revision C.01,
 M. J. Frisch, G. W. Trucks, H. B. Schlegel, G. E. Scuseria, 
 M. A. Robb, J. R. Cheeseman, G. Scalmani, V. Barone, 
 G. A. Petersson, H. Nakatsuji, X. Li, M. Caricato, A. V. Marenich, 
 J. Bloino, B. G. Janesko, R. Gomperts, B. Mennucci, H. P. Hratchian, 
 J. V. Ortiz, A. F. Izmaylov, J. L. Sonnenberg, D. Williams-Young, 
 F. Ding, F. Lipparini, F. Egidi, J. Goings, B. Peng, A. Petrone, 
 T. Henderson, D. Ranasinghe, V. G. Zakrzewski, J. Gao, N. Rega, 
 G. Zheng, W. Liang, M. Hada, M. Ehara, K. Toyota, R. Fukuda, 
 J. Hasegawa, M. Ishida, T. Nakajima, Y. Honda, O. Kitao, H. Nakai, 
 T. Vreven, K. Throssell, J. A. Montgomery, Jr., J. E. Peralta, 
 F. Ogliaro, M. J. Bearpark, J. J. Heyd, E. N. Brothers, K. N. Kudin, 
 V. N. Staroverov, T. A. Keith, R. Kobayashi, J. Normand, 
 K. Raghavachari, A. P. Rendell, J. C. Burant, S. S. Iyengar, 
 J. Tomasi, M. Cossi, J. M. Millam, M. Klene, C. Adamo, R. Cammi, 
 J. W. Ochterski, R. L. Martin, K. Morokuma, O. Farkas, 
 J. B. Foresman, and D. J. Fox, Gaussian, Inc., Wallingford CT, 2019.
 
 ******************************************
 Gaussian 16:  ES64L-G16RevC.01  3-Jul-2019
                 9-Apr-2025 
 ******************************************
 %nprocs=16
 Will use up to   16 processors via shared memory.
 %mem=30GB
 %chk=Grambow2020_wb97xd3_006105_reverse_mol1.chk
 ----------------------------------------------------------------------
 #t hf aug-cc-pvdz iop(5/13=1,5/36=2,99/5=2) pseudo=read geom=check gue
 ss=(read,tcheck) scf=(maxcycle=1)
 ----------------------------------------------------------------------
 -----
 title
 -----
 Structure from the checkpoint file:  "Grambow2020_wb97xd3_006105_reverse_mol1.chk"
 Charge =  0 Multiplicity = 1
 Z-Matrix found in chk file.
 C,0,-1.24518137,-0.31041607,-0.06043385
 O,0,-0.78918461,0.77611723,-0.86576949
 C,0,0.34844761,1.31625108,-0.43680329
 C,0,1.25087931,-0.67466228,-0.29581727
 O,0,0.78764217,0.15426033,1.0222836
 C,0,0.03179008,-0.90740591,0.47929433
 H,0,-1.88388724,0.05098994,0.75237667
 H,0,-1.80894076,-0.97833298,-0.71101183
 H,0,1.04787182,1.53731441,-1.23177293
 H,0,0.26115502,2.07409402,0.34111723
 H,0,2.06059383,-1.32430514,0.05359737
 H,0,-0.06945985,-1.75272562,1.15378748
 Recover connectivity data from disk.
                    Distance matrix (angstroms):
                    1          2          3          4          5
     1  C    0.000000
     2  O    1.427254   0.000000
     3  C    2.308106   1.330400   0.000000
     4  C    2.533456   2.567385   2.190433   0.000000
     5  O    2.349590   2.537289   1.916259   1.624528   0.000000
     6  C    1.509424   2.305959   2.425728   1.463266   1.411837
     7  H    1.095089   2.083886   2.828136   3.384087   2.687114
     8  H    1.089582   2.035178   3.161429   3.102757   3.321043
     9  H    3.169264   2.021919   1.081684   2.410408   2.657316
    10  H    2.848891   2.060226   1.089544   2.990134   2.104029
    11  H    3.459642   3.657629   3.185039   1.095337   2.178283
    12  H    2.221916   3.315367   3.481845   2.237604   2.094878
                    6          7          8          9         10
     6  C    0.000000
     7  H    2.159379   0.000000
     8  H    2.193205   1.790706   0.000000
     9  H    3.152274   3.839430   3.842011   0.000000
    10  H    2.993500   2.977128   3.835307   1.838760   0.000000
    11  H    2.114490   4.235406   3.959498   3.296460   3.856133
    12  H    1.086167   2.589723   2.665137   4.214700   3.926103
                   11         12
    11  H    0.000000
    12  H    2.435383   0.000000
 Framework group  C1[X(C4H6O2)]
 Deg. of freedom    30
                         Standard orientation:                         
 ---------------------------------------------------------------------
 Center     Atomic      Atomic             Coordinates (Angstroms)
 Number     Number       Type             X           Y           Z
 ---------------------------------------------------------------------
      1          6           0        0.725691    1.131370    0.054131
      2          8           0        1.351157   -0.106651   -0.282243
      3          6           0        0.650943   -1.175263    0.088880
      4          6           0       -1.147263   -0.327302   -0.830582
      5          8           0       -0.939078   -0.359230    0.780235
      6          6           0       -0.747257    0.805191    0.005242
      7          1           0        1.022915    1.455878    1.056913
      8          1           0        1.044410    1.864250   -0.686474
      9          1           0        0.622914   -1.954485   -0.660832
     10          1           0        0.789085   -1.511465    1.116008
     11          1           0       -2.233419   -0.338504   -0.971669
     12          1           0       -1.435215    1.607402    0.256098
 ---------------------------------------------------------------------
 Rotational constants (GHZ):           6.2116726           4.5441764           3.4772221
 ======================================================================================================
                                       Pseudopotential Parameters
 ======================================================================================================
  Center     Atomic      Valence      Angular      Power
  Number     Number     Electrons     Momentum     of R      Exponent        Coefficient   SO-Coeffient
 ======================================================================================================
    1          6            6
                                      G and up 
                                                     0        0.0000010       -0.00286759    0.00000000
                                                     2        0.1200000        0.03193960    0.00000000
                                                     2        0.1600000       -0.04027782    0.00000000
                                                     2        0.2600000        0.24782456    0.00000000
                                                     2        0.4000000       -0.62266671    0.00000000
                                                     2        0.7000000        0.35695227    0.00000000
                                      S - G
                                                     0        0.0000010       -0.06602313    0.00000000
                                                     2        0.1200000        1.47277455    0.00000000
                                                     2        0.1600000       -4.06924166    0.00000000
                                                     2        0.3000000        5.02952802    0.00000000
                                                     2        0.7000000       -5.65856978    0.00000000
                                                     2        1.7000000        8.57604414    0.00000000
                                      P - G
                                                     0        0.0000010        0.49434425    0.00000000
                                                     2        0.1200000       -1.37391547    0.00000000
                                                     2        0.1600000        3.65411806    0.00000000
                                                     2        0.2800000       -7.36479843    0.00000000
                                                     2        0.6000000       17.22091285    0.00000000
                                                     2        1.1000000      -23.50107827    0.00000000
                                                     2        3.0000000       16.29464063    0.00000000
                                      D - G
                                                     0        0.0000010       -0.28693103    0.00000000
                                                     2        0.1200000        0.12273044    0.00000000
                                                     2        0.3000000       -0.43416384    0.00000000
                                                     2        0.7000000        2.23358493    0.00000000
                                      F - G
                                                     0        0.0000010        0.07263570    0.00000000
                                                     2        0.1400000       -0.76152861    0.00000000
                                                     2        0.2200000        1.98045593    0.00000000
                                                     2        0.4000000       -2.42426427    0.00000000
                                                     2        0.7000000        0.52335237    0.00000000
    2          8            8
                                      G and up 
                                                     0        0.0000010       -0.00165251    0.00000000
                                                     2        0.1200000       -0.10937202    0.00000000
                                                     2        0.1400000        0.35668905    0.00000000
                                                     2        0.1800000       -0.51696033    0.00000000
                                                     2        0.2400000        0.52446472    0.00000000
                                                     2        0.4000000       -0.07754493    0.00000000
                                                     2        0.8000000       -1.90560988    0.00000000
                                                     2        1.7000000        0.19857963    0.00000000
                                      S - G
                                                     0        0.0000010       -0.03845181    0.00000000
                                                     2        0.1400000        0.42024558    0.00000000
                                                     2        0.4000000       -4.10467779    0.00000000
                                                     2        1.3000000        9.99571838    0.00000000
                                      P - G
                                                     0        0.0000010        0.33206183    0.00000000
                                                     2        0.1200000       -0.18708141    0.00000000
                                                     2        0.2800000       -0.18179081    0.00000000
                                                     2        0.7000000        1.18820394    0.00000000
                                      D - G
                                                     0        0.0000010       -0.57891674    0.00000000
                                                     2        0.1200000        0.60487490    0.00000000
                                                     2        0.2400000       -0.24931464    0.00000000
                                                     2        0.3000000       -2.75054612    0.00000000
                                                     2        1.0000000       15.96776040    0.00000000
                                      F - G
                                                     0        0.0000010        0.37449041    0.00000000
                                                     2        0.1200000       -0.63373642    0.00000000
                                                     2        0.1400000       -0.08412804    0.00000000
                                                     2        0.2800000        2.62321406    0.00000000
                                                     2        0.6000000       -2.68223623    0.00000000
    3          6            6
                                      G and up 
                                                     0        0.0000010       -0.00286759    0.00000000
                                                     2        0.1200000        0.03193960    0.00000000
                                                     2        0.1600000       -0.04027782    0.00000000
                                                     2        0.2600000        0.24782456    0.00000000
                                                     2        0.4000000       -0.62266671    0.00000000
                                                     2        0.7000000        0.35695227    0.00000000
                                      S - G
                                                     0        0.0000010       -0.06602313    0.00000000
                                                     2        0.1200000        1.47277455    0.00000000
                                                     2        0.1600000       -4.06924166    0.00000000
                                                     2        0.3000000        5.02952802    0.00000000
                                                     2        0.7000000       -5.65856978    0.00000000
                                                     2        1.7000000        8.57604414    0.00000000
                                      P - G
                                                     0        0.0000010        0.49434425    0.00000000
                                                     2        0.1200000       -1.37391547    0.00000000
                                                     2        0.1600000        3.65411806    0.00000000
                                                     2        0.2800000       -7.36479843    0.00000000
                                                     2        0.6000000       17.22091285    0.00000000
                                                     2        1.1000000      -23.50107827    0.00000000
                                                     2        3.0000000       16.29464063    0.00000000
                                      D - G
                                                     0        0.0000010       -0.28693103    0.00000000
                                                     2        0.1200000        0.12273044    0.00000000
                                                     2        0.3000000       -0.43416384    0.00000000
                                                     2        0.7000000        2.23358493    0.00000000
                                      F - G
                                                     0        0.0000010        0.07263570    0.00000000
                                                     2        0.1400000       -0.76152861    0.00000000
                                                     2        0.2200000        1.98045593    0.00000000
                                                     2        0.4000000       -2.42426427    0.00000000
                                                     2        0.7000000        0.52335237    0.00000000
    4          6            6
                                      G and up 
                                                     0        0.0000010       -0.00286759    0.00000000
                                                     2        0.1200000        0.03193960    0.00000000
                                                     2        0.1600000       -0.04027782    0.00000000
                                                     2        0.2600000        0.24782456    0.00000000
                                                     2        0.4000000       -0.62266671    0.00000000
                                                     2        0.7000000        0.35695227    0.00000000
                                      S - G
                                                     0        0.0000010       -0.06602313    0.00000000
                                                     2        0.1200000        1.47277455    0.00000000
                                                     2        0.1600000       -4.06924166    0.00000000
                                                     2        0.3000000        5.02952802    0.00000000
                                                     2        0.7000000       -5.65856978    0.00000000
                                                     2        1.7000000        8.57604414    0.00000000
                                      P - G
                                                     0        0.0000010        0.49434425    0.00000000
                                                     2        0.1200000       -1.37391547    0.00000000
                                                     2        0.1600000        3.65411806    0.00000000
                                                     2        0.2800000       -7.36479843    0.00000000
                                                     2        0.6000000       17.22091285    0.00000000
                                                     2        1.1000000      -23.50107827    0.00000000
                                                     2        3.0000000       16.29464063    0.00000000
                                      D - G
                                                     0        0.0000010       -0.28693103    0.00000000
                                                     2        0.1200000        0.12273044    0.00000000
                                                     2        0.3000000       -0.43416384    0.00000000
                                                     2        0.7000000        2.23358493    0.00000000
                                      F - G
                                                     0        0.0000010        0.07263570    0.00000000
                                                     2        0.1400000       -0.76152861    0.00000000
                                                     2        0.2200000        1.98045593    0.00000000
                                                     2        0.4000000       -2.42426427    0.00000000
                                                     2        0.7000000        0.52335237    0.00000000
    5          8            8
                                      G and up 
                                                     0        0.0000010       -0.00165251    0.00000000
                                                     2        0.1200000       -0.10937202    0.00000000
                                                     2        0.1400000        0.35668905    0.00000000
                                                     2        0.1800000       -0.51696033    0.00000000
                                                     2        0.2400000        0.52446472    0.00000000
                                                     2        0.4000000       -0.07754493    0.00000000
                                                     2        0.8000000       -1.90560988    0.00000000
                                                     2        1.7000000        0.19857963    0.00000000
                                      S - G
                                                     0        0.0000010       -0.03845181    0.00000000
                                                     2        0.1400000        0.42024558    0.00000000
                                                     2        0.4000000       -4.10467779    0.00000000
                                                     2        1.3000000        9.99571838    0.00000000
                                      P - G
                                                     0        0.0000010        0.33206183    0.00000000
                                                     2        0.1200000       -0.18708141    0.00000000
                                                     2        0.2800000       -0.18179081    0.00000000
                                                     2        0.7000000        1.18820394    0.00000000
                                      D - G
                                                     0        0.0000010       -0.57891674    0.00000000
                                                     2        0.1200000        0.60487490    0.00000000
                                                     2        0.2400000       -0.24931464    0.00000000
                                                     2        0.3000000       -2.75054612    0.00000000
                                                     2        1.0000000       15.96776040    0.00000000
                                      F - G
                                                     0        0.0000010        0.37449041    0.00000000
                                                     2        0.1200000       -0.63373642    0.00000000
                                                     2        0.1400000       -0.08412804    0.00000000
                                                     2        0.2800000        2.62321406    0.00000000
                                                     2        0.6000000       -2.68223623    0.00000000
    6          6            6
                                      G and up 
                                                     0        0.0000010       -0.00286759    0.00000000
                                                     2        0.1200000        0.03193960    0.00000000
                                                     2        0.1600000       -0.04027782    0.00000000
                                                     2        0.2600000        0.24782456    0.00000000
                                                     2        0.4000000       -0.62266671    0.00000000
                                                     2        0.7000000        0.35695227    0.00000000
                                      S - G
                                                     0        0.0000010       -0.06602313    0.00000000
                                                     2        0.1200000        1.47277455    0.00000000
                                                     2        0.1600000       -4.06924166    0.00000000
                                                     2        0.3000000        5.02952802    0.00000000
                                                     2        0.7000000       -5.65856978    0.00000000
                                                     2        1.7000000        8.57604414    0.00000000
                                      P - G
                                                     0        0.0000010        0.49434425    0.00000000
                                                     2        0.1200000       -1.37391547    0.00000000
                                                     2        0.1600000        3.65411806    0.00000000
                                                     2        0.2800000       -7.36479843    0.00000000
                                                     2        0.6000000       17.22091285    0.00000000
                                                     2        1.1000000      -23.50107827    0.00000000
                                                     2        3.0000000       16.29464063    0.00000000
                                      D - G
                                                     0        0.0000010       -0.28693103    0.00000000
                                                     2        0.1200000        0.12273044    0.00000000
                                                     2        0.3000000       -0.43416384    0.00000000
                                                     2        0.7000000        2.23358493    0.00000000
                                      F - G
                                                     0        0.0000010        0.07263570    0.00000000
                                                     2        0.1400000       -0.76152861    0.00000000
                                                     2        0.2200000        1.98045593    0.00000000
                                                     2        0.4000000       -2.42426427    0.00000000
                                                     2        0.7000000        0.52335237    0.00000000
    7          1            1
                                      F and up 
                                                     0        0.0000010        0.00072061    0.00000000
                                                     2        0.1200000        0.03832357    0.00000000
                                                     2        0.1400000       -0.08683256    0.00000000
                                                     2        0.1800000        0.09312970    0.00000000
                                                     2        0.2800000       -0.02532572    0.00000000
                                                     2        0.4000000       -0.09430787    0.00000000
                                                     2        0.7000000        0.42710831    0.00000000
                                                     2        1.2000000       -2.11746981    0.00000000
                                      S - F
                                                     0        0.0000010        0.14449603    0.00000000
                                                     2        0.1200000       -0.56378993    0.00000000
                                                     2        0.1400000        0.63941249    0.00000000
                                                     2        0.2600000       -0.58461015    0.00000000
                                                     2        0.5000000        1.00157293    0.00000000
                                                     2        1.8000000       -0.14135838    0.00000000
                                      P - F
                                                     0        0.0000010       -0.09353646    0.00000000
                                                     2        0.1200000        0.31768975    0.00000000
                                                     2        0.2000000       -0.71747951    0.00000000
                                                     2        0.4000000        0.65752308    0.00000000
                                                     2        1.7000000        2.94052587    0.00000000
                                      D - F
                                                     0        0.0000010       -0.04491202    0.00000000
                                                     2        0.1200000       -0.02862031    0.00000000
                                                     2        0.1800000       -0.21515263    0.00000000
                                                     2        0.3000000        0.80560647    0.00000000
                                                     2        0.4000000        0.47351754    0.00000000
                                                     2        0.7000000       -4.57051794    0.00000000
                                                     2        1.6000000       18.53737826    0.00000000
    8          1            1
                                      F and up 
                                                     0        0.0000010        0.00072061    0.00000000
                                                     2        0.1200000        0.03832357    0.00000000
                                                     2        0.1400000       -0.08683256    0.00000000
                                                     2        0.1800000        0.09312970    0.00000000
                                                     2        0.2800000       -0.02532572    0.00000000
                                                     2        0.4000000       -0.09430787    0.00000000
                                                     2        0.7000000        0.42710831    0.00000000
                                                     2        1.2000000       -2.11746981    0.00000000
                                      S - F
                                                     0        0.0000010        0.14449603    0.00000000
                                                     2        0.1200000       -0.56378993    0.00000000
                                                     2        0.1400000        0.63941249    0.00000000
                                                     2        0.2600000       -0.58461015    0.00000000
                                                     2        0.5000000        1.00157293    0.00000000
                                                     2        1.8000000       -0.14135838    0.00000000
                                      P - F
                                                     0        0.0000010       -0.09353646    0.00000000
                                                     2        0.1200000        0.31768975    0.00000000
                                                     2        0.2000000       -0.71747951    0.00000000
                                                     2        0.4000000        0.65752308    0.00000000
                                                     2        1.7000000        2.94052587    0.00000000
                                      D - F
                                                     0        0.0000010       -0.04491202    0.00000000
                                                     2        0.1200000       -0.02862031    0.00000000
                                                     2        0.1800000       -0.21515263    0.00000000
                                                     2        0.3000000        0.80560647    0.00000000
                                                     2        0.4000000        0.47351754    0.00000000
                                                     2        0.7000000       -4.57051794    0.00000000
                                                     2        1.6000000       18.53737826    0.00000000
    9          1            1
                                      F and up 
                                                     0        0.0000010        0.00072061    0.00000000
                                                     2        0.1200000        0.03832357    0.00000000
                                                     2        0.1400000       -0.08683256    0.00000000
                                                     2        0.1800000        0.09312970    0.00000000
                                                     2        0.2800000       -0.02532572    0.00000000
                                                     2        0.4000000       -0.09430787    0.00000000
                                                     2        0.7000000        0.42710831    0.00000000
                                                     2        1.2000000       -2.11746981    0.00000000
                                      S - F
                                                     0        0.0000010        0.14449603    0.00000000
                                                     2        0.1200000       -0.56378993    0.00000000
                                                     2        0.1400000        0.63941249    0.00000000
                                                     2        0.2600000       -0.58461015    0.00000000
                                                     2        0.5000000        1.00157293    0.00000000
                                                     2        1.8000000       -0.14135838    0.00000000
                                      P - F
                                                     0        0.0000010       -0.09353646    0.00000000
                                                     2        0.1200000        0.31768975    0.00000000
                                                     2        0.2000000       -0.71747951    0.00000000
                                                     2        0.4000000        0.65752308    0.00000000
                                                     2        1.7000000        2.94052587    0.00000000
                                      D - F
                                                     0        0.0000010       -0.04491202    0.00000000
                                                     2        0.1200000       -0.02862031    0.00000000
                                                     2        0.1800000       -0.21515263    0.00000000
                                                     2        0.3000000        0.80560647    0.00000000
                                                     2        0.4000000        0.47351754    0.00000000
                                                     2        0.7000000       -4.57051794    0.00000000
                                                     2        1.6000000       18.53737826    0.00000000
   10          1            1
                                      F and up 
                                                     0        0.0000010        0.00072061    0.00000000
                                                     2        0.1200000        0.03832357    0.00000000
                                                     2        0.1400000       -0.08683256    0.00000000
                                                     2        0.1800000        0.09312970    0.00000000
                                                     2        0.2800000       -0.02532572    0.00000000
                                                     2        0.4000000       -0.09430787    0.00000000
                                                     2        0.7000000        0.42710831    0.00000000
                                                     2        1.2000000       -2.11746981    0.00000000
                                      S - F
                                                     0        0.0000010        0.14449603    0.00000000
                                                     2        0.1200000       -0.56378993    0.00000000
                                                     2        0.1400000        0.63941249    0.00000000
                                                     2        0.2600000       -0.58461015    0.00000000
                                                     2        0.5000000        1.00157293    0.00000000
                                                     2        1.8000000       -0.14135838    0.00000000
                                      P - F
                                                     0        0.0000010       -0.09353646    0.00000000
                                                     2        0.1200000        0.31768975    0.00000000
                                                     2        0.2000000       -0.71747951    0.00000000
                                                     2        0.4000000        0.65752308    0.00000000
                                                     2        1.7000000        2.94052587    0.00000000
                                      D - F
                                                     0        0.0000010       -0.04491202    0.00000000
                                                     2        0.1200000       -0.02862031    0.00000000
                                                     2        0.1800000       -0.21515263    0.00000000
                                                     2        0.3000000        0.80560647    0.00000000
                                                     2        0.4000000        0.47351754    0.00000000
                                                     2        0.7000000       -4.57051794    0.00000000
                                                     2        1.6000000       18.53737826    0.00000000
   11          1            1
                                      F and up 
                                                     0        0.0000010        0.00072061    0.00000000
                                                     2        0.1200000        0.03832357    0.00000000
                                                     2        0.1400000       -0.08683256    0.00000000
                                                     2        0.1800000        0.09312970    0.00000000
                                                     2        0.2800000       -0.02532572    0.00000000
                                                     2        0.4000000       -0.09430787    0.00000000
                                                     2        0.7000000        0.42710831    0.00000000
                                                     2        1.2000000       -2.11746981    0.00000000
                                      S - F
                                                     0        0.0000010        0.14449603    0.00000000
                                                     2        0.1200000       -0.56378993    0.00000000
                                                     2        0.1400000        0.63941249    0.00000000
                                                     2        0.2600000       -0.58461015    0.00000000
                                                     2        0.5000000        1.00157293    0.00000000
                                                     2        1.8000000       -0.14135838    0.00000000
                                      P - F
                                                     0        0.0000010       -0.09353646    0.00000000
                                                     2        0.1200000        0.31768975    0.00000000
                                                     2        0.2000000       -0.71747951    0.00000000
                                                     2        0.4000000        0.65752308    0.00000000
                                                     2        1.7000000        2.94052587    0.00000000
                                      D - F
                                                     0        0.0000010       -0.04491202    0.00000000
                                                     2        0.1200000       -0.02862031    0.00000000
                                                     2        0.1800000       -0.21515263    0.00000000
                                                     2        0.3000000        0.80560647    0.00000000
                                                     2        0.4000000        0.47351754    0.00000000
                                                     2        0.7000000       -4.57051794    0.00000000
                                                     2        1.6000000       18.53737826    0.00000000
   12          1            1
                                      F and up 
                                                     0        0.0000010        0.00072061    0.00000000
                                                     2        0.1200000        0.03832357    0.00000000
                                                     2        0.1400000       -0.08683256    0.00000000
                                                     2        0.1800000        0.09312970    0.00000000
                                                     2        0.2800000       -0.02532572    0.00000000
                                                     2        0.4000000       -0.09430787    0.00000000
                                                     2        0.7000000        0.42710831    0.00000000
                                                     2        1.2000000       -2.11746981    0.00000000
                                      S - F
                                                     0        0.0000010        0.14449603    0.00000000
                                                     2        0.1200000       -0.56378993    0.00000000
                                                     2        0.1400000        0.63941249    0.00000000
                                                     2        0.2600000       -0.58461015    0.00000000
                                                     2        0.5000000        1.00157293    0.00000000
                                                     2        1.8000000       -0.14135838    0.00000000
                                      P - F
                                                     0        0.0000010       -0.09353646    0.00000000
                                                     2        0.1200000        0.31768975    0.00000000
                                                     2        0.2000000       -0.71747951    0.00000000
                                                     2        0.4000000        0.65752308    0.00000000
                                                     2        1.7000000        2.94052587    0.00000000
                                      D - F
                                                     0        0.0000010       -0.04491202    0.00000000
                                                     2        0.1200000       -0.02862031    0.00000000
                                                     2        0.1800000       -0.21515263    0.00000000
                                                     2        0.3000000        0.80560647    0.00000000
                                                     2        0.4000000        0.47351754    0.00000000
                                                     2        0.7000000       -4.57051794    0.00000000
                                                     2        1.6000000       18.53737826    0.00000000
 ======================================================================================================
   192 basis functions,   324 primitive gaussians,   204 cartesian basis functions
    23 alpha electrons       23 beta electrons
       nuclear repulsion energy       248.7582923472 Hartrees.
 NAtoms=   12 NActive=   12 NUniq=   12 SFac= 1.00D+00 NAtFMM=   60 NAOKFM=F Big=F
   1 Symmetry operations used in ECPInt.
 ECPInt:  NShTT=    3570 NPrTT=   16578 LenC2=    3570 LenP2D=   13521.
 LDataN:  DoStor=T MaxTD1= 6 Len=  172
 Initial guess from the checkpoint file:  "Grambow2020_wb97xd3_006105_reverse_mol1.chk"
 B after Tr=    -0.030193    0.160555   -0.037137
         Rot=    0.335654   -0.177828    0.170461    0.909207 Ang=-140.78 deg.
 >>>>>>>>>> Convergence criterion not met.
 SCF Done:  E(RHF) =  -305.847758166     A.U. after    2 cycles
            NFock=  1  Conv=0.37D+00     -V/T= 2.0308

 **********************************************************************

            Population analysis using the SCF Density.

 **********************************************************************

 Orbital symmetries:
       Occupied  (A) (A) (A) (A) (A) (A) (A) (A) (A) (A) (A) (A)
                 (A) (A) (A) (A) (A) (A) (A) (A) (A) (A) (A)
       Virtual   (A) (A) (A) (A) (A) (A) (A) (A) (A) (A) (A) (A)
                 (A) (A) (A) (A) (A) (A) (A) (A) (A) (A) (A) (A)
                 (A) (A) (A) (A) (A) (A) (A) (A) (A) (A) (A) (A)
                 (A) (A) (A) (A) (A) (A) (A) (A) (A) (A) (A) (A)
                 (A) (A) (A) (A) (A) (A) (A) (A) (A) (A) (A) (A)
                 (A) (A) (A) (A) (A) (A) (A) (A) (A) (A) (A) (A)
                 (A) (A) (A) (A) (A) (A) (A) (A) (A) (A) (A) (A)
                 (A) (A) (A) (A) (A) (A) (A) (A) (A) (A) (A) (A)
                 (A) (A) (A) (A) (A) (A) (A) (A) (A) (A) (A) (A)
                 (A) (A) (A) (A) (A) (A) (A) (A) (A) (A) (A) (A)
                 (A) (A) (A) (A) (A) (A) (A) (A) (A) (A) (A) (A)
                 (A) (A) (A) (A) (A) (A) (A) (A) (A) (A) (A) (A)
                 (A) (A) (A) (A) (A) (A) (A) (A) (A) (A) (A) (A)
                 (A) (A) (A) (A) (A) (A) (A) (A) (A) (A) (A) (A)
                 (A)
 The electronic state is 1-A.
 Alpha  occ. eigenvalues --  -21.09688 -21.05359 -11.52461 -11.47502 -11.42117
 Alpha  occ. eigenvalues --  -11.35786  -1.86381  -1.71898  -1.11533  -0.96302
 Alpha  occ. eigenvalues --   -0.92442  -0.80663  -0.73038  -0.69718  -0.63916
 Alpha  occ. eigenvalues --   -0.57520  -0.54635  -0.47135  -0.43350  -0.37423
 Alpha  occ. eigenvalues --   -0.35343  -0.33200  -0.25823
 Alpha virt. eigenvalues --    0.03811   0.05071   0.05114   0.05846   0.06334
 Alpha virt. eigenvalues --    0.06488   0.09513   0.10031   0.10091   0.12865
 Alpha virt. eigenvalues --    0.13360   0.13804   0.14580   0.15689   0.16332
 Alpha virt. eigenvalues --    0.16737   0.17470   0.17703   0.18702   0.19582
 Alpha virt. eigenvalues --    0.20324   0.22650   0.24028   0.26543   0.27865
 Alpha virt. eigenvalues --    0.29259   0.29789   0.31171   0.31930   0.32864
 Alpha virt. eigenvalues --    0.33416   0.34733   0.35804   0.36329   0.37457
 Alpha virt. eigenvalues --    0.39630   0.39781   0.40843   0.41510   0.43158
 Alpha virt. eigenvalues --    0.43348   0.46343   0.47390   0.48766   0.49055
 Alpha virt. eigenvalues --    0.50468   0.52153   0.53486   0.53739   0.55326
 Alpha virt. eigenvalues --    0.57762   0.58236   0.59732   0.60167   0.60538
 Alpha virt. eigenvalues --    0.61972   0.63299   0.65126   0.66409   0.66711
 Alpha virt. eigenvalues --    0.67819   0.68932   0.70903   0.72058   0.72823
 Alpha virt. eigenvalues --    0.73287   0.75083   0.77556   0.77983   0.79152
 Alpha virt. eigenvalues --    0.81256   0.82176   0.82758   0.84173   0.85727
 Alpha virt. eigenvalues --    0.86610   0.88967   0.90522   0.93152   0.94809
 Alpha virt. eigenvalues --    0.97961   1.02811   1.05950   1.06843   1.13213
 Alpha virt. eigenvalues --    1.15646   1.17108   1.20593   1.22743   1.29504
 Alpha virt. eigenvalues --    1.32756   1.36068   1.36901   1.45697   1.49389
 Alpha virt. eigenvalues --    1.51551   1.54761   1.58433   1.64527   1.69360
 Alpha virt. eigenvalues --    1.72647   1.78393   1.79825   1.82523   1.86516
 Alpha virt. eigenvalues --    1.88733   1.92221   1.96053   1.96891   1.98534
 Alpha virt. eigenvalues --    1.99817   2.01766   2.04040   2.06488   2.07947
 Alpha virt. eigenvalues --    2.10144   2.13752   2.14766   2.18212   2.18860
 Alpha virt. eigenvalues --    2.22715   2.26106   2.27258   2.32985   2.35444
 Alpha virt. eigenvalues --    2.36159   2.42474   2.45499   2.48775   2.50875
 Alpha virt. eigenvalues --    2.53798   2.59414   2.64808   2.66750   2.68686
 Alpha virt. eigenvalues --    2.71451   2.76078   2.79605   2.81267   2.87469
 Alpha virt. eigenvalues --    2.88333   2.91600   2.97213   3.01279   3.04945
 Alpha virt. eigenvalues --    3.12799   3.18273   3.27736   3.36946   3.41968
 Alpha virt. eigenvalues --    3.46697   3.54371   3.63155   3.77014   3.78352
 Alpha virt. eigenvalues --    3.79017   3.86847   3.97423   4.31773   6.06277
 Alpha virt. eigenvalues --    6.08152   6.16460   6.18842   6.21523   6.25417
 Alpha virt. eigenvalues --    6.28320   6.32531   6.36341   6.42256
          Condensed to atoms (all electrons):
 Mulliken charges:
               1
     1  C   -1.226991
     2  O   -2.921073
     3  C   -0.639242
     4  C   -1.595554
     5  O   -2.120545
     6  C    0.346792
     7  H    1.355753
     8  H    1.455109
     9  H    1.364018
    10  H    1.375536
    11  H    1.099725
    12  H    1.506472
 Sum of Mulliken charges =  -0.00000
 Mulliken charges with hydrogens summed into heavy atoms:
               1
     1  C    1.583870
     2  O   -2.921073
     3  C    2.100312
     4  C   -0.495829
     5  O   -2.120545
     6  C    1.853264
 Electronic spatial extent (au):  <R**2>=            453.3576
 Charge=              0.0000 electrons
 Dipole moment (field-independent basis, Debye):
    X=              1.1496    Y=              0.8119    Z=              2.2064  Tot=              2.6170

 Test job not archived.
 1\1\GINC-SE120\SP\RHF\Aug-CC-pVDZ\C4H6O2\OHZDE\09-Apr-2025\0\\#t hf au
 g-cc-pvdz iop(5/13=1,5/36=2,99/5=2) pseudo=read geom=check guess=(read
 ,tcheck) scf=(maxcycle=1)\\title\\0,1\C,0,-1.24518137,-0.31041607,-0.0
 6043385\O,0,-0.78918461,0.77611723,-0.86576949\C,0,0.34844761,1.316251
 08,-0.43680329\C,0,1.25087931,-0.67466228,-0.29581727\O,0,0.78764217,0
 .15426033,1.0222836\C,0,0.03179008,-0.90740591,0.47929433\H,0,-1.88388
 724,0.05098994,0.75237667\H,0,-1.80894076,-0.97833298,-0.71101183\H,0,
 1.04787182,1.53731441,-1.23177293\H,0,0.26115502,2.07409402,0.34111723
 \H,0,2.06059383,-1.32430514,0.05359737\H,0,-0.06945985,-1.75272562,1.1
 5378748\\Version=ES64L-G16RevC.01\State=1-A\HF=-305.8477582\RMSD=3.665
 e-01\Dipole=-0.7174501,0.3924428,0.6255774\Quadrupole=-0.8865455,2.257
 951,-1.3714055,2.2498741,0.722069,-1.4470645\PG=C01 [X(C4H6O2)]\\@


 ... SUBJECTS WHICH DISCLOSE THEIR FULL POWER, MEANING AND BEAUTY AS SOON
 AS THEY ARE PRESENTED TO THE MIND HAVE VERY LITTLE OF THOSE QUALITIES
 TO DISCLOSE.
                           -- CHARLES DUTTON (1882)
 Job cpu time:       0 days  0 hours  0 minutes 44.3 seconds.
 Elapsed time:       0 days  0 hours  0 minutes  4.1 seconds.
 File lengths (MBytes):  RWF=     10 Int=      0 D2E=      0 Chk=      6 Scr=      1
 Normal termination of Gaussian 16 at Wed Apr  9 03:22:02 2025.
