 Entering Gaussian System, Link 0=g16
 Input=Grambow2020_wb97xd3_009368_forward_mol1.gjf
 Output=Grambow2020_wb97xd3_009368_forward_mol1.log
 Initial command:
 /arc/software/Gaussian/g16.c01/l1.exe "/tmp/slurm/4883732/Gau-2120122.inp" -scrdir="/tmp/slurm/4883732/"
 Entering Link 1 = /arc/software/Gaussian/g16.c01/l1.exe PID=   2120123.
  
 Copyright (c) 1988-2019, Gaussian, Inc.  All Rights Reserved.
  
 This is part of the Gaussian(R) 16 program.  It is based on
 the Gaussian(R) 09 system (copyright 2009, Gaussian, Inc.),
 the Gaussian(R) 03 system (copyright 2003, Gaussian, Inc.),
 the Gaussian(R) 98 system (copyright 1998, Gaussian, Inc.),
 the Gaussian(R) 94 system (copyright 1995, Gaussian, Inc.),
 the Gaussian 92(TM) system (copyright 1992, Gaussian, Inc.),
 the Gaussian 90(TM) system (copyright 1990, Gaussian, Inc.),
 the Gaussian 88(TM) system (copyright 1988, Gaussian, Inc.),
 the Gaussian 86(TM) system (copyright 1986, Carnegie Mellon
 University), and the Gaussian 82(TM) system (copyright 1983,
 Carnegie Mellon University). Gaussian is a federally registered
 trademark of Gaussian, Inc.
  
 This software contains proprietary and confidential information,
 including trade secrets, belonging to Gaussian, Inc.
  
 This software is provided under written license and may be
 used, copied, transmitted, or stored only in accord with that
 written license.
  
 The following legend is applicable only to US Government
 contracts under FAR:
  
                    RESTRICTED RIGHTS LEGEND
  
 Use, reproduction and disclosure by the US Government is
 subject to restrictions as set forth in subparagraphs (a)
 and (c) of the Commercial Computer Software - Restricted
 Rights clause in FAR 52.227-19.
  
 Gaussian, Inc.
 340 Quinnipiac St., Bldg. 40, Wallingford CT 06492
  
  
 ---------------------------------------------------------------
 Warning -- This program may not be used in any manner that
 competes with the business of Gaussian, Inc. or will provide
 assistance to any competitor of Gaussian, Inc.  The licensee
 of this program is prohibited from giving any competitor of
 Gaussian, Inc. access to this program.  By using this program,
 the user acknowledges that Gaussian, Inc. is engaged in the
 business of creating and licensing software in the field of
 computational chemistry and represents and warrants to the
 licensee that it is not a competitor of Gaussian, Inc. and that
 it will not use this program in any manner prohibited above.
 ---------------------------------------------------------------
  

 Cite this work as:
 Gaussian 16, Revision C.01,
 M. J. Frisch, G. W. Trucks, H. B. Schlegel, G. E. Scuseria, 
 M. A. Robb, J. R. Cheeseman, G. Scalmani, V. Barone, 
 G. A. Petersson, H. Nakatsuji, X. Li, M. Caricato, A. V. Marenich, 
 J. Bloino, B. G. Janesko, R. Gomperts, B. Mennucci, H. P. Hratchian, 
 J. V. Ortiz, A. F. Izmaylov, J. L. Sonnenberg, D. Williams-Young, 
 F. Ding, F. Lipparini, F. Egidi, J. Goings, B. Peng, A. Petrone, 
 T. Henderson, D. Ranasinghe, V. G. Zakrzewski, J. Gao, N. Rega, 
 G. Zheng, W. Liang, M. Hada, M. Ehara, K. Toyota, R. Fukuda, 
 J. Hasegawa, M. Ishida, T. Nakajima, Y. Honda, O. Kitao, H. Nakai, 
 T. Vreven, K. Throssell, J. A. Montgomery, Jr., J. E. Peralta, 
 F. Ogliaro, M. J. Bearpark, J. J. Heyd, E. N. Brothers, K. N. Kudin, 
 V. N. Staroverov, T. A. Keith, R. Kobayashi, J. Normand, 
 K. Raghavachari, A. P. Rendell, J. C. Burant, S. S. Iyengar, 
 J. Tomasi, M. Cossi, J. M. Millam, M. Klene, C. Adamo, R. Cammi, 
 J. W. Ochterski, R. L. Martin, K. Morokuma, O. Farkas, 
 J. B. Foresman, and D. J. Fox, Gaussian, Inc., Wallingford CT, 2019.
 
 ******************************************
 Gaussian 16:  ES64L-G16RevC.01  3-Jul-2019
                 9-Apr-2025 
 ******************************************
 %nprocs=16
 Will use up to   16 processors via shared memory.
 %mem=30GB
 %chk=Grambow2020_wb97xd3_009368_forward_mol1.chk
 ----------------------------------------------------------------------
 #t hf aug-cc-pvdz symm=none int=(grid=ultrafine) guess=(read,tcheck) s
 table=(opt,rrhf)
 ----------------------------------------------------------------------
 -----
 title
 -----
 Symbolic Z-matrix:
 Charge =  0 Multiplicity = 1
 C                     2.33884   0.10877   0.45808 
 C                     1.1614    0.09159   0.2092 
 C                    -0.20637   0.04524  -0.10196 
 C                    -1.13156   1.0793    0.2504 
 O                    -2.30923   0.92488   0.48555 
 N                    -1.88127  -1.44721  -0.15502 
 C                    -0.77104  -1.22209  -0.62265 
 H                     3.3801    0.13715   0.6791 
 H                    -0.68255   2.08898   0.20856 
 H                    -0.14597  -1.91583  -1.19389 
 
                    Distance matrix (angstroms):
                    1          2          3          4          5
     1  C    0.000000
     2  C    1.203579   0.000000
     3  C    2.606875   1.403487   0.000000
     4  C    3.609543   2.496990   1.431582   0.000000
     5  O    4.719255   3.579945   2.353922   1.210798   0.000000
     6  N    4.539422   3.429062   2.244000   2.666404   2.494054
     7  C    3.551133   2.480341   1.481924   2.487690   2.864194
     8  H    1.064835   2.268370   3.671687   4.628884   5.746864
     9  H    3.621094   2.718402   2.121331   1.105811   2.019391
    10  H    3.605866   2.776261   2.245381   3.468164   3.945860
                    6          7          8          9         10
     6  N    0.000000
     7  C    1.225547   0.000000
     8  H    5.557700   4.557860   0.000000
     9  H    3.751507   3.414959   4.531685   0.000000
    10  H    2.076083   1.094669   4.489542   4.277064   0.000000
 Symmetry turned off by external request.
 Rotational constants (GHZ):           5.2349255           2.1411914           1.5624919
   188 basis functions,   334 primitive gaussians,   202 cartesian basis functions
    24 alpha electrons       24 beta electrons
       nuclear repulsion energy       238.1590017329 Hartrees.
 NAtoms=   10 NActive=   10 NUniq=   10 SFac= 1.00D+00 NAtFMM=   60 NAOKFM=F Big=F
 ExpMin= 2.97D-02 ExpMax= 1.17D+04 ExpMxC= 4.01D+02 IAcc=3 IRadAn=         5 AccDes= 0.00D+00
 Harris functional with IExCor=  205 and IRadAn=       5 diagonalized for initial guess.
 HarFok:  IExCor=  205 AccDes= 0.00D+00 IRadAn=         5 IDoV= 1 UseB2=F ITyADJ=14
 ICtDFT=  3500011 ScaDFX=  1.000000  1.000000  1.000000  1.000000
 FoFCou: FMM=F IPFlag=           0 FMFlag=      100000 FMFlg1=           0
         NFxFlg=           0 DoJE=T BraDBF=F KetDBF=T FulRan=T
         wScrn=  0.000000 ICntrl=       500 IOpCl=  0 I1Cent=   200000004 NGrid=           0
         NMat0=    1 NMatS0=      1 NMatT0=    0 NMatD0=    1 NMtDS0=    0 NMtDT0=    0
 Symmetry not used in FoFCou.
 SCF Done:  E(RHF) =  -320.200107211     A.U. after   21 cycles
            NFock= 21  Conv=0.70D-08     -V/T= 2.0008

 **********************************************************************

            Population analysis using the SCF Density.

 **********************************************************************

 Alpha  occ. eigenvalues --  -20.56454 -15.69277 -11.35086 -11.34493 -11.30310
 Alpha  occ. eigenvalues --  -11.27194 -11.26355  -1.40087  -1.29484  -1.10685
 Alpha  occ. eigenvalues --   -1.01052  -0.87194  -0.79720  -0.76165  -0.70995
 Alpha  occ. eigenvalues --   -0.65174  -0.63938  -0.62006  -0.57396  -0.52268
 Alpha  occ. eigenvalues --   -0.46343  -0.44291  -0.41818  -0.31729
 Alpha virt. eigenvalues --   -0.02327   0.02793   0.03706   0.04824   0.07688
 Alpha virt. eigenvalues --    0.08752   0.08908   0.09615   0.10181   0.10999
 Alpha virt. eigenvalues --    0.11097   0.12764   0.14190   0.14882   0.15357
 Alpha virt. eigenvalues --    0.16041   0.16656   0.17121   0.17524   0.18196
 Alpha virt. eigenvalues --    0.19800   0.21126   0.22303   0.22493   0.24035
 Alpha virt. eigenvalues --    0.24751   0.24985   0.26417   0.27824   0.29653
 Alpha virt. eigenvalues --    0.30303   0.31701   0.33031   0.33198   0.34070
 Alpha virt. eigenvalues --    0.35533   0.36345   0.38226   0.40630   0.41677
 Alpha virt. eigenvalues --    0.42564   0.43668   0.44570   0.45554   0.45848
 Alpha virt. eigenvalues --    0.47881   0.48231   0.49760   0.52571   0.53780
 Alpha virt. eigenvalues --    0.54656   0.56115   0.58096   0.60009   0.61485
 Alpha virt. eigenvalues --    0.61697   0.63826   0.64330   0.65687   0.66935
 Alpha virt. eigenvalues --    0.68628   0.69906   0.71309   0.73437   0.74937
 Alpha virt. eigenvalues --    0.75982   0.76466   0.77963   0.79617   0.82779
 Alpha virt. eigenvalues --    0.83411   0.83708   0.84769   0.86085   0.88718
 Alpha virt. eigenvalues --    0.89097   0.90595   0.92056   0.92818   0.94297
 Alpha virt. eigenvalues --    0.95751   0.97702   0.98237   0.99226   1.00462
 Alpha virt. eigenvalues --    1.06412   1.08025   1.11425   1.15134   1.19091
 Alpha virt. eigenvalues --    1.19953   1.24077   1.25041   1.27586   1.30080
 Alpha virt. eigenvalues --    1.32287   1.33972   1.36905   1.39884   1.41037
 Alpha virt. eigenvalues --    1.43909   1.47330   1.50777   1.51670   1.55826
 Alpha virt. eigenvalues --    1.57951   1.59210   1.60413   1.61855   1.63868
 Alpha virt. eigenvalues --    1.64995   1.66754   1.68988   1.72510   1.73945
 Alpha virt. eigenvalues --    1.75112   1.78009   1.78542   1.83914   1.85650
 Alpha virt. eigenvalues --    1.90581   1.92055   1.93247   1.95843   1.97667
 Alpha virt. eigenvalues --    2.03053   2.03689   2.06812   2.10465   2.11456
 Alpha virt. eigenvalues --    2.14828   2.18820   2.22718   2.26864   2.30693
 Alpha virt. eigenvalues --    2.33457   2.34402   2.41261   2.47299   2.49893
 Alpha virt. eigenvalues --    2.54557   2.59986   2.60590   2.64629   2.66638
 Alpha virt. eigenvalues --    2.69098   2.72050   2.77409   2.81207   2.84608
 Alpha virt. eigenvalues --    2.93416   2.99408   3.13817   3.24406   3.32162
 Alpha virt. eigenvalues --    3.38636   3.43499   3.69234   3.76914   3.81189
 Alpha virt. eigenvalues --    3.88890   4.00402   4.14952   4.17795
          Condensed to atoms (all electrons):
 Mulliken charges:
               1
     1  C    0.489141
     2  C    0.061009
     3  C    0.024560
     4  C    0.728835
     5  O   -0.732867
     6  N   -0.461459
     7  C    0.644233
     8  H   -0.475099
     9  H   -0.124185
    10  H   -0.154166
 Sum of Mulliken charges =  -0.00000
 Mulliken charges with hydrogens summed into heavy atoms:
               1
     1  C    0.014042
     2  C    0.061009
     3  C    0.024560
     4  C    0.604649
     5  O   -0.732867
     6  N   -0.461459
     7  C    0.490067
 Electronic spatial extent (au):  <R**2>=            754.9558
 Charge=             -0.0000 electrons
 Dipole moment (field-independent basis, Debye):
    X=              3.9247    Y=             -1.4020    Z=             -1.6917  Tot=              4.4978
 NROrb=    188 NOA=    24 NOB=    24 NVA=   164 NVB=   164

 **** Warning!!: The largest alpha MO coefficient is  0.58853464D+02

    12 initial guesses have been made.
 Iteration     1 Dimension    12 NMult     0 NNew     12
 Iteration     2 Dimension    24 NMult    12 NNew     12
 Iteration     3 Dimension    27 NMult    24 NNew      3
 Iteration     4 Dimension    30 NMult    27 NNew      3
 Iteration     5 Dimension    33 NMult    30 NNew      3
 Iteration     6 Dimension    36 NMult    33 NNew      3
 ***********************************************************************
 Stability analysis using <AA,BB:AA,BB> singles matrix:
 ***********************************************************************
 Ground to excited state transition densities written to RWF  633

 Eigenvectors of the stability matrix:
 
 Excited state symmetry could not be determined.
 Eigenvector   1:      Singlet-?Sym  Eigenvalue= 0.0381017  <S**2>=0.000
      19 -> 25        -0.12433
      20 -> 25         0.17459
      21 -> 25         0.17431
      24 -> 25         0.57893
 The wavefunction is stable under the perturbations considered.
 The wavefunction is already stable.

 **********************************************************************

            Population analysis using the SCF Density.

 **********************************************************************

 Alpha  occ. eigenvalues --  -20.56454 -15.69277 -11.35086 -11.34493 -11.30310
 Alpha  occ. eigenvalues --  -11.27194 -11.26355  -1.40087  -1.29484  -1.10685
 Alpha  occ. eigenvalues --   -1.01052  -0.87194  -0.79720  -0.76165  -0.70995
 Alpha  occ. eigenvalues --   -0.65174  -0.63938  -0.62006  -0.57396  -0.52268
 Alpha  occ. eigenvalues --   -0.46343  -0.44291  -0.41818  -0.31729
 Alpha virt. eigenvalues --   -0.02327   0.02793   0.03706   0.04824   0.07688
 Alpha virt. eigenvalues --    0.08752   0.08908   0.09615   0.10181   0.10999
 Alpha virt. eigenvalues --    0.11097   0.12764   0.14190   0.14882   0.15357
 Alpha virt. eigenvalues --    0.16041   0.16656   0.17121   0.17524   0.18196
 Alpha virt. eigenvalues --    0.19800   0.21126   0.22303   0.22493   0.24035
 Alpha virt. eigenvalues --    0.24751   0.24985   0.26417   0.27824   0.29653
 Alpha virt. eigenvalues --    0.30303   0.31701   0.33031   0.33198   0.34070
 Alpha virt. eigenvalues --    0.35533   0.36345   0.38226   0.40630   0.41677
 Alpha virt. eigenvalues --    0.42564   0.43668   0.44570   0.45554   0.45848
 Alpha virt. eigenvalues --    0.47881   0.48231   0.49760   0.52571   0.53780
 Alpha virt. eigenvalues --    0.54656   0.56115   0.58096   0.60009   0.61485
 Alpha virt. eigenvalues --    0.61697   0.63826   0.64330   0.65687   0.66935
 Alpha virt. eigenvalues --    0.68628   0.69906   0.71309   0.73437   0.74937
 Alpha virt. eigenvalues --    0.75982   0.76466   0.77963   0.79617   0.82779
 Alpha virt. eigenvalues --    0.83411   0.83708   0.84769   0.86085   0.88718
 Alpha virt. eigenvalues --    0.89097   0.90595   0.92056   0.92818   0.94297
 Alpha virt. eigenvalues --    0.95751   0.97702   0.98237   0.99226   1.00462
 Alpha virt. eigenvalues --    1.06412   1.08025   1.11425   1.15134   1.19091
 Alpha virt. eigenvalues --    1.19953   1.24077   1.25041   1.27586   1.30080
 Alpha virt. eigenvalues --    1.32287   1.33972   1.36905   1.39884   1.41037
 Alpha virt. eigenvalues --    1.43909   1.47330   1.50777   1.51670   1.55826
 Alpha virt. eigenvalues --    1.57951   1.59210   1.60413   1.61855   1.63868
 Alpha virt. eigenvalues --    1.64995   1.66754   1.68988   1.72510   1.73945
 Alpha virt. eigenvalues --    1.75112   1.78009   1.78542   1.83914   1.85650
 Alpha virt. eigenvalues --    1.90581   1.92055   1.93247   1.95843   1.97667
 Alpha virt. eigenvalues --    2.03053   2.03689   2.06812   2.10465   2.11456
 Alpha virt. eigenvalues --    2.14828   2.18820   2.22718   2.26864   2.30693
 Alpha virt. eigenvalues --    2.33457   2.34402   2.41261   2.47299   2.49893
 Alpha virt. eigenvalues --    2.54557   2.59986   2.60590   2.64629   2.66638
 Alpha virt. eigenvalues --    2.69098   2.72050   2.77409   2.81207   2.84608
 Alpha virt. eigenvalues --    2.93416   2.99408   3.13817   3.24406   3.32162
 Alpha virt. eigenvalues --    3.38636   3.43499   3.69234   3.76914   3.81189
 Alpha virt. eigenvalues --    3.88890   4.00402   4.14952   4.17795
          Condensed to atoms (all electrons):
 Mulliken charges:
               1
     1  C    0.489141
     2  C    0.061009
     3  C    0.024560
     4  C    0.728835
     5  O   -0.732867
     6  N   -0.461459
     7  C    0.644233
     8  H   -0.475099
     9  H   -0.124185
    10  H   -0.154166
 Sum of Mulliken charges =  -0.00000
 Mulliken charges with hydrogens summed into heavy atoms:
               1
     1  C    0.014042
     2  C    0.061009
     3  C    0.024560
     4  C    0.604649
     5  O   -0.732867
     6  N   -0.461459
     7  C    0.490067
 Electronic spatial extent (au):  <R**2>=            754.9558
 Charge=             -0.0000 electrons
 Dipole moment (field-independent basis, Debye):
    X=              3.9247    Y=             -1.4020    Z=             -1.6917  Tot=              4.4978
 Unable to Open any file for archive entry.
 1\1\GINC-SE174\Stability\RHF\Aug-CC-pVDZ\C5H3N1O1\OHZDE\09-Apr-2025\0\
 \#t hf aug-cc-pvdz symm=none int=(grid=ultrafine) guess=(read,tcheck) 
 stable=(opt,rrhf)\\title\\0,1\C,0,2.33884383,0.10876678,0.45807628\C,0
 ,1.1614024,0.0915947,0.20920183\C,0,-0.20637012,0.04524144,-0.10196416
 \C,0,-1.13156472,1.07930214,0.2503999\O,0,-2.3092277,0.92488027,0.4855
 524\N,0,-1.88127378,-1.44721321,-0.15501882\C,0,-0.77104326,-1.2220919
 8,-0.62264612\H,0,3.38010111,0.13715044,0.67910085\H,0,-0.6825487,2.08
 898118,0.20856383\H,0,-0.14597106,-1.91582776,-1.19388598\\Version=ES6
 4L-G16RevC.01\HF=-320.2001072\RMSD=7.004e-09\Dipole=1.544081,-0.551602
 7,-0.6655499\Quadrupole=-4.2055573,3.2628025,0.9427548,1.437184,3.2299
 317,2.2403793\PG=Unknown\\@
 The archive entry for this job was punched.


 When cryptography is outlawed, bayl bhgynjf jvyy unir cevinpl.
 Job cpu time:       0 days  0 hours  1 minutes 35.0 seconds.
 Elapsed time:       0 days  0 hours  0 minutes 13.8 seconds.
 File lengths (MBytes):  RWF=    184 Int=      0 D2E=      0 Chk=      6 Scr=      1
 Normal termination of Gaussian 16 at Wed Apr  9 19:31:55 2025.
 Initial command:
 /arc/software/Gaussian/g16.c01/l1.exe "/tmp/slurm/4883732/Gau-2120122.inp" -scrdir="/tmp/slurm/4883732/"
 Entering Link 1 = /arc/software/Gaussian/g16.c01/l1.exe PID=   2120336.
  
 Copyright (c) 1988-2019, Gaussian, Inc.  All Rights Reserved.
  
 This is part of the Gaussian(R) 16 program.  It is based on
 the Gaussian(R) 09 system (copyright 2009, Gaussian, Inc.),
 the Gaussian(R) 03 system (copyright 2003, Gaussian, Inc.),
 the Gaussian(R) 98 system (copyright 1998, Gaussian, Inc.),
 the Gaussian(R) 94 system (copyright 1995, Gaussian, Inc.),
 the Gaussian 92(TM) system (copyright 1992, Gaussian, Inc.),
 the Gaussian 90(TM) system (copyright 1990, Gaussian, Inc.),
 the Gaussian 88(TM) system (copyright 1988, Gaussian, Inc.),
 the Gaussian 86(TM) system (copyright 1986, Carnegie Mellon
 University), and the Gaussian 82(TM) system (copyright 1983,
 Carnegie Mellon University). Gaussian is a federally registered
 trademark of Gaussian, Inc.
  
 This software contains proprietary and confidential information,
 including trade secrets, belonging to Gaussian, Inc.
  
 This software is provided under written license and may be
 used, copied, transmitted, or stored only in accord with that
 written license.
  
 The following legend is applicable only to US Government
 contracts under FAR:
  
                    RESTRICTED RIGHTS LEGEND
  
 Use, reproduction and disclosure by the US Government is
 subject to restrictions as set forth in subparagraphs (a)
 and (c) of the Commercial Computer Software - Restricted
 Rights clause in FAR 52.227-19.
  
 Gaussian, Inc.
 340 Quinnipiac St., Bldg. 40, Wallingford CT 06492
  
  
 ---------------------------------------------------------------
 Warning -- This program may not be used in any manner that
 competes with the business of Gaussian, Inc. or will provide
 assistance to any competitor of Gaussian, Inc.  The licensee
 of this program is prohibited from giving any competitor of
 Gaussian, Inc. access to this program.  By using this program,
 the user acknowledges that Gaussian, Inc. is engaged in the
 business of creating and licensing software in the field of
 computational chemistry and represents and warrants to the
 licensee that it is not a competitor of Gaussian, Inc. and that
 it will not use this program in any manner prohibited above.
 ---------------------------------------------------------------
  

 Cite this work as:
 Gaussian 16, Revision C.01,
 M. J. Frisch, G. W. Trucks, H. B. Schlegel, G. E. Scuseria, 
 M. A. Robb, J. R. Cheeseman, G. Scalmani, V. Barone, 
 G. A. Petersson, H. Nakatsuji, X. Li, M. Caricato, A. V. Marenich, 
 J. Bloino, B. G. Janesko, R. Gomperts, B. Mennucci, H. P. Hratchian, 
 J. V. Ortiz, A. F. Izmaylov, J. L. Sonnenberg, D. Williams-Young, 
 F. Ding, F. Lipparini, F. Egidi, J. Goings, B. Peng, A. Petrone, 
 T. Henderson, D. Ranasinghe, V. G. Zakrzewski, J. Gao, N. Rega, 
 G. Zheng, W. Liang, M. Hada, M. Ehara, K. Toyota, R. Fukuda, 
 J. Hasegawa, M. Ishida, T. Nakajima, Y. Honda, O. Kitao, H. Nakai, 
 T. Vreven, K. Throssell, J. A. Montgomery, Jr., J. E. Peralta, 
 F. Ogliaro, M. J. Bearpark, J. J. Heyd, E. N. Brothers, K. N. Kudin, 
 V. N. Staroverov, T. A. Keith, R. Kobayashi, J. Normand, 
 K. Raghavachari, A. P. Rendell, J. C. Burant, S. S. Iyengar, 
 J. Tomasi, M. Cossi, J. M. Millam, M. Klene, C. Adamo, R. Cammi, 
 J. W. Ochterski, R. L. Martin, K. Morokuma, O. Farkas, 
 J. B. Foresman, and D. J. Fox, Gaussian, Inc., Wallingford CT, 2019.
 
 ******************************************
 Gaussian 16:  ES64L-G16RevC.01  3-Jul-2019
                 9-Apr-2025 
 ******************************************
 %nprocs=16
 Will use up to   16 processors via shared memory.
 %mem=30GB
 %chk=Grambow2020_wb97xd3_009368_forward_mol1.chk
 ----------------------------------------------------------------------
 #t hf aug-cc-pvdz iop(5/13=1,5/36=2,99/5=2) pseudo=read geom=check gue
 ss=(read,tcheck) scf=(maxcycle=1)
 ----------------------------------------------------------------------
 -----
 title
 -----
 Structure from the checkpoint file:  "Grambow2020_wb97xd3_009368_forward_mol1.chk"
 Charge =  0 Multiplicity = 1
 Z-Matrix found in chk file.
 C,0,2.33884383,0.10876678,0.45807628
 C,0,1.1614024,0.0915947,0.20920183
 C,0,-0.20637012,0.04524144,-0.10196416
 C,0,-1.13156472,1.07930214,0.2503999
 O,0,-2.3092277,0.92488027,0.4855524
 N,0,-1.88127378,-1.44721321,-0.15501882
 C,0,-0.77104326,-1.22209198,-0.62264612
 H,0,3.38010111,0.13715044,0.67910085
 H,0,-0.6825487,2.08898118,0.20856383
 H,0,-0.14597106,-1.91582776,-1.19388598
 Recover connectivity data from disk.
                    Distance matrix (angstroms):
                    1          2          3          4          5
     1  C    0.000000
     2  C    1.203579   0.000000
     3  C    2.606875   1.403487   0.000000
     4  C    3.609543   2.496990   1.431582   0.000000
     5  O    4.719255   3.579945   2.353922   1.210798   0.000000
     6  N    4.539422   3.429062   2.244000   2.666404   2.494054
     7  C    3.551133   2.480341   1.481924   2.487690   2.864194
     8  H    1.064835   2.268370   3.671687   4.628884   5.746864
     9  H    3.621094   2.718402   2.121331   1.105811   2.019391
    10  H    3.605866   2.776261   2.245381   3.468164   3.945860
                    6          7          8          9         10
     6  N    0.000000
     7  C    1.225547   0.000000
     8  H    5.557700   4.557860   0.000000
     9  H    3.751507   3.414959   4.531685   0.000000
    10  H    2.076083   1.094669   4.489542   4.277064   0.000000
 Framework group  C1[X(C5H3NO)]
 Deg. of freedom    24
                         Standard orientation:                         
 ---------------------------------------------------------------------
 Center     Atomic      Atomic             Coordinates (Angstroms)
 Number     Number       Type             X           Y           Z
 ---------------------------------------------------------------------
      1          6           0        2.790747   -0.150946   -0.186390
      2          6           0        1.601063   -0.101611   -0.010835
      3          6           0        0.217222   -0.012232    0.205433
      4          6           0       -0.662798   -1.140606    0.163468
      5          8           0       -1.828548   -1.116826   -0.162867
      6          7           0       -1.491628    1.350381   -0.303148
      7          6           0       -0.404679    1.331666    0.262677
      8          1           0        3.843185   -0.207363   -0.338264
      9          1           0       -0.193932   -2.064691    0.549537
     10          1           0        0.171202    2.196363    0.607583
 ---------------------------------------------------------------------
 Rotational constants (GHZ):           5.2349255           2.1411914           1.5624919
 ======================================================================================================
                                       Pseudopotential Parameters
 ======================================================================================================
  Center     Atomic      Valence      Angular      Power
  Number     Number     Electrons     Momentum     of R      Exponent        Coefficient   SO-Coeffient
 ======================================================================================================
    1          6            6
                                      G and up 
                                                     0        0.0000010       -0.00286759    0.00000000
                                                     2        0.1200000        0.03193960    0.00000000
                                                     2        0.1600000       -0.04027782    0.00000000
                                                     2        0.2600000        0.24782456    0.00000000
                                                     2        0.4000000       -0.62266671    0.00000000
                                                     2        0.7000000        0.35695227    0.00000000
                                      S - G
                                                     0        0.0000010       -0.06602313    0.00000000
                                                     2        0.1200000        1.47277455    0.00000000
                                                     2        0.1600000       -4.06924166    0.00000000
                                                     2        0.3000000        5.02952802    0.00000000
                                                     2        0.7000000       -5.65856978    0.00000000
                                                     2        1.7000000        8.57604414    0.00000000
                                      P - G
                                                     0        0.0000010        0.49434425    0.00000000
                                                     2        0.1200000       -1.37391547    0.00000000
                                                     2        0.1600000        3.65411806    0.00000000
                                                     2        0.2800000       -7.36479843    0.00000000
                                                     2        0.6000000       17.22091285    0.00000000
                                                     2        1.1000000      -23.50107827    0.00000000
                                                     2        3.0000000       16.29464063    0.00000000
                                      D - G
                                                     0        0.0000010       -0.28693103    0.00000000
                                                     2        0.1200000        0.12273044    0.00000000
                                                     2        0.3000000       -0.43416384    0.00000000
                                                     2        0.7000000        2.23358493    0.00000000
                                      F - G
                                                     0        0.0000010        0.07263570    0.00000000
                                                     2        0.1400000       -0.76152861    0.00000000
                                                     2        0.2200000        1.98045593    0.00000000
                                                     2        0.4000000       -2.42426427    0.00000000
                                                     2        0.7000000        0.52335237    0.00000000
    2          6            6
                                      G and up 
                                                     0        0.0000010       -0.00286759    0.00000000
                                                     2        0.1200000        0.03193960    0.00000000
                                                     2        0.1600000       -0.04027782    0.00000000
                                                     2        0.2600000        0.24782456    0.00000000
                                                     2        0.4000000       -0.62266671    0.00000000
                                                     2        0.7000000        0.35695227    0.00000000
                                      S - G
                                                     0        0.0000010       -0.06602313    0.00000000
                                                     2        0.1200000        1.47277455    0.00000000
                                                     2        0.1600000       -4.06924166    0.00000000
                                                     2        0.3000000        5.02952802    0.00000000
                                                     2        0.7000000       -5.65856978    0.00000000
                                                     2        1.7000000        8.57604414    0.00000000
                                      P - G
                                                     0        0.0000010        0.49434425    0.00000000
                                                     2        0.1200000       -1.37391547    0.00000000
                                                     2        0.1600000        3.65411806    0.00000000
                                                     2        0.2800000       -7.36479843    0.00000000
                                                     2        0.6000000       17.22091285    0.00000000
                                                     2        1.1000000      -23.50107827    0.00000000
                                                     2        3.0000000       16.29464063    0.00000000
                                      D - G
                                                     0        0.0000010       -0.28693103    0.00000000
                                                     2        0.1200000        0.12273044    0.00000000
                                                     2        0.3000000       -0.43416384    0.00000000
                                                     2        0.7000000        2.23358493    0.00000000
                                      F - G
                                                     0        0.0000010        0.07263570    0.00000000
                                                     2        0.1400000       -0.76152861    0.00000000
                                                     2        0.2200000        1.98045593    0.00000000
                                                     2        0.4000000       -2.42426427    0.00000000
                                                     2        0.7000000        0.52335237    0.00000000
    3          6            6
                                      G and up 
                                                     0        0.0000010       -0.00286759    0.00000000
                                                     2        0.1200000        0.03193960    0.00000000
                                                     2        0.1600000       -0.04027782    0.00000000
                                                     2        0.2600000        0.24782456    0.00000000
                                                     2        0.4000000       -0.62266671    0.00000000
                                                     2        0.7000000        0.35695227    0.00000000
                                      S - G
                                                     0        0.0000010       -0.06602313    0.00000000
                                                     2        0.1200000        1.47277455    0.00000000
                                                     2        0.1600000       -4.06924166    0.00000000
                                                     2        0.3000000        5.02952802    0.00000000
                                                     2        0.7000000       -5.65856978    0.00000000
                                                     2        1.7000000        8.57604414    0.00000000
                                      P - G
                                                     0        0.0000010        0.49434425    0.00000000
                                                     2        0.1200000       -1.37391547    0.00000000
                                                     2        0.1600000        3.65411806    0.00000000
                                                     2        0.2800000       -7.36479843    0.00000000
                                                     2        0.6000000       17.22091285    0.00000000
                                                     2        1.1000000      -23.50107827    0.00000000
                                                     2        3.0000000       16.29464063    0.00000000
                                      D - G
                                                     0        0.0000010       -0.28693103    0.00000000
                                                     2        0.1200000        0.12273044    0.00000000
                                                     2        0.3000000       -0.43416384    0.00000000
                                                     2        0.7000000        2.23358493    0.00000000
                                      F - G
                                                     0        0.0000010        0.07263570    0.00000000
                                                     2        0.1400000       -0.76152861    0.00000000
                                                     2        0.2200000        1.98045593    0.00000000
                                                     2        0.4000000       -2.42426427    0.00000000
                                                     2        0.7000000        0.52335237    0.00000000
    4          6            6
                                      G and up 
                                                     0        0.0000010       -0.00286759    0.00000000
                                                     2        0.1200000        0.03193960    0.00000000
                                                     2        0.1600000       -0.04027782    0.00000000
                                                     2        0.2600000        0.24782456    0.00000000
                                                     2        0.4000000       -0.62266671    0.00000000
                                                     2        0.7000000        0.35695227    0.00000000
                                      S - G
                                                     0        0.0000010       -0.06602313    0.00000000
                                                     2        0.1200000        1.47277455    0.00000000
                                                     2        0.1600000       -4.06924166    0.00000000
                                                     2        0.3000000        5.02952802    0.00000000
                                                     2        0.7000000       -5.65856978    0.00000000
                                                     2        1.7000000        8.57604414    0.00000000
                                      P - G
                                                     0        0.0000010        0.49434425    0.00000000
                                                     2        0.1200000       -1.37391547    0.00000000
                                                     2        0.1600000        3.65411806    0.00000000
                                                     2        0.2800000       -7.36479843    0.00000000
                                                     2        0.6000000       17.22091285    0.00000000
                                                     2        1.1000000      -23.50107827    0.00000000
                                                     2        3.0000000       16.29464063    0.00000000
                                      D - G
                                                     0        0.0000010       -0.28693103    0.00000000
                                                     2        0.1200000        0.12273044    0.00000000
                                                     2        0.3000000       -0.43416384    0.00000000
                                                     2        0.7000000        2.23358493    0.00000000
                                      F - G
                                                     0        0.0000010        0.07263570    0.00000000
                                                     2        0.1400000       -0.76152861    0.00000000
                                                     2        0.2200000        1.98045593    0.00000000
                                                     2        0.4000000       -2.42426427    0.00000000
                                                     2        0.7000000        0.52335237    0.00000000
    5          8            8
                                      G and up 
                                                     0        0.0000010       -0.00165251    0.00000000
                                                     2        0.1200000       -0.10937202    0.00000000
                                                     2        0.1400000        0.35668905    0.00000000
                                                     2        0.1800000       -0.51696033    0.00000000
                                                     2        0.2400000        0.52446472    0.00000000
                                                     2        0.4000000       -0.07754493    0.00000000
                                                     2        0.8000000       -1.90560988    0.00000000
                                                     2        1.7000000        0.19857963    0.00000000
                                      S - G
                                                     0        0.0000010       -0.03845181    0.00000000
                                                     2        0.1400000        0.42024558    0.00000000
                                                     2        0.4000000       -4.10467779    0.00000000
                                                     2        1.3000000        9.99571838    0.00000000
                                      P - G
                                                     0        0.0000010        0.33206183    0.00000000
                                                     2        0.1200000       -0.18708141    0.00000000
                                                     2        0.2800000       -0.18179081    0.00000000
                                                     2        0.7000000        1.18820394    0.00000000
                                      D - G
                                                     0        0.0000010       -0.57891674    0.00000000
                                                     2        0.1200000        0.60487490    0.00000000
                                                     2        0.2400000       -0.24931464    0.00000000
                                                     2        0.3000000       -2.75054612    0.00000000
                                                     2        1.0000000       15.96776040    0.00000000
                                      F - G
                                                     0        0.0000010        0.37449041    0.00000000
                                                     2        0.1200000       -0.63373642    0.00000000
                                                     2        0.1400000       -0.08412804    0.00000000
                                                     2        0.2800000        2.62321406    0.00000000
                                                     2        0.6000000       -2.68223623    0.00000000
    6          7            7
                                      G and up 
                                                     0        0.0000010        0.00420138    0.00000000
                                                     2        0.1200000        0.05872431    0.00000000
                                                     2        0.1400000       -0.08436978    0.00000000
                                                     2        0.2000000        0.05409159    0.00000000
                                                     2        0.2600000        0.14199713    0.00000000
                                                     2        0.6000000       -0.79062770    0.00000000
                                                     2        0.7000000       -0.14441060    0.00000000
                                                     2        1.5000000        0.73772979    0.00000000
                                      S - G
                                                     0        0.0000010       -0.03094411    0.00000000
                                                     2        0.1200000        0.65332522    0.00000000
                                                     2        0.1800000       -1.38149133    0.00000000
                                                     2        1.3000000        3.29267299    0.00000000
                                      P - G
                                                     0        0.0000010        0.07303105    0.00000000
                                                     2        0.1200000        0.23145115    0.00000000
                                                     2        0.2000000       -1.20679699    0.00000000
                                                     2        0.4000000        1.75088447    0.00000000
                                                     2        1.2000000       -0.67486559    0.00000000
                                      D - G
                                                     0        0.0000010        0.07560739    0.00000000
                                                     2        0.3000000       -0.68679114    0.00000000
                                                     2        0.9000000        3.60133241    0.00000000
                                      F - G
                                                     0        0.0000010       -0.18221184    0.00000000
                                                     2        0.1200000       -0.39369067    0.00000000
                                                     2        0.1800000        0.72091725    0.00000000
                                                     2        0.6000000        0.15946111    0.00000000
    7          6            6
                                      G and up 
                                                     0        0.0000010       -0.00286759    0.00000000
                                                     2        0.1200000        0.03193960    0.00000000
                                                     2        0.1600000       -0.04027782    0.00000000
                                                     2        0.2600000        0.24782456    0.00000000
                                                     2        0.4000000       -0.62266671    0.00000000
                                                     2        0.7000000        0.35695227    0.00000000
                                      S - G
                                                     0        0.0000010       -0.06602313    0.00000000
                                                     2        0.1200000        1.47277455    0.00000000
                                                     2        0.1600000       -4.06924166    0.00000000
                                                     2        0.3000000        5.02952802    0.00000000
                                                     2        0.7000000       -5.65856978    0.00000000
                                                     2        1.7000000        8.57604414    0.00000000
                                      P - G
                                                     0        0.0000010        0.49434425    0.00000000
                                                     2        0.1200000       -1.37391547    0.00000000
                                                     2        0.1600000        3.65411806    0.00000000
                                                     2        0.2800000       -7.36479843    0.00000000
                                                     2        0.6000000       17.22091285    0.00000000
                                                     2        1.1000000      -23.50107827    0.00000000
                                                     2        3.0000000       16.29464063    0.00000000
                                      D - G
                                                     0        0.0000010       -0.28693103    0.00000000
                                                     2        0.1200000        0.12273044    0.00000000
                                                     2        0.3000000       -0.43416384    0.00000000
                                                     2        0.7000000        2.23358493    0.00000000
                                      F - G
                                                     0        0.0000010        0.07263570    0.00000000
                                                     2        0.1400000       -0.76152861    0.00000000
                                                     2        0.2200000        1.98045593    0.00000000
                                                     2        0.4000000       -2.42426427    0.00000000
                                                     2        0.7000000        0.52335237    0.00000000
    8          1            1
                                      F and up 
                                                     0        0.0000010        0.00072061    0.00000000
                                                     2        0.1200000        0.03832357    0.00000000
                                                     2        0.1400000       -0.08683256    0.00000000
                                                     2        0.1800000        0.09312970    0.00000000
                                                     2        0.2800000       -0.02532572    0.00000000
                                                     2        0.4000000       -0.09430787    0.00000000
                                                     2        0.7000000        0.42710831    0.00000000
                                                     2        1.2000000       -2.11746981    0.00000000
                                      S - F
                                                     0        0.0000010        0.14449603    0.00000000
                                                     2        0.1200000       -0.56378993    0.00000000
                                                     2        0.1400000        0.63941249    0.00000000
                                                     2        0.2600000       -0.58461015    0.00000000
                                                     2        0.5000000        1.00157293    0.00000000
                                                     2        1.8000000       -0.14135838    0.00000000
                                      P - F
                                                     0        0.0000010       -0.09353646    0.00000000
                                                     2        0.1200000        0.31768975    0.00000000
                                                     2        0.2000000       -0.71747951    0.00000000
                                                     2        0.4000000        0.65752308    0.00000000
                                                     2        1.7000000        2.94052587    0.00000000
                                      D - F
                                                     0        0.0000010       -0.04491202    0.00000000
                                                     2        0.1200000       -0.02862031    0.00000000
                                                     2        0.1800000       -0.21515263    0.00000000
                                                     2        0.3000000        0.80560647    0.00000000
                                                     2        0.4000000        0.47351754    0.00000000
                                                     2        0.7000000       -4.57051794    0.00000000
                                                     2        1.6000000       18.53737826    0.00000000
    9          1            1
                                      F and up 
                                                     0        0.0000010        0.00072061    0.00000000
                                                     2        0.1200000        0.03832357    0.00000000
                                                     2        0.1400000       -0.08683256    0.00000000
                                                     2        0.1800000        0.09312970    0.00000000
                                                     2        0.2800000       -0.02532572    0.00000000
                                                     2        0.4000000       -0.09430787    0.00000000
                                                     2        0.7000000        0.42710831    0.00000000
                                                     2        1.2000000       -2.11746981    0.00000000
                                      S - F
                                                     0        0.0000010        0.14449603    0.00000000
                                                     2        0.1200000       -0.56378993    0.00000000
                                                     2        0.1400000        0.63941249    0.00000000
                                                     2        0.2600000       -0.58461015    0.00000000
                                                     2        0.5000000        1.00157293    0.00000000
                                                     2        1.8000000       -0.14135838    0.00000000
                                      P - F
                                                     0        0.0000010       -0.09353646    0.00000000
                                                     2        0.1200000        0.31768975    0.00000000
                                                     2        0.2000000       -0.71747951    0.00000000
                                                     2        0.4000000        0.65752308    0.00000000
                                                     2        1.7000000        2.94052587    0.00000000
                                      D - F
                                                     0        0.0000010       -0.04491202    0.00000000
                                                     2        0.1200000       -0.02862031    0.00000000
                                                     2        0.1800000       -0.21515263    0.00000000
                                                     2        0.3000000        0.80560647    0.00000000
                                                     2        0.4000000        0.47351754    0.00000000
                                                     2        0.7000000       -4.57051794    0.00000000
                                                     2        1.6000000       18.53737826    0.00000000
   10          1            1
                                      F and up 
                                                     0        0.0000010        0.00072061    0.00000000
                                                     2        0.1200000        0.03832357    0.00000000
                                                     2        0.1400000       -0.08683256    0.00000000
                                                     2        0.1800000        0.09312970    0.00000000
                                                     2        0.2800000       -0.02532572    0.00000000
                                                     2        0.4000000       -0.09430787    0.00000000
                                                     2        0.7000000        0.42710831    0.00000000
                                                     2        1.2000000       -2.11746981    0.00000000
                                      S - F
                                                     0        0.0000010        0.14449603    0.00000000
                                                     2        0.1200000       -0.56378993    0.00000000
                                                     2        0.1400000        0.63941249    0.00000000
                                                     2        0.2600000       -0.58461015    0.00000000
                                                     2        0.5000000        1.00157293    0.00000000
                                                     2        1.8000000       -0.14135838    0.00000000
                                      P - F
                                                     0        0.0000010       -0.09353646    0.00000000
                                                     2        0.1200000        0.31768975    0.00000000
                                                     2        0.2000000       -0.71747951    0.00000000
                                                     2        0.4000000        0.65752308    0.00000000
                                                     2        1.7000000        2.94052587    0.00000000
                                      D - F
                                                     0        0.0000010       -0.04491202    0.00000000
                                                     2        0.1200000       -0.02862031    0.00000000
                                                     2        0.1800000       -0.21515263    0.00000000
                                                     2        0.3000000        0.80560647    0.00000000
                                                     2        0.4000000        0.47351754    0.00000000
                                                     2        0.7000000       -4.57051794    0.00000000
                                                     2        1.6000000       18.53737826    0.00000000
 ======================================================================================================
   188 basis functions,   334 primitive gaussians,   202 cartesian basis functions
    24 alpha electrons       24 beta electrons
       nuclear repulsion energy       238.1590017329 Hartrees.
 NAtoms=   10 NActive=   10 NUniq=   10 SFac= 1.00D+00 NAtFMM=   60 NAOKFM=F Big=F
   1 Symmetry operations used in ECPInt.
 ECPInt:  NShTT=    3081 NPrTT=   16977 LenC2=    3071 LenP2D=   12711.
 LDataN:  DoStor=T MaxTD1= 6 Len=  172
 Initial guess from the checkpoint file:  "Grambow2020_wb97xd3_009368_forward_mol1.chk"
 B after Tr=     0.808664    0.011421    0.196407
         Rot=   -0.163220    0.986121    0.015867    0.025958 Ang= 198.79 deg.
 >>>>>>>>>> Convergence criterion not met.
 SCF Done:  E(RHF) =  -321.597706645     A.U. after    2 cycles
            NFock=  1  Conv=0.84D+00     -V/T= 2.0184

 **********************************************************************

            Population analysis using the SCF Density.

 **********************************************************************

 Orbital symmetries:
       Occupied  (A) (A) (A) (A) (A) (A) (A) (A) (A) (A) (A) (A)
                 (A) (A) (A) (A) (A) (A) (A) (A) (A) (A) (A) (A)
       Virtual   (A) (A) (A) (A) (A) (A) (A) (A) (A) (A) (A) (A)
                 (A) (A) (A) (A) (A) (A) (A) (A) (A) (A) (A) (A)
                 (A) (A) (A) (A) (A) (A) (A) (A) (A) (A) (A) (A)
                 (A) (A) (A) (A) (A) (A) (A) (A) (A) (A) (A) (A)
                 (A) (A) (A) (A) (A) (A) (A) (A) (A) (A) (A) (A)
                 (A) (A) (A) (A) (A) (A) (A) (A) (A) (A) (A) (A)
                 (A) (A) (A) (A) (A) (A) (A) (A) (A) (A) (A) (A)
                 (A) (A) (A) (A) (A) (A) (A) (A) (A) (A) (A) (A)
                 (A) (A) (A) (A) (A) (A) (A) (A) (A) (A) (A) (A)
                 (A) (A) (A) (A) (A) (A) (A) (A) (A) (A) (A) (A)
                 (A) (A) (A) (A) (A) (A) (A) (A) (A) (A) (A) (A)
                 (A) (A) (A) (A) (A) (A) (A) (A) (A) (A) (A) (A)
                 (A) (A) (A) (A) (A) (A) (A) (A) (A) (A) (A) (A)
                 (A) (A) (A) (A) (A) (A) (A) (A)
 The electronic state is 1-A.
 Alpha  occ. eigenvalues --  -21.05615 -15.86048 -11.50497 -11.49154 -11.46998
 Alpha  occ. eigenvalues --  -11.43305 -11.42640  -1.71168  -1.40864  -1.19948
 Alpha  occ. eigenvalues --   -1.05202  -0.89802  -0.81264  -0.77248  -0.68097
 Alpha  occ. eigenvalues --   -0.61769  -0.58045  -0.55689  -0.50865  -0.46641
 Alpha  occ. eigenvalues --   -0.42669  -0.39937  -0.32077  -0.25664
 Alpha virt. eigenvalues --    0.01501   0.02777   0.04369   0.06167   0.08470
 Alpha virt. eigenvalues --    0.09133   0.09644   0.10350   0.11262   0.11692
 Alpha virt. eigenvalues --    0.11745   0.12664   0.13451   0.14711   0.15654
 Alpha virt. eigenvalues --    0.16719   0.17001   0.17375   0.17689   0.18136
 Alpha virt. eigenvalues --    0.20074   0.21487   0.22476   0.23187   0.23725
 Alpha virt. eigenvalues --    0.24723   0.24912   0.26126   0.28257   0.29649
 Alpha virt. eigenvalues --    0.30404   0.32522   0.33456   0.33730   0.35685
 Alpha virt. eigenvalues --    0.35852   0.36868   0.38402   0.40108   0.41424
 Alpha virt. eigenvalues --    0.42281   0.43680   0.44302   0.44813   0.46050
 Alpha virt. eigenvalues --    0.48079   0.48780   0.50783   0.52603   0.53079
 Alpha virt. eigenvalues --    0.53893   0.56409   0.57449   0.59129   0.59935
 Alpha virt. eigenvalues --    0.62561   0.63188   0.64232   0.66353   0.67046
 Alpha virt. eigenvalues --    0.69634   0.70903   0.72567   0.73998   0.75079
 Alpha virt. eigenvalues --    0.76647   0.78419   0.79370   0.81537   0.83823
 Alpha virt. eigenvalues --    0.85194   0.86285   0.87080   0.88362   0.89757
 Alpha virt. eigenvalues --    0.91253   0.95383   0.96898   0.97316   0.98954
 Alpha virt. eigenvalues --    0.99820   1.01429   1.02077   1.04408   1.05852
 Alpha virt. eigenvalues --    1.10174   1.16181   1.18411   1.23039   1.24843
 Alpha virt. eigenvalues --    1.29270   1.31219   1.35158   1.39182   1.39816
 Alpha virt. eigenvalues --    1.40437   1.42413   1.49906   1.51423   1.55045
 Alpha virt. eigenvalues --    1.59308   1.63141   1.69103   1.70063   1.73087
 Alpha virt. eigenvalues --    1.75306   1.75595   1.78370   1.79887   1.80971
 Alpha virt. eigenvalues --    1.84439   1.86268   1.87923   1.91169   1.92057
 Alpha virt. eigenvalues --    1.94519   1.97261   1.99952   2.04162   2.09102
 Alpha virt. eigenvalues --    2.11491   2.14381   2.16751   2.18883   2.25376
 Alpha virt. eigenvalues --    2.28256   2.30883   2.32151   2.33972   2.39177
 Alpha virt. eigenvalues --    2.40994   2.44108   2.46394   2.53574   2.57249
 Alpha virt. eigenvalues --    2.59631   2.66272   2.73265   2.75594   2.81089
 Alpha virt. eigenvalues --    2.83864   2.91019   2.93035   2.98624   2.99765
 Alpha virt. eigenvalues --    3.04573   3.08366   3.11228   3.16005   3.18000
 Alpha virt. eigenvalues --    3.29430   3.41355   3.54072   3.63744   3.79982
 Alpha virt. eigenvalues --    3.94661   4.02465   4.44357   5.02978   6.03846
 Alpha virt. eigenvalues --    6.07331   6.14572   6.21651   6.46621
          Condensed to atoms (all electrons):
 Mulliken charges:
               1
     1  C   -3.452466
     2  C    4.088577
     3  C    1.252570
     4  C    0.812449
     5  O   -2.836364
     6  N   -2.117249
     7  C   -1.080695
     8  H    0.628796
     9  H    1.346218
    10  H    1.358164
 Sum of Mulliken charges =   0.00000
 Mulliken charges with hydrogens summed into heavy atoms:
               1
     1  C   -2.823670
     2  C    4.088577
     3  C    1.252570
     4  C    2.158667
     5  O   -2.836364
     6  N   -2.117249
     7  C    0.277470
 Electronic spatial extent (au):  <R**2>=            734.2465
 Charge=             -0.0000 electrons
 Dipole moment (field-independent basis, Debye):
    X=              1.4421    Y=              1.4037    Z=              0.6962  Tot=              2.1295

 Test job not archived.
 1\1\GINC-SE174\SP\RHF\Aug-CC-pVDZ\C5H3N1O1\OHZDE\09-Apr-2025\0\\#t hf 
 aug-cc-pvdz iop(5/13=1,5/36=2,99/5=2) pseudo=read geom=check guess=(re
 ad,tcheck) scf=(maxcycle=1)\\title\\0,1\C,0,2.33884383,0.10876678,0.45
 807628\C,0,1.1614024,0.0915947,0.20920183\C,0,-0.20637012,0.04524144,-
 0.10196416\C,0,-1.13156472,1.07930214,0.2503999\O,0,-2.3092277,0.92488
 027,0.4855524\N,0,-1.88127378,-1.44721321,-0.15501882\C,0,-0.77104326,
 -1.22209198,-0.62264612\H,0,3.38010111,0.13715044,0.67910085\H,0,-0.68
 25487,2.08898118,0.20856383\H,0,-0.14597106,-1.91582776,-1.19388598\\V
 ersion=ES64L-G16RevC.01\State=1-A\HF=-321.5977066\RMSD=8.354e-01\Dipol
 e=0.6008775,-0.4212069,-0.4042595\Quadrupole=-0.2457823,0.8747806,-0.6
 289983,0.0890379,1.6692325,2.2929448\PG=C01 [X(C5H3N1O1)]\\@


 "THE TIME HAS COME", THE WALRUS SAID,
 "TO TALK OF MANY THINGS,
 OF SHOES AND SHIPS AND SEALING WAX,
 OF CABBAGES AND KINGS,
 AND WHY THE SEA IS BOILING HOT,
 AND WHETHER PIGS HAVE WINGS."
 Job cpu time:       0 days  0 hours  0 minutes 35.8 seconds.
 Elapsed time:       0 days  0 hours  0 minutes  3.3 seconds.
 File lengths (MBytes):  RWF=     10 Int=      0 D2E=      0 Chk=      6 Scr=      1
 Normal termination of Gaussian 16 at Wed Apr  9 19:31:59 2025.
