 Entering Gaussian System, Link 0=g16
 Input=Grambow2020_wb97xd3_008714_forward_mol2.gjf
 Output=Grambow2020_wb97xd3_008714_forward_mol2.log
 Initial command:
 /arc/software/Gaussian/g16.c01/l1.exe "/tmp/slurm/4869253/Gau-4027490.inp" -scrdir="/tmp/slurm/4869253/"
 Entering Link 1 = /arc/software/Gaussian/g16.c01/l1.exe PID=   4027492.
  
 Copyright (c) 1988-2019, Gaussian, Inc.  All Rights Reserved.
  
 This is part of the Gaussian(R) 16 program.  It is based on
 the Gaussian(R) 09 system (copyright 2009, Gaussian, Inc.),
 the Gaussian(R) 03 system (copyright 2003, Gaussian, Inc.),
 the Gaussian(R) 98 system (copyright 1998, Gaussian, Inc.),
 the Gaussian(R) 94 system (copyright 1995, Gaussian, Inc.),
 the Gaussian 92(TM) system (copyright 1992, Gaussian, Inc.),
 the Gaussian 90(TM) system (copyright 1990, Gaussian, Inc.),
 the Gaussian 88(TM) system (copyright 1988, Gaussian, Inc.),
 the Gaussian 86(TM) system (copyright 1986, Carnegie Mellon
 University), and the Gaussian 82(TM) system (copyright 1983,
 Carnegie Mellon University). Gaussian is a federally registered
 trademark of Gaussian, Inc.
  
 This software contains proprietary and confidential information,
 including trade secrets, belonging to Gaussian, Inc.
  
 This software is provided under written license and may be
 used, copied, transmitted, or stored only in accord with that
 written license.
  
 The following legend is applicable only to US Government
 contracts under FAR:
  
                    RESTRICTED RIGHTS LEGEND
  
 Use, reproduction and disclosure by the US Government is
 subject to restrictions as set forth in subparagraphs (a)
 and (c) of the Commercial Computer Software - Restricted
 Rights clause in FAR 52.227-19.
  
 Gaussian, Inc.
 340 Quinnipiac St., Bldg. 40, Wallingford CT 06492
  
  
 ---------------------------------------------------------------
 Warning -- This program may not be used in any manner that
 competes with the business of Gaussian, Inc. or will provide
 assistance to any competitor of Gaussian, Inc.  The licensee
 of this program is prohibited from giving any competitor of
 Gaussian, Inc. access to this program.  By using this program,
 the user acknowledges that Gaussian, Inc. is engaged in the
 business of creating and licensing software in the field of
 computational chemistry and represents and warrants to the
 licensee that it is not a competitor of Gaussian, Inc. and that
 it will not use this program in any manner prohibited above.
 ---------------------------------------------------------------
  

 Cite this work as:
 Gaussian 16, Revision C.01,
 M. J. Frisch, G. W. Trucks, H. B. Schlegel, G. E. Scuseria, 
 M. A. Robb, J. R. Cheeseman, G. Scalmani, V. Barone, 
 G. A. Petersson, H. Nakatsuji, X. Li, M. Caricato, A. V. Marenich, 
 J. Bloino, B. G. Janesko, R. Gomperts, B. Mennucci, H. P. Hratchian, 
 J. V. Ortiz, A. F. Izmaylov, J. L. Sonnenberg, D. Williams-Young, 
 F. Ding, F. Lipparini, F. Egidi, J. Goings, B. Peng, A. Petrone, 
 T. Henderson, D. Ranasinghe, V. G. Zakrzewski, J. Gao, N. Rega, 
 G. Zheng, W. Liang, M. Hada, M. Ehara, K. Toyota, R. Fukuda, 
 J. Hasegawa, M. Ishida, T. Nakajima, Y. Honda, O. Kitao, H. Nakai, 
 T. Vreven, K. Throssell, J. A. Montgomery, Jr., J. E. Peralta, 
 F. Ogliaro, M. J. Bearpark, J. J. Heyd, E. N. Brothers, K. N. Kudin, 
 V. N. Staroverov, T. A. Keith, R. Kobayashi, J. Normand, 
 K. Raghavachari, A. P. Rendell, J. C. Burant, S. S. Iyengar, 
 J. Tomasi, M. Cossi, J. M. Millam, M. Klene, C. Adamo, R. Cammi, 
 J. W. Ochterski, R. L. Martin, K. Morokuma, O. Farkas, 
 J. B. Foresman, and D. J. Fox, Gaussian, Inc., Wallingford CT, 2019.
 
 ******************************************
 Gaussian 16:  ES64L-G16RevC.01  3-Jul-2019
                 9-Apr-2025 
 ******************************************
 %nprocs=16
 Will use up to   16 processors via shared memory.
 %mem=30GB
 %chk=Grambow2020_wb97xd3_008714_forward_mol2.chk
 ----------------------------------------------------------------------
 #t hf aug-cc-pvdz symm=none int=(grid=ultrafine) guess=(read,tcheck) s
 table=(opt,rrhf)
 ----------------------------------------------------------------------
 -----
 title
 -----
 Symbolic Z-matrix:
 Charge =  0 Multiplicity = 1
 C                     1.89421   0.72047  -0.48741 
 N                     0.45276   0.72574  -0.40212 
 C                    -0.1021   -0.26618   0.16958 
 N                     0.47472  -1.35032   0.73822 
 C                    -1.62159  -0.29681   0.28153 
 O                    -2.18905  -1.24796   0.78431 
 N                    -2.21956   0.79214  -0.21831 
 H                     2.26759  -0.13505  -1.06696 
 H                     2.36226   0.68145   0.50529 
 H                     2.23692   1.62782  -0.982 
 H                    -0.14847  -2.06966   1.0654 
 H                     1.44831  -1.55076   0.61722 
 H                    -1.6363    1.50691  -0.62124 
 H                    -3.21971   0.86221  -0.20217 
 
                    Distance matrix (angstroms):
                    1          2          3          4          5
     1  C    0.000000
     2  N    1.443973   0.000000
     3  C    2.321711   1.272252   0.000000
     4  N    2.793793   2.368733   1.353304   0.000000
     5  C    3.739913   2.411624   1.523920   2.390185   0.000000
     6  O    4.707968   3.504609   2.386870   2.666138   1.216339
     7  N    4.123182   2.679462   2.398783   3.572710   1.339110
     8  H    1.098728   2.115785   2.676119   2.819559   4.119500
     9  H    1.098197   2.114600   2.661536   2.783011   4.108301
    10  H    1.088744   2.081642   3.222484   3.864434   4.493199
    11  H    3.790590   3.213935   2.014246   1.006411   2.434658
    12  H    2.564666   2.685632   2.062589   1.001342   3.333071
    13  H    3.619516   2.241079   2.474477   3.803725   2.017077
    14  H    5.123829   3.680447   3.336314   4.407774   2.032554
                    6          7          8          9         10
     6  O    0.000000
     7  N    2.273359   0.000000
     8  H    4.952511   4.659868   0.000000
     9  H    4.951253   4.639930   1.774139   0.000000
    10  H    5.565895   4.598025   1.765181   1.767303   0.000000
    11  H    2.217701   3.758624   3.758590   3.766443   4.853177
    12  H    3.653764   4.431766   2.347745   2.414660   3.644558
    13  H    3.141714   1.006696   4.258524   4.235444   3.891870
    14  H    2.547193   1.002734   5.643831   5.629532   5.564996
                   11         12         13         14
    11  H    0.000000
    12  H    1.737762   0.000000
    13  H    4.224958   4.516408   0.000000
    14  H    4.431156   5.318292   1.760240   0.000000
 Symmetry turned off by external request.
 Rotational constants (GHZ):           5.0061735           2.0346422           1.4604284
   224 basis functions,   378 primitive gaussians,   238 cartesian basis functions
    27 alpha electrons       27 beta electrons
       nuclear repulsion energy       305.8664232251 Hartrees.
 NAtoms=   14 NActive=   14 NUniq=   14 SFac= 1.00D+00 NAtFMM=   60 NAOKFM=F Big=F
 ExpMin= 2.97D-02 ExpMax= 1.17D+04 ExpMxC= 4.01D+02 IAcc=3 IRadAn=         5 AccDes= 0.00D+00
 Harris functional with IExCor=  205 and IRadAn=       5 diagonalized for initial guess.
 HarFok:  IExCor=  205 AccDes= 0.00D+00 IRadAn=         5 IDoV= 1 UseB2=F ITyADJ=14
 ICtDFT=  3500011 ScaDFX=  1.000000  1.000000  1.000000  1.000000
 FoFCou: FMM=F IPFlag=           0 FMFlag=      100000 FMFlg1=           0
         NFxFlg=           0 DoJE=T BraDBF=F KetDBF=T FulRan=T
         wScrn=  0.000000 ICntrl=       500 IOpCl=  0 I1Cent=   200000004 NGrid=           0
         NMat0=    1 NMatS0=      1 NMatT0=    0 NMatD0=    1 NMtDS0=    0 NMtDT0=    0
 Symmetry not used in FoFCou.
 SCF Done:  E(RHF) =  -355.960759730     A.U. after   14 cycles
            NFock= 14  Conv=0.59D-08     -V/T= 2.0011

 **********************************************************************

            Population analysis using the SCF Density.

 **********************************************************************

 Alpha  occ. eigenvalues --  -20.54261 -15.59158 -15.59132 -15.55336 -11.36905
 Alpha  occ. eigenvalues --  -11.33203 -11.25904  -1.40353  -1.28640  -1.22609
 Alpha  occ. eigenvalues --   -1.17389  -0.97394  -0.86782  -0.78489  -0.75657
 Alpha  occ. eigenvalues --   -0.71986  -0.66363  -0.65153  -0.62028  -0.59819
 Alpha  occ. eigenvalues --   -0.57966  -0.56491  -0.50289  -0.45813  -0.42041
 Alpha  occ. eigenvalues --   -0.41115  -0.36411
 Alpha virt. eigenvalues --    0.03109   0.03920   0.04724   0.05746   0.06615
 Alpha virt. eigenvalues --    0.07200   0.08257   0.10910   0.11210   0.11612
 Alpha virt. eigenvalues --    0.11810   0.14186   0.14527   0.14626   0.15711
 Alpha virt. eigenvalues --    0.15939   0.17382   0.18394   0.18761   0.19533
 Alpha virt. eigenvalues --    0.19931   0.20803   0.21690   0.22171   0.22408
 Alpha virt. eigenvalues --    0.24417   0.25299   0.25852   0.29213   0.29820
 Alpha virt. eigenvalues --    0.30024   0.31010   0.32338   0.33566   0.35440
 Alpha virt. eigenvalues --    0.35600   0.36274   0.36617   0.37032   0.39130
 Alpha virt. eigenvalues --    0.40956   0.41090   0.42427   0.42667   0.43198
 Alpha virt. eigenvalues --    0.45006   0.45406   0.45937   0.47212   0.48759
 Alpha virt. eigenvalues --    0.49457   0.50116   0.52351   0.54073   0.54462
 Alpha virt. eigenvalues --    0.55810   0.56667   0.57636   0.58413   0.59347
 Alpha virt. eigenvalues --    0.60018   0.61692   0.62920   0.63690   0.64084
 Alpha virt. eigenvalues --    0.64362   0.66884   0.67273   0.67832   0.68543
 Alpha virt. eigenvalues --    0.70028   0.70786   0.71615   0.73419   0.74896
 Alpha virt. eigenvalues --    0.75896   0.78770   0.79185   0.80264   0.81193
 Alpha virt. eigenvalues --    0.82542   0.83664   0.84569   0.87138   0.88146
 Alpha virt. eigenvalues --    0.88691   0.90429   0.92544   0.93892   0.94755
 Alpha virt. eigenvalues --    0.96280   0.97691   0.99249   1.01500   1.03448
 Alpha virt. eigenvalues --    1.04500   1.05765   1.07251   1.08663   1.10482
 Alpha virt. eigenvalues --    1.11884   1.14132   1.16723   1.18464   1.19838
 Alpha virt. eigenvalues --    1.20409   1.23389   1.29401   1.31179   1.33053
 Alpha virt. eigenvalues --    1.34974   1.36395   1.41755   1.43321   1.44373
 Alpha virt. eigenvalues --    1.47658   1.52606   1.55382   1.56662   1.61047
 Alpha virt. eigenvalues --    1.62946   1.66500   1.67743   1.71544   1.72400
 Alpha virt. eigenvalues --    1.73633   1.77723   1.79083   1.81177   1.81340
 Alpha virt. eigenvalues --    1.86847   1.89137   1.90552   1.92451   1.94861
 Alpha virt. eigenvalues --    1.95905   2.02173   2.03866   2.07701   2.10573
 Alpha virt. eigenvalues --    2.11211   2.11892   2.12430   2.13833   2.18498
 Alpha virt. eigenvalues --    2.21111   2.22149   2.25077   2.27846   2.28079
 Alpha virt. eigenvalues --    2.29904   2.31726   2.33143   2.33385   2.38515
 Alpha virt. eigenvalues --    2.39007   2.44017   2.45276   2.47747   2.49391
 Alpha virt. eigenvalues --    2.53022   2.54688   2.58507   2.61340   2.62860
 Alpha virt. eigenvalues --    2.66207   2.69389   2.71612   2.75027   2.78777
 Alpha virt. eigenvalues --    2.80304   2.81653   2.84006   2.86131   2.88312
 Alpha virt. eigenvalues --    2.89967   2.92581   2.94165   3.01148   3.06765
 Alpha virt. eigenvalues --    3.09935   3.18220   3.25427   3.27879   3.35200
 Alpha virt. eigenvalues --    3.36704   3.47337   3.57084   3.64078   3.72867
 Alpha virt. eigenvalues --    3.76995   3.77668   3.80905   3.92336   3.99939
 Alpha virt. eigenvalues --    4.06875   4.27941
          Condensed to atoms (all electrons):
 Mulliken charges:
               1
     1  C    0.760355
     2  N   -0.771582
     3  C    0.627449
     4  N   -0.288925
     5  C    1.101823
     6  O   -0.831234
     7  N   -0.194906
     8  H   -0.077987
     9  H   -0.060048
    10  H   -0.283951
    11  H    0.008899
    12  H   -0.020354
    13  H    0.042727
    14  H   -0.012265
 Sum of Mulliken charges =  -0.00000
 Mulliken charges with hydrogens summed into heavy atoms:
               1
     1  C    0.338368
     2  N   -0.771582
     3  C    0.627449
     4  N   -0.300380
     5  C    1.101823
     6  O   -0.831234
     7  N   -0.164444
 Electronic spatial extent (au):  <R**2>=            845.8316
 Charge=             -0.0000 electrons
 Dipole moment (field-independent basis, Debye):
    X=              1.9269    Y=              0.6919    Z=             -0.7569  Tot=              2.1827
 NROrb=    224 NOA=    27 NOB=    27 NVA=   197 NVB=   197

 **** Warning!!: The largest alpha MO coefficient is  0.68809196D+02

    12 initial guesses have been made.
 Iteration     1 Dimension    12 NMult     0 NNew     12
 New state      1 was old state      4
 Iteration     2 Dimension    24 NMult    12 NNew     12
 New state      1 was old state      2
 Iteration     3 Dimension    27 NMult    24 NNew      3
 Iteration     4 Dimension    30 NMult    27 NNew      3
 Iteration     5 Dimension    33 NMult    30 NNew      3
 Iteration     6 Dimension    36 NMult    33 NNew      3
 Iteration     7 Dimension    39 NMult    36 NNew      3
 ***********************************************************************
 Stability analysis using <AA,BB:AA,BB> singles matrix:
 ***********************************************************************
 Ground to excited state transition densities written to RWF  633

 Eigenvectors of the stability matrix:
 
 Excited state symmetry could not be determined.
 Eigenvector   1:      Singlet-?Sym  Eigenvalue= 0.2241767  <S**2>=0.000
      24 -> 36         0.21523
      24 -> 54        -0.13911
      26 -> 36         0.54347
      26 -> 38         0.22427
 The wavefunction is stable under the perturbations considered.
 The wavefunction is already stable.

 **********************************************************************

            Population analysis using the SCF Density.

 **********************************************************************

 Alpha  occ. eigenvalues --  -20.54261 -15.59158 -15.59132 -15.55336 -11.36905
 Alpha  occ. eigenvalues --  -11.33203 -11.25904  -1.40353  -1.28640  -1.22609
 Alpha  occ. eigenvalues --   -1.17389  -0.97394  -0.86782  -0.78489  -0.75657
 Alpha  occ. eigenvalues --   -0.71986  -0.66363  -0.65153  -0.62028  -0.59819
 Alpha  occ. eigenvalues --   -0.57966  -0.56491  -0.50289  -0.45813  -0.42041
 Alpha  occ. eigenvalues --   -0.41115  -0.36411
 Alpha virt. eigenvalues --    0.03109   0.03920   0.04724   0.05746   0.06615
 Alpha virt. eigenvalues --    0.07200   0.08257   0.10910   0.11210   0.11612
 Alpha virt. eigenvalues --    0.11810   0.14186   0.14527   0.14626   0.15711
 Alpha virt. eigenvalues --    0.15939   0.17382   0.18394   0.18761   0.19533
 Alpha virt. eigenvalues --    0.19931   0.20803   0.21690   0.22171   0.22408
 Alpha virt. eigenvalues --    0.24417   0.25299   0.25852   0.29213   0.29820
 Alpha virt. eigenvalues --    0.30024   0.31010   0.32338   0.33566   0.35440
 Alpha virt. eigenvalues --    0.35600   0.36274   0.36617   0.37032   0.39130
 Alpha virt. eigenvalues --    0.40956   0.41090   0.42427   0.42667   0.43198
 Alpha virt. eigenvalues --    0.45006   0.45406   0.45937   0.47212   0.48759
 Alpha virt. eigenvalues --    0.49457   0.50116   0.52351   0.54073   0.54462
 Alpha virt. eigenvalues --    0.55810   0.56667   0.57636   0.58413   0.59347
 Alpha virt. eigenvalues --    0.60018   0.61692   0.62920   0.63690   0.64084
 Alpha virt. eigenvalues --    0.64362   0.66884   0.67273   0.67832   0.68543
 Alpha virt. eigenvalues --    0.70028   0.70786   0.71615   0.73419   0.74896
 Alpha virt. eigenvalues --    0.75896   0.78770   0.79185   0.80264   0.81193
 Alpha virt. eigenvalues --    0.82542   0.83664   0.84569   0.87138   0.88146
 Alpha virt. eigenvalues --    0.88691   0.90429   0.92544   0.93892   0.94755
 Alpha virt. eigenvalues --    0.96280   0.97691   0.99249   1.01500   1.03448
 Alpha virt. eigenvalues --    1.04500   1.05765   1.07251   1.08663   1.10482
 Alpha virt. eigenvalues --    1.11884   1.14132   1.16723   1.18464   1.19838
 Alpha virt. eigenvalues --    1.20409   1.23389   1.29401   1.31179   1.33053
 Alpha virt. eigenvalues --    1.34974   1.36395   1.41755   1.43321   1.44373
 Alpha virt. eigenvalues --    1.47658   1.52606   1.55382   1.56662   1.61047
 Alpha virt. eigenvalues --    1.62946   1.66500   1.67743   1.71544   1.72400
 Alpha virt. eigenvalues --    1.73633   1.77723   1.79083   1.81177   1.81340
 Alpha virt. eigenvalues --    1.86847   1.89137   1.90552   1.92451   1.94861
 Alpha virt. eigenvalues --    1.95905   2.02173   2.03866   2.07701   2.10573
 Alpha virt. eigenvalues --    2.11211   2.11892   2.12430   2.13833   2.18498
 Alpha virt. eigenvalues --    2.21111   2.22149   2.25077   2.27846   2.28079
 Alpha virt. eigenvalues --    2.29904   2.31726   2.33143   2.33385   2.38515
 Alpha virt. eigenvalues --    2.39007   2.44017   2.45276   2.47747   2.49391
 Alpha virt. eigenvalues --    2.53022   2.54688   2.58507   2.61340   2.62860
 Alpha virt. eigenvalues --    2.66207   2.69389   2.71612   2.75027   2.78777
 Alpha virt. eigenvalues --    2.80304   2.81653   2.84006   2.86131   2.88312
 Alpha virt. eigenvalues --    2.89967   2.92581   2.94165   3.01148   3.06765
 Alpha virt. eigenvalues --    3.09935   3.18220   3.25427   3.27879   3.35200
 Alpha virt. eigenvalues --    3.36704   3.47337   3.57084   3.64078   3.72867
 Alpha virt. eigenvalues --    3.76995   3.77668   3.80905   3.92336   3.99939
 Alpha virt. eigenvalues --    4.06875   4.27941
          Condensed to atoms (all electrons):
 Mulliken charges:
               1
     1  C    0.760355
     2  N   -0.771582
     3  C    0.627449
     4  N   -0.288925
     5  C    1.101823
     6  O   -0.831234
     7  N   -0.194906
     8  H   -0.077987
     9  H   -0.060048
    10  H   -0.283951
    11  H    0.008899
    12  H   -0.020354
    13  H    0.042727
    14  H   -0.012265
 Sum of Mulliken charges =  -0.00000
 Mulliken charges with hydrogens summed into heavy atoms:
               1
     1  C    0.338368
     2  N   -0.771582
     3  C    0.627449
     4  N   -0.300380
     5  C    1.101823
     6  O   -0.831234
     7  N   -0.164444
 Electronic spatial extent (au):  <R**2>=            845.8316
 Charge=             -0.0000 electrons
 Dipole moment (field-independent basis, Debye):
    X=              1.9269    Y=              0.6919    Z=             -0.7569  Tot=              2.1827
 Unable to Open any file for archive entry.
 1\1\GINC-SE253\Stability\RHF\Aug-CC-pVDZ\C3H7N3O1\OHZDE\09-Apr-2025\0\
 \#t hf aug-cc-pvdz symm=none int=(grid=ultrafine) guess=(read,tcheck) 
 stable=(opt,rrhf)\\title\\0,1\C,0,1.8942072,0.72047204,-0.48740641\N,0
 ,0.45276455,0.72574186,-0.40212022\C,0,-0.1020962,-0.26618366,0.169577
 11\N,0,0.47472352,-1.35032185,0.73821993\C,0,-1.62158979,-0.29680814,0
 .28152973\O,0,-2.18905019,-1.24795568,0.78430884\N,0,-2.21956028,0.792
 13975,-0.21830882\H,0,2.26758682,-0.1350466,-1.06695669\H,0,2.36226367
 ,0.68144704,0.50528534\H,0,2.23692303,1.62782266,-0.98200136\H,0,-0.14
 846582,-2.06966172,1.06540196\H,0,1.44830932,-1.5507587,0.61722007\H,0
 ,-1.63630307,1.50690697,-0.62124161\H,0,-3.21971277,0.86220602,-0.2021
 7112\\Version=ES64L-G16RevC.01\HF=-355.9607597\RMSD=5.900e-09\Dipole=0
 .7580873,0.2722174,-0.2977747\Quadrupole=2.0621961,0.2740875,-2.336283
 6,-6.746689,2.8742528,-0.2151571\PG=Unknown\\@
 The archive entry for this job was punched.


 ALL PAPERS THAT YOU SAVE WILL NEVER BE NEEDED UNTIL
 SUCH TIME AS THEY ARE DISPOSED OF, WHEN THEY BECOME
 ESSENTIAL.

           -- JOHN CORCORAN IN
              PAUL DICKSON'S "THE OFFICIAL RULES"
 Job cpu time:       0 days  0 hours  6 minutes 52.3 seconds.
 Elapsed time:       0 days  0 hours  0 minutes 29.7 seconds.
 File lengths (MBytes):  RWF=    239 Int=      0 D2E=      0 Chk=      7 Scr=      1
 Normal termination of Gaussian 16 at Wed Apr  9 03:58:41 2025.
 Initial command:
 /arc/software/Gaussian/g16.c01/l1.exe "/tmp/slurm/4869253/Gau-4027490.inp" -scrdir="/tmp/slurm/4869253/"
 Entering Link 1 = /arc/software/Gaussian/g16.c01/l1.exe PID=   4027879.
  
 Copyright (c) 1988-2019, Gaussian, Inc.  All Rights Reserved.
  
 This is part of the Gaussian(R) 16 program.  It is based on
 the Gaussian(R) 09 system (copyright 2009, Gaussian, Inc.),
 the Gaussian(R) 03 system (copyright 2003, Gaussian, Inc.),
 the Gaussian(R) 98 system (copyright 1998, Gaussian, Inc.),
 the Gaussian(R) 94 system (copyright 1995, Gaussian, Inc.),
 the Gaussian 92(TM) system (copyright 1992, Gaussian, Inc.),
 the Gaussian 90(TM) system (copyright 1990, Gaussian, Inc.),
 the Gaussian 88(TM) system (copyright 1988, Gaussian, Inc.),
 the Gaussian 86(TM) system (copyright 1986, Carnegie Mellon
 University), and the Gaussian 82(TM) system (copyright 1983,
 Carnegie Mellon University). Gaussian is a federally registered
 trademark of Gaussian, Inc.
  
 This software contains proprietary and confidential information,
 including trade secrets, belonging to Gaussian, Inc.
  
 This software is provided under written license and may be
 used, copied, transmitted, or stored only in accord with that
 written license.
  
 The following legend is applicable only to US Government
 contracts under FAR:
  
                    RESTRICTED RIGHTS LEGEND
  
 Use, reproduction and disclosure by the US Government is
 subject to restrictions as set forth in subparagraphs (a)
 and (c) of the Commercial Computer Software - Restricted
 Rights clause in FAR 52.227-19.
  
 Gaussian, Inc.
 340 Quinnipiac St., Bldg. 40, Wallingford CT 06492
  
  
 ---------------------------------------------------------------
 Warning -- This program may not be used in any manner that
 competes with the business of Gaussian, Inc. or will provide
 assistance to any competitor of Gaussian, Inc.  The licensee
 of this program is prohibited from giving any competitor of
 Gaussian, Inc. access to this program.  By using this program,
 the user acknowledges that Gaussian, Inc. is engaged in the
 business of creating and licensing software in the field of
 computational chemistry and represents and warrants to the
 licensee that it is not a competitor of Gaussian, Inc. and that
 it will not use this program in any manner prohibited above.
 ---------------------------------------------------------------
  

 Cite this work as:
 Gaussian 16, Revision C.01,
 M. J. Frisch, G. W. Trucks, H. B. Schlegel, G. E. Scuseria, 
 M. A. Robb, J. R. Cheeseman, G. Scalmani, V. Barone, 
 G. A. Petersson, H. Nakatsuji, X. Li, M. Caricato, A. V. Marenich, 
 J. Bloino, B. G. Janesko, R. Gomperts, B. Mennucci, H. P. Hratchian, 
 J. V. Ortiz, A. F. Izmaylov, J. L. Sonnenberg, D. Williams-Young, 
 F. Ding, F. Lipparini, F. Egidi, J. Goings, B. Peng, A. Petrone, 
 T. Henderson, D. Ranasinghe, V. G. Zakrzewski, J. Gao, N. Rega, 
 G. Zheng, W. Liang, M. Hada, M. Ehara, K. Toyota, R. Fukuda, 
 J. Hasegawa, M. Ishida, T. Nakajima, Y. Honda, O. Kitao, H. Nakai, 
 T. Vreven, K. Throssell, J. A. Montgomery, Jr., J. E. Peralta, 
 F. Ogliaro, M. J. Bearpark, J. J. Heyd, E. N. Brothers, K. N. Kudin, 
 V. N. Staroverov, T. A. Keith, R. Kobayashi, J. Normand, 
 K. Raghavachari, A. P. Rendell, J. C. Burant, S. S. Iyengar, 
 J. Tomasi, M. Cossi, J. M. Millam, M. Klene, C. Adamo, R. Cammi, 
 J. W. Ochterski, R. L. Martin, K. Morokuma, O. Farkas, 
 J. B. Foresman, and D. J. Fox, Gaussian, Inc., Wallingford CT, 2019.
 
 ******************************************
 Gaussian 16:  ES64L-G16RevC.01  3-Jul-2019
                 9-Apr-2025 
 ******************************************
 %nprocs=16
 Will use up to   16 processors via shared memory.
 %mem=30GB
 %chk=Grambow2020_wb97xd3_008714_forward_mol2.chk
 ----------------------------------------------------------------------
 #t hf aug-cc-pvdz iop(5/13=1,5/36=2,99/5=2) pseudo=read geom=check gue
 ss=(read,tcheck) scf=(maxcycle=1)
 ----------------------------------------------------------------------
 -----
 title
 -----
 Structure from the checkpoint file:  "Grambow2020_wb97xd3_008714_forward_mol2.chk"
 Charge =  0 Multiplicity = 1
 Z-Matrix found in chk file.
 C,0,1.8942072,0.72047204,-0.48740641
 N,0,0.45276455,0.72574186,-0.40212022
 C,0,-0.1020962,-0.26618366,0.16957711
 N,0,0.47472352,-1.35032185,0.73821993
 C,0,-1.62158979,-0.29680814,0.28152973
 O,0,-2.18905019,-1.24795568,0.78430884
 N,0,-2.21956028,0.79213975,-0.21830882
 H,0,2.26758682,-0.1350466,-1.06695669
 H,0,2.36226367,0.68144704,0.50528534
 H,0,2.23692303,1.62782266,-0.98200136
 H,0,-0.14846582,-2.06966172,1.06540196
 H,0,1.44830932,-1.5507587,0.61722007
 H,0,-1.63630307,1.50690697,-0.62124161
 H,0,-3.21971277,0.86220602,-0.20217112
 Recover connectivity data from disk.
                    Distance matrix (angstroms):
                    1          2          3          4          5
     1  C    0.000000
     2  N    1.443973   0.000000
     3  C    2.321711   1.272252   0.000000
     4  N    2.793793   2.368733   1.353304   0.000000
     5  C    3.739913   2.411624   1.523920   2.390185   0.000000
     6  O    4.707968   3.504609   2.386870   2.666138   1.216339
     7  N    4.123182   2.679462   2.398783   3.572710   1.339110
     8  H    1.098728   2.115785   2.676119   2.819559   4.119500
     9  H    1.098197   2.114600   2.661536   2.783011   4.108301
    10  H    1.088744   2.081642   3.222484   3.864434   4.493199
    11  H    3.790590   3.213935   2.014246   1.006411   2.434658
    12  H    2.564666   2.685632   2.062589   1.001342   3.333071
    13  H    3.619516   2.241079   2.474477   3.803725   2.017077
    14  H    5.123829   3.680447   3.336314   4.407774   2.032554
                    6          7          8          9         10
     6  O    0.000000
     7  N    2.273359   0.000000
     8  H    4.952511   4.659868   0.000000
     9  H    4.951253   4.639930   1.774139   0.000000
    10  H    5.565895   4.598025   1.765181   1.767303   0.000000
    11  H    2.217701   3.758624   3.758590   3.766443   4.853177
    12  H    3.653764   4.431766   2.347745   2.414660   3.644558
    13  H    3.141714   1.006696   4.258524   4.235444   3.891870
    14  H    2.547193   1.002734   5.643831   5.629532   5.564996
                   11         12         13         14
    11  H    0.000000
    12  H    1.737762   0.000000
    13  H    4.224958   4.516408   0.000000
    14  H    4.431156   5.318292   1.760240   0.000000
 Framework group  C1[X(C3H7N3O)]
 Deg. of freedom    36
                         Standard orientation:                         
 ---------------------------------------------------------------------
 Center     Atomic      Atomic             Coordinates (Angstroms)
 Number     Number       Type             X           Y           Z
 ---------------------------------------------------------------------
      1          6           0        2.491750   -0.437131    0.006808
      2          7           0        1.083270   -0.755197    0.015512
      3          6           0        0.264534    0.218407   -0.004284
      4          7           0        0.524451    1.545819   -0.047294
      5          6           0       -1.230677   -0.075936    0.001890
      6          8           0       -2.042611    0.829433    0.025328
      7          7           0       -1.521411   -1.382967   -0.017063
      8          1           0        2.785796    0.146616    0.889972
      9          1           0        2.775183    0.139021   -0.884119
     10          1           0        3.076455   -1.355540    0.009683
     11          1           0       -0.268774    2.160480    0.029184
     12          1           0        1.448812    1.904308    0.093166
     13          1           0       -0.755327   -2.036058   -0.021847
     14          1           0       -2.479063   -1.679926   -0.003237
 ---------------------------------------------------------------------
 Rotational constants (GHZ):           5.0061735           2.0346422           1.4604284
 ======================================================================================================
                                       Pseudopotential Parameters
 ======================================================================================================
  Center     Atomic      Valence      Angular      Power
  Number     Number     Electrons     Momentum     of R      Exponent        Coefficient   SO-Coeffient
 ======================================================================================================
    1          6            6
                                      G and up 
                                                     0        0.0000010       -0.00286759    0.00000000
                                                     2        0.1200000        0.03193960    0.00000000
                                                     2        0.1600000       -0.04027782    0.00000000
                                                     2        0.2600000        0.24782456    0.00000000
                                                     2        0.4000000       -0.62266671    0.00000000
                                                     2        0.7000000        0.35695227    0.00000000
                                      S - G
                                                     0        0.0000010       -0.06602313    0.00000000
                                                     2        0.1200000        1.47277455    0.00000000
                                                     2        0.1600000       -4.06924166    0.00000000
                                                     2        0.3000000        5.02952802    0.00000000
                                                     2        0.7000000       -5.65856978    0.00000000
                                                     2        1.7000000        8.57604414    0.00000000
                                      P - G
                                                     0        0.0000010        0.49434425    0.00000000
                                                     2        0.1200000       -1.37391547    0.00000000
                                                     2        0.1600000        3.65411806    0.00000000
                                                     2        0.2800000       -7.36479843    0.00000000
                                                     2        0.6000000       17.22091285    0.00000000
                                                     2        1.1000000      -23.50107827    0.00000000
                                                     2        3.0000000       16.29464063    0.00000000
                                      D - G
                                                     0        0.0000010       -0.28693103    0.00000000
                                                     2        0.1200000        0.12273044    0.00000000
                                                     2        0.3000000       -0.43416384    0.00000000
                                                     2        0.7000000        2.23358493    0.00000000
                                      F - G
                                                     0        0.0000010        0.07263570    0.00000000
                                                     2        0.1400000       -0.76152861    0.00000000
                                                     2        0.2200000        1.98045593    0.00000000
                                                     2        0.4000000       -2.42426427    0.00000000
                                                     2        0.7000000        0.52335237    0.00000000
    2          7            7
                                      G and up 
                                                     0        0.0000010        0.00420138    0.00000000
                                                     2        0.1200000        0.05872431    0.00000000
                                                     2        0.1400000       -0.08436978    0.00000000
                                                     2        0.2000000        0.05409159    0.00000000
                                                     2        0.2600000        0.14199713    0.00000000
                                                     2        0.6000000       -0.79062770    0.00000000
                                                     2        0.7000000       -0.14441060    0.00000000
                                                     2        1.5000000        0.73772979    0.00000000
                                      S - G
                                                     0        0.0000010       -0.03094411    0.00000000
                                                     2        0.1200000        0.65332522    0.00000000
                                                     2        0.1800000       -1.38149133    0.00000000
                                                     2        1.3000000        3.29267299    0.00000000
                                      P - G
                                                     0        0.0000010        0.07303105    0.00000000
                                                     2        0.1200000        0.23145115    0.00000000
                                                     2        0.2000000       -1.20679699    0.00000000
                                                     2        0.4000000        1.75088447    0.00000000
                                                     2        1.2000000       -0.67486559    0.00000000
                                      D - G
                                                     0        0.0000010        0.07560739    0.00000000
                                                     2        0.3000000       -0.68679114    0.00000000
                                                     2        0.9000000        3.60133241    0.00000000
                                      F - G
                                                     0        0.0000010       -0.18221184    0.00000000
                                                     2        0.1200000       -0.39369067    0.00000000
                                                     2        0.1800000        0.72091725    0.00000000
                                                     2        0.6000000        0.15946111    0.00000000
    3          6            6
                                      G and up 
                                                     0        0.0000010       -0.00286759    0.00000000
                                                     2        0.1200000        0.03193960    0.00000000
                                                     2        0.1600000       -0.04027782    0.00000000
                                                     2        0.2600000        0.24782456    0.00000000
                                                     2        0.4000000       -0.62266671    0.00000000
                                                     2        0.7000000        0.35695227    0.00000000
                                      S - G
                                                     0        0.0000010       -0.06602313    0.00000000
                                                     2        0.1200000        1.47277455    0.00000000
                                                     2        0.1600000       -4.06924166    0.00000000
                                                     2        0.3000000        5.02952802    0.00000000
                                                     2        0.7000000       -5.65856978    0.00000000
                                                     2        1.7000000        8.57604414    0.00000000
                                      P - G
                                                     0        0.0000010        0.49434425    0.00000000
                                                     2        0.1200000       -1.37391547    0.00000000
                                                     2        0.1600000        3.65411806    0.00000000
                                                     2        0.2800000       -7.36479843    0.00000000
                                                     2        0.6000000       17.22091285    0.00000000
                                                     2        1.1000000      -23.50107827    0.00000000
                                                     2        3.0000000       16.29464063    0.00000000
                                      D - G
                                                     0        0.0000010       -0.28693103    0.00000000
                                                     2        0.1200000        0.12273044    0.00000000
                                                     2        0.3000000       -0.43416384    0.00000000
                                                     2        0.7000000        2.23358493    0.00000000
                                      F - G
                                                     0        0.0000010        0.07263570    0.00000000
                                                     2        0.1400000       -0.76152861    0.00000000
                                                     2        0.2200000        1.98045593    0.00000000
                                                     2        0.4000000       -2.42426427    0.00000000
                                                     2        0.7000000        0.52335237    0.00000000
    4          7            7
                                      G and up 
                                                     0        0.0000010        0.00420138    0.00000000
                                                     2        0.1200000        0.05872431    0.00000000
                                                     2        0.1400000       -0.08436978    0.00000000
                                                     2        0.2000000        0.05409159    0.00000000
                                                     2        0.2600000        0.14199713    0.00000000
                                                     2        0.6000000       -0.79062770    0.00000000
                                                     2        0.7000000       -0.14441060    0.00000000
                                                     2        1.5000000        0.73772979    0.00000000
                                      S - G
                                                     0        0.0000010       -0.03094411    0.00000000
                                                     2        0.1200000        0.65332522    0.00000000
                                                     2        0.1800000       -1.38149133    0.00000000
                                                     2        1.3000000        3.29267299    0.00000000
                                      P - G
                                                     0        0.0000010        0.07303105    0.00000000
                                                     2        0.1200000        0.23145115    0.00000000
                                                     2        0.2000000       -1.20679699    0.00000000
                                                     2        0.4000000        1.75088447    0.00000000
                                                     2        1.2000000       -0.67486559    0.00000000
                                      D - G
                                                     0        0.0000010        0.07560739    0.00000000
                                                     2        0.3000000       -0.68679114    0.00000000
                                                     2        0.9000000        3.60133241    0.00000000
                                      F - G
                                                     0        0.0000010       -0.18221184    0.00000000
                                                     2        0.1200000       -0.39369067    0.00000000
                                                     2        0.1800000        0.72091725    0.00000000
                                                     2        0.6000000        0.15946111    0.00000000
    5          6            6
                                      G and up 
                                                     0        0.0000010       -0.00286759    0.00000000
                                                     2        0.1200000        0.03193960    0.00000000
                                                     2        0.1600000       -0.04027782    0.00000000
                                                     2        0.2600000        0.24782456    0.00000000
                                                     2        0.4000000       -0.62266671    0.00000000
                                                     2        0.7000000        0.35695227    0.00000000
                                      S - G
                                                     0        0.0000010       -0.06602313    0.00000000
                                                     2        0.1200000        1.47277455    0.00000000
                                                     2        0.1600000       -4.06924166    0.00000000
                                                     2        0.3000000        5.02952802    0.00000000
                                                     2        0.7000000       -5.65856978    0.00000000
                                                     2        1.7000000        8.57604414    0.00000000
                                      P - G
                                                     0        0.0000010        0.49434425    0.00000000
                                                     2        0.1200000       -1.37391547    0.00000000
                                                     2        0.1600000        3.65411806    0.00000000
                                                     2        0.2800000       -7.36479843    0.00000000
                                                     2        0.6000000       17.22091285    0.00000000
                                                     2        1.1000000      -23.50107827    0.00000000
                                                     2        3.0000000       16.29464063    0.00000000
                                      D - G
                                                     0        0.0000010       -0.28693103    0.00000000
                                                     2        0.1200000        0.12273044    0.00000000
                                                     2        0.3000000       -0.43416384    0.00000000
                                                     2        0.7000000        2.23358493    0.00000000
                                      F - G
                                                     0        0.0000010        0.07263570    0.00000000
                                                     2        0.1400000       -0.76152861    0.00000000
                                                     2        0.2200000        1.98045593    0.00000000
                                                     2        0.4000000       -2.42426427    0.00000000
                                                     2        0.7000000        0.52335237    0.00000000
    6          8            8
                                      G and up 
                                                     0        0.0000010       -0.00165251    0.00000000
                                                     2        0.1200000       -0.10937202    0.00000000
                                                     2        0.1400000        0.35668905    0.00000000
                                                     2        0.1800000       -0.51696033    0.00000000
                                                     2        0.2400000        0.52446472    0.00000000
                                                     2        0.4000000       -0.07754493    0.00000000
                                                     2        0.8000000       -1.90560988    0.00000000
                                                     2        1.7000000        0.19857963    0.00000000
                                      S - G
                                                     0        0.0000010       -0.03845181    0.00000000
                                                     2        0.1400000        0.42024558    0.00000000
                                                     2        0.4000000       -4.10467779    0.00000000
                                                     2        1.3000000        9.99571838    0.00000000
                                      P - G
                                                     0        0.0000010        0.33206183    0.00000000
                                                     2        0.1200000       -0.18708141    0.00000000
                                                     2        0.2800000       -0.18179081    0.00000000
                                                     2        0.7000000        1.18820394    0.00000000
                                      D - G
                                                     0        0.0000010       -0.57891674    0.00000000
                                                     2        0.1200000        0.60487490    0.00000000
                                                     2        0.2400000       -0.24931464    0.00000000
                                                     2        0.3000000       -2.75054612    0.00000000
                                                     2        1.0000000       15.96776040    0.00000000
                                      F - G
                                                     0        0.0000010        0.37449041    0.00000000
                                                     2        0.1200000       -0.63373642    0.00000000
                                                     2        0.1400000       -0.08412804    0.00000000
                                                     2        0.2800000        2.62321406    0.00000000
                                                     2        0.6000000       -2.68223623    0.00000000
    7          7            7
                                      G and up 
                                                     0        0.0000010        0.00420138    0.00000000
                                                     2        0.1200000        0.05872431    0.00000000
                                                     2        0.1400000       -0.08436978    0.00000000
                                                     2        0.2000000        0.05409159    0.00000000
                                                     2        0.2600000        0.14199713    0.00000000
                                                     2        0.6000000       -0.79062770    0.00000000
                                                     2        0.7000000       -0.14441060    0.00000000
                                                     2        1.5000000        0.73772979    0.00000000
                                      S - G
                                                     0        0.0000010       -0.03094411    0.00000000
                                                     2        0.1200000        0.65332522    0.00000000
                                                     2        0.1800000       -1.38149133    0.00000000
                                                     2        1.3000000        3.29267299    0.00000000
                                      P - G
                                                     0        0.0000010        0.07303105    0.00000000
                                                     2        0.1200000        0.23145115    0.00000000
                                                     2        0.2000000       -1.20679699    0.00000000
                                                     2        0.4000000        1.75088447    0.00000000
                                                     2        1.2000000       -0.67486559    0.00000000
                                      D - G
                                                     0        0.0000010        0.07560739    0.00000000
                                                     2        0.3000000       -0.68679114    0.00000000
                                                     2        0.9000000        3.60133241    0.00000000
                                      F - G
                                                     0        0.0000010       -0.18221184    0.00000000
                                                     2        0.1200000       -0.39369067    0.00000000
                                                     2        0.1800000        0.72091725    0.00000000
                                                     2        0.6000000        0.15946111    0.00000000
    8          1            1
                                      F and up 
                                                     0        0.0000010        0.00072061    0.00000000
                                                     2        0.1200000        0.03832357    0.00000000
                                                     2        0.1400000       -0.08683256    0.00000000
                                                     2        0.1800000        0.09312970    0.00000000
                                                     2        0.2800000       -0.02532572    0.00000000
                                                     2        0.4000000       -0.09430787    0.00000000
                                                     2        0.7000000        0.42710831    0.00000000
                                                     2        1.2000000       -2.11746981    0.00000000
                                      S - F
                                                     0        0.0000010        0.14449603    0.00000000
                                                     2        0.1200000       -0.56378993    0.00000000
                                                     2        0.1400000        0.63941249    0.00000000
                                                     2        0.2600000       -0.58461015    0.00000000
                                                     2        0.5000000        1.00157293    0.00000000
                                                     2        1.8000000       -0.14135838    0.00000000
                                      P - F
                                                     0        0.0000010       -0.09353646    0.00000000
                                                     2        0.1200000        0.31768975    0.00000000
                                                     2        0.2000000       -0.71747951    0.00000000
                                                     2        0.4000000        0.65752308    0.00000000
                                                     2        1.7000000        2.94052587    0.00000000
                                      D - F
                                                     0        0.0000010       -0.04491202    0.00000000
                                                     2        0.1200000       -0.02862031    0.00000000
                                                     2        0.1800000       -0.21515263    0.00000000
                                                     2        0.3000000        0.80560647    0.00000000
                                                     2        0.4000000        0.47351754    0.00000000
                                                     2        0.7000000       -4.57051794    0.00000000
                                                     2        1.6000000       18.53737826    0.00000000
    9          1            1
                                      F and up 
                                                     0        0.0000010        0.00072061    0.00000000
                                                     2        0.1200000        0.03832357    0.00000000
                                                     2        0.1400000       -0.08683256    0.00000000
                                                     2        0.1800000        0.09312970    0.00000000
                                                     2        0.2800000       -0.02532572    0.00000000
                                                     2        0.4000000       -0.09430787    0.00000000
                                                     2        0.7000000        0.42710831    0.00000000
                                                     2        1.2000000       -2.11746981    0.00000000
                                      S - F
                                                     0        0.0000010        0.14449603    0.00000000
                                                     2        0.1200000       -0.56378993    0.00000000
                                                     2        0.1400000        0.63941249    0.00000000
                                                     2        0.2600000       -0.58461015    0.00000000
                                                     2        0.5000000        1.00157293    0.00000000
                                                     2        1.8000000       -0.14135838    0.00000000
                                      P - F
                                                     0        0.0000010       -0.09353646    0.00000000
                                                     2        0.1200000        0.31768975    0.00000000
                                                     2        0.2000000       -0.71747951    0.00000000
                                                     2        0.4000000        0.65752308    0.00000000
                                                     2        1.7000000        2.94052587    0.00000000
                                      D - F
                                                     0        0.0000010       -0.04491202    0.00000000
                                                     2        0.1200000       -0.02862031    0.00000000
                                                     2        0.1800000       -0.21515263    0.00000000
                                                     2        0.3000000        0.80560647    0.00000000
                                                     2        0.4000000        0.47351754    0.00000000
                                                     2        0.7000000       -4.57051794    0.00000000
                                                     2        1.6000000       18.53737826    0.00000000
   10          1            1
                                      F and up 
                                                     0        0.0000010        0.00072061    0.00000000
                                                     2        0.1200000        0.03832357    0.00000000
                                                     2        0.1400000       -0.08683256    0.00000000
                                                     2        0.1800000        0.09312970    0.00000000
                                                     2        0.2800000       -0.02532572    0.00000000
                                                     2        0.4000000       -0.09430787    0.00000000
                                                     2        0.7000000        0.42710831    0.00000000
                                                     2        1.2000000       -2.11746981    0.00000000
                                      S - F
                                                     0        0.0000010        0.14449603    0.00000000
                                                     2        0.1200000       -0.56378993    0.00000000
                                                     2        0.1400000        0.63941249    0.00000000
                                                     2        0.2600000       -0.58461015    0.00000000
                                                     2        0.5000000        1.00157293    0.00000000
                                                     2        1.8000000       -0.14135838    0.00000000
                                      P - F
                                                     0        0.0000010       -0.09353646    0.00000000
                                                     2        0.1200000        0.31768975    0.00000000
                                                     2        0.2000000       -0.71747951    0.00000000
                                                     2        0.4000000        0.65752308    0.00000000
                                                     2        1.7000000        2.94052587    0.00000000
                                      D - F
                                                     0        0.0000010       -0.04491202    0.00000000
                                                     2        0.1200000       -0.02862031    0.00000000
                                                     2        0.1800000       -0.21515263    0.00000000
                                                     2        0.3000000        0.80560647    0.00000000
                                                     2        0.4000000        0.47351754    0.00000000
                                                     2        0.7000000       -4.57051794    0.00000000
                                                     2        1.6000000       18.53737826    0.00000000
   11          1            1
                                      F and up 
                                                     0        0.0000010        0.00072061    0.00000000
                                                     2        0.1200000        0.03832357    0.00000000
                                                     2        0.1400000       -0.08683256    0.00000000
                                                     2        0.1800000        0.09312970    0.00000000
                                                     2        0.2800000       -0.02532572    0.00000000
                                                     2        0.4000000       -0.09430787    0.00000000
                                                     2        0.7000000        0.42710831    0.00000000
                                                     2        1.2000000       -2.11746981    0.00000000
                                      S - F
                                                     0        0.0000010        0.14449603    0.00000000
                                                     2        0.1200000       -0.56378993    0.00000000
                                                     2        0.1400000        0.63941249    0.00000000
                                                     2        0.2600000       -0.58461015    0.00000000
                                                     2        0.5000000        1.00157293    0.00000000
                                                     2        1.8000000       -0.14135838    0.00000000
                                      P - F
                                                     0        0.0000010       -0.09353646    0.00000000
                                                     2        0.1200000        0.31768975    0.00000000
                                                     2        0.2000000       -0.71747951    0.00000000
                                                     2        0.4000000        0.65752308    0.00000000
                                                     2        1.7000000        2.94052587    0.00000000
                                      D - F
                                                     0        0.0000010       -0.04491202    0.00000000
                                                     2        0.1200000       -0.02862031    0.00000000
                                                     2        0.1800000       -0.21515263    0.00000000
                                                     2        0.3000000        0.80560647    0.00000000
                                                     2        0.4000000        0.47351754    0.00000000
                                                     2        0.7000000       -4.57051794    0.00000000
                                                     2        1.6000000       18.53737826    0.00000000
   12          1            1
                                      F and up 
                                                     0        0.0000010        0.00072061    0.00000000
                                                     2        0.1200000        0.03832357    0.00000000
                                                     2        0.1400000       -0.08683256    0.00000000
                                                     2        0.1800000        0.09312970    0.00000000
                                                     2        0.2800000       -0.02532572    0.00000000
                                                     2        0.4000000       -0.09430787    0.00000000
                                                     2        0.7000000        0.42710831    0.00000000
                                                     2        1.2000000       -2.11746981    0.00000000
                                      S - F
                                                     0        0.0000010        0.14449603    0.00000000
                                                     2        0.1200000       -0.56378993    0.00000000
                                                     2        0.1400000        0.63941249    0.00000000
                                                     2        0.2600000       -0.58461015    0.00000000
                                                     2        0.5000000        1.00157293    0.00000000
                                                     2        1.8000000       -0.14135838    0.00000000
                                      P - F
                                                     0        0.0000010       -0.09353646    0.00000000
                                                     2        0.1200000        0.31768975    0.00000000
                                                     2        0.2000000       -0.71747951    0.00000000
                                                     2        0.4000000        0.65752308    0.00000000
                                                     2        1.7000000        2.94052587    0.00000000
                                      D - F
                                                     0        0.0000010       -0.04491202    0.00000000
                                                     2        0.1200000       -0.02862031    0.00000000
                                                     2        0.1800000       -0.21515263    0.00000000
                                                     2        0.3000000        0.80560647    0.00000000
                                                     2        0.4000000        0.47351754    0.00000000
                                                     2        0.7000000       -4.57051794    0.00000000
                                                     2        1.6000000       18.53737826    0.00000000
   13          1            1
                                      F and up 
                                                     0        0.0000010        0.00072061    0.00000000
                                                     2        0.1200000        0.03832357    0.00000000
                                                     2        0.1400000       -0.08683256    0.00000000
                                                     2        0.1800000        0.09312970    0.00000000
                                                     2        0.2800000       -0.02532572    0.00000000
                                                     2        0.4000000       -0.09430787    0.00000000
                                                     2        0.7000000        0.42710831    0.00000000
                                                     2        1.2000000       -2.11746981    0.00000000
                                      S - F
                                                     0        0.0000010        0.14449603    0.00000000
                                                     2        0.1200000       -0.56378993    0.00000000
                                                     2        0.1400000        0.63941249    0.00000000
                                                     2        0.2600000       -0.58461015    0.00000000
                                                     2        0.5000000        1.00157293    0.00000000
                                                     2        1.8000000       -0.14135838    0.00000000
                                      P - F
                                                     0        0.0000010       -0.09353646    0.00000000
                                                     2        0.1200000        0.31768975    0.00000000
                                                     2        0.2000000       -0.71747951    0.00000000
                                                     2        0.4000000        0.65752308    0.00000000
                                                     2        1.7000000        2.94052587    0.00000000
                                      D - F
                                                     0        0.0000010       -0.04491202    0.00000000
                                                     2        0.1200000       -0.02862031    0.00000000
                                                     2        0.1800000       -0.21515263    0.00000000
                                                     2        0.3000000        0.80560647    0.00000000
                                                     2        0.4000000        0.47351754    0.00000000
                                                     2        0.7000000       -4.57051794    0.00000000
                                                     2        1.6000000       18.53737826    0.00000000
   14          1            1
                                      F and up 
                                                     0        0.0000010        0.00072061    0.00000000
                                                     2        0.1200000        0.03832357    0.00000000
                                                     2        0.1400000       -0.08683256    0.00000000
                                                     2        0.1800000        0.09312970    0.00000000
                                                     2        0.2800000       -0.02532572    0.00000000
                                                     2        0.4000000       -0.09430787    0.00000000
                                                     2        0.7000000        0.42710831    0.00000000
                                                     2        1.2000000       -2.11746981    0.00000000
                                      S - F
                                                     0        0.0000010        0.14449603    0.00000000
                                                     2        0.1200000       -0.56378993    0.00000000
                                                     2        0.1400000        0.63941249    0.00000000
                                                     2        0.2600000       -0.58461015    0.00000000
                                                     2        0.5000000        1.00157293    0.00000000
                                                     2        1.8000000       -0.14135838    0.00000000
                                      P - F
                                                     0        0.0000010       -0.09353646    0.00000000
                                                     2        0.1200000        0.31768975    0.00000000
                                                     2        0.2000000       -0.71747951    0.00000000
                                                     2        0.4000000        0.65752308    0.00000000
                                                     2        1.7000000        2.94052587    0.00000000
                                      D - F
                                                     0        0.0000010       -0.04491202    0.00000000
                                                     2        0.1200000       -0.02862031    0.00000000
                                                     2        0.1800000       -0.21515263    0.00000000
                                                     2        0.3000000        0.80560647    0.00000000
                                                     2        0.4000000        0.47351754    0.00000000
                                                     2        0.7000000       -4.57051794    0.00000000
                                                     2        1.6000000       18.53737826    0.00000000
 ======================================================================================================
   224 basis functions,   378 primitive gaussians,   238 cartesian basis functions
    27 alpha electrons       27 beta electrons
       nuclear repulsion energy       305.8664232251 Hartrees.
 NAtoms=   14 NActive=   14 NUniq=   14 SFac= 1.00D+00 NAtFMM=   60 NAOKFM=F Big=F
   1 Symmetry operations used in ECPInt.
 ECPInt:  NShTT=    4851 NPrTT=   22491 LenC2=    4843 LenP2D=   17474.
 LDataN:  DoStor=T MaxTD1= 6 Len=  172
 Initial guess from the checkpoint file:  "Grambow2020_wb97xd3_008714_forward_mol2.chk"
 B after Tr=     0.834454   -0.115671    0.034361
         Rot=    0.230420    0.964874    0.112093   -0.057964 Ang= 153.36 deg.
 >>>>>>>>>> Convergence criterion not met.
 SCF Done:  E(RHF) =  -357.577156484     A.U. after    2 cycles
            NFock=  1  Conv=0.32D+00     -V/T= 2.0264

 **********************************************************************

            Population analysis using the SCF Density.

 **********************************************************************

 Orbital symmetries:
       Occupied  (A) (A) (A) (A) (A) (A) (A) (A) (A) (A) (A) (A)
                 (A) (A) (A) (A) (A) (A) (A) (A) (A) (A) (A) (A)
                 (A) (A) (A)
       Virtual   (A) (A) (A) (A) (A) (A) (A) (A) (A) (A) (A) (A)
                 (A) (A) (A) (A) (A) (A) (A) (A) (A) (A) (A) (A)
                 (A) (A) (A) (A) (A) (A) (A) (A) (A) (A) (A) (A)
                 (A) (A) (A) (A) (A) (A) (A) (A) (A) (A) (A) (A)
                 (A) (A) (A) (A) (A) (A) (A) (A) (A) (A) (A) (A)
                 (A) (A) (A) (A) (A) (A) (A) (A) (A) (A) (A) (A)
                 (A) (A) (A) (A) (A) (A) (A) (A) (A) (A) (A) (A)
                 (A) (A) (A) (A) (A) (A) (A) (A) (A) (A) (A) (A)
                 (A) (A) (A) (A) (A) (A) (A) (A) (A) (A) (A) (A)
                 (A) (A) (A) (A) (A) (A) (A) (A) (A) (A) (A) (A)
                 (A) (A) (A) (A) (A) (A) (A) (A) (A) (A) (A) (A)
                 (A) (A) (A) (A) (A) (A) (A) (A) (A) (A) (A) (A)
                 (A) (A) (A) (A) (A) (A) (A) (A) (A) (A) (A) (A)
                 (A) (A) (A) (A) (A) (A) (A) (A) (A) (A) (A) (A)
                 (A) (A) (A) (A) (A) (A) (A) (A) (A) (A) (A) (A)
                 (A) (A) (A) (A) (A) (A) (A) (A) (A) (A) (A) (A)
                 (A) (A) (A) (A) (A)
 The electronic state is 1-A.
 Alpha  occ. eigenvalues --  -21.03269 -15.77667 -15.77583 -15.71343 -11.52316
 Alpha  occ. eigenvalues --  -11.45524 -11.38793  -1.71946  -1.46020  -1.34884
 Alpha  occ. eigenvalues --   -1.28231  -1.04183  -0.89288  -0.77483  -0.74830
 Alpha  occ. eigenvalues --   -0.70012  -0.62255  -0.61393  -0.59554  -0.56231
 Alpha  occ. eigenvalues --   -0.55701  -0.48141  -0.47587  -0.38463  -0.33367
 Alpha  occ. eigenvalues --   -0.31730  -0.29610
 Alpha virt. eigenvalues --    0.03447   0.04931   0.05442   0.06285   0.06515
 Alpha virt. eigenvalues --    0.07627   0.07852   0.10567   0.11523   0.12658
 Alpha virt. eigenvalues --    0.13423   0.13658   0.14054   0.14950   0.15707
 Alpha virt. eigenvalues --    0.16067   0.17040   0.18176   0.18589   0.19737
 Alpha virt. eigenvalues --    0.19839   0.20693   0.21760   0.22637   0.22834
 Alpha virt. eigenvalues --    0.24517   0.25009   0.25412   0.28717   0.29218
 Alpha virt. eigenvalues --    0.29959   0.30014   0.30964   0.32794   0.34810
 Alpha virt. eigenvalues --    0.35156   0.35733   0.36717   0.37946   0.39892
 Alpha virt. eigenvalues --    0.41325   0.41694   0.42358   0.42507   0.42650
 Alpha virt. eigenvalues --    0.44825   0.46186   0.46501   0.47632   0.48215
 Alpha virt. eigenvalues --    0.49484   0.50155   0.52097   0.52872   0.53723
 Alpha virt. eigenvalues --    0.55713   0.56628   0.57904   0.59323   0.59506
 Alpha virt. eigenvalues --    0.60852   0.62087   0.63183   0.63668   0.64908
 Alpha virt. eigenvalues --    0.65427   0.66450   0.69091   0.69310   0.69513
 Alpha virt. eigenvalues --    0.71532   0.72874   0.73734   0.76106   0.77298
 Alpha virt. eigenvalues --    0.79199   0.79410   0.80593   0.80876   0.81750
 Alpha virt. eigenvalues --    0.83261   0.85018   0.87263   0.87625   0.88829
 Alpha virt. eigenvalues --    0.90855   0.92105   0.93397   0.94005   0.96361
 Alpha virt. eigenvalues --    0.98343   0.99365   1.00823   1.02833   1.06799
 Alpha virt. eigenvalues --    1.08096   1.10440   1.12476   1.13644   1.15917
 Alpha virt. eigenvalues --    1.16475   1.19561   1.23531   1.23926   1.28088
 Alpha virt. eigenvalues --    1.29094   1.33063   1.34766   1.38937   1.42483
 Alpha virt. eigenvalues --    1.46475   1.46801   1.54143   1.57051   1.60243
 Alpha virt. eigenvalues --    1.63001   1.67735   1.68452   1.73171   1.74982
 Alpha virt. eigenvalues --    1.80213   1.83542   1.86949   1.87879   1.88642
 Alpha virt. eigenvalues --    1.92132   1.95250   1.96571   2.00464   2.01523
 Alpha virt. eigenvalues --    2.03012   2.09750   2.10285   2.14950   2.19220
 Alpha virt. eigenvalues --    2.22269   2.22801   2.26084   2.28088   2.30759
 Alpha virt. eigenvalues --    2.32369   2.35428   2.40214   2.42011   2.43059
 Alpha virt. eigenvalues --    2.44489   2.47143   2.48377   2.52163   2.55748
 Alpha virt. eigenvalues --    2.56544   2.60031   2.61697   2.63856   2.66815
 Alpha virt. eigenvalues --    2.68841   2.72872   2.76340   2.78692   2.81193
 Alpha virt. eigenvalues --    2.82222   2.87150   2.89435   2.92326   2.95444
 Alpha virt. eigenvalues --    2.97979   3.01372   3.05055   3.09470   3.15023
 Alpha virt. eigenvalues --    3.17307   3.22763   3.23203   3.24976   3.27716
 Alpha virt. eigenvalues --    3.27914   3.32173   3.43205   3.45293   3.46810
 Alpha virt. eigenvalues --    3.60437   3.65214   3.74525   3.79460   3.80529
 Alpha virt. eigenvalues --    3.96813   4.01576   4.16690   4.36575   4.43216
 Alpha virt. eigenvalues --    4.51927   4.68631   6.05861   6.07185   6.17074
 Alpha virt. eigenvalues --    6.25303   6.49375
          Condensed to atoms (all electrons):
 Mulliken charges:
               1
     1  C   -3.385668
     2  N   -3.049541
     3  C    3.080206
     4  N   -3.163089
     5  C    6.052467
     6  O   -3.432532
     7  N   -3.088043
     8  H    1.268376
     9  H    1.270687
    10  H    1.418014
    11  H    0.732563
    12  H    0.725197
    13  H    0.728180
    14  H    0.843183
 Sum of Mulliken charges =   0.00000
 Mulliken charges with hydrogens summed into heavy atoms:
               1
     1  C    0.571409
     2  N   -3.049541
     3  C    3.080206
     4  N   -1.705329
     5  C    6.052467
     6  O   -3.432532
     7  N   -1.516680
 Electronic spatial extent (au):  <R**2>=            825.7884
 Charge=              0.0000 electrons
 Dipole moment (field-independent basis, Debye):
    X=              1.0467    Y=              0.2671    Z=              0.2039  Tot=              1.0993

 Test job not archived.
 1\1\GINC-SE253\SP\RHF\Aug-CC-pVDZ\C3H7N3O1\OHZDE\09-Apr-2025\0\\#t hf 
 aug-cc-pvdz iop(5/13=1,5/36=2,99/5=2) pseudo=read geom=check guess=(re
 ad,tcheck) scf=(maxcycle=1)\\title\\0,1\C,0,1.8942072,0.72047204,-0.48
 740641\N,0,0.45276455,0.72574186,-0.40212022\C,0,-0.1020962,-0.2661836
 6,0.16957711\N,0,0.47472352,-1.35032185,0.73821993\C,0,-1.62158979,-0.
 29680814,0.28152973\O,0,-2.18905019,-1.24795568,0.78430884\N,0,-2.2195
 6028,0.79213975,-0.21830882\H,0,2.26758682,-0.1350466,-1.06695669\H,0,
 2.36226367,0.68144704,0.50528534\H,0,2.23692303,1.62782266,-0.98200136
 \H,0,-0.14846582,-2.06966172,1.06540196\H,0,1.44830932,-1.5507587,0.61
 722007\H,0,-1.63630307,1.50690697,-0.62124161\H,0,-3.21971277,0.862206
 02,-0.20217112\\Version=ES64L-G16RevC.01\State=1-A\HF=-357.5771565\RMS
 D=3.204e-01\Dipole=0.4194084,-0.0499293,-0.093137\Quadrupole=2.3496269
 ,0.1363494,-2.4859763,-4.360117,1.5626083,-0.6707029\PG=C01 [X(C3H7N3O
 1)]\\@


 THE TRULY SUCCESSFUL PERFORMANCE OF RESEARCHES IN
 INORGANIC CHEMISTRY IS POSSIBLE ONLY TO ONE WHO IS NOT
 ONLY A THEORETICAL CHEMIST, BUT ALSO AN ACCOMPLISHED
 ANALYST AND, MOREOVER, NOT MERELY A PRACTICALLY TRAINED,
 MECHANICAL WORKER, BUT A THINKING CREATIVE ARTIST.
   --  CLEMENS WINKLER, BER. 33, 1697(1900)
 Job cpu time:       0 days  0 hours  0 minutes 52.6 seconds.
 Elapsed time:       0 days  0 hours  0 minutes  4.1 seconds.
 File lengths (MBytes):  RWF=     10 Int=      0 D2E=      0 Chk=      7 Scr=      1
 Normal termination of Gaussian 16 at Wed Apr  9 03:58:45 2025.
