 Entering Gaussian System, Link 0=g16
 Input=Grambow2020_wb97xd3_007730_forward_mol1.gjf
 Output=Grambow2020_wb97xd3_007730_forward_mol1.log
 Initial command:
 /arc/software/Gaussian/g16.c01/l1.exe "/tmp/slurm/4881972/Gau-90648.inp" -scrdir="/tmp/slurm/4881972/"
 Entering Link 1 = /arc/software/Gaussian/g16.c01/l1.exe PID=     90649.
  
 Copyright (c) 1988-2019, Gaussian, Inc.  All Rights Reserved.
  
 This is part of the Gaussian(R) 16 program.  It is based on
 the Gaussian(R) 09 system (copyright 2009, Gaussian, Inc.),
 the Gaussian(R) 03 system (copyright 2003, Gaussian, Inc.),
 the Gaussian(R) 98 system (copyright 1998, Gaussian, Inc.),
 the Gaussian(R) 94 system (copyright 1995, Gaussian, Inc.),
 the Gaussian 92(TM) system (copyright 1992, Gaussian, Inc.),
 the Gaussian 90(TM) system (copyright 1990, Gaussian, Inc.),
 the Gaussian 88(TM) system (copyright 1988, Gaussian, Inc.),
 the Gaussian 86(TM) system (copyright 1986, Carnegie Mellon
 University), and the Gaussian 82(TM) system (copyright 1983,
 Carnegie Mellon University). Gaussian is a federally registered
 trademark of Gaussian, Inc.
  
 This software contains proprietary and confidential information,
 including trade secrets, belonging to Gaussian, Inc.
  
 This software is provided under written license and may be
 used, copied, transmitted, or stored only in accord with that
 written license.
  
 The following legend is applicable only to US Government
 contracts under FAR:
  
                    RESTRICTED RIGHTS LEGEND
  
 Use, reproduction and disclosure by the US Government is
 subject to restrictions as set forth in subparagraphs (a)
 and (c) of the Commercial Computer Software - Restricted
 Rights clause in FAR 52.227-19.
  
 Gaussian, Inc.
 340 Quinnipiac St., Bldg. 40, Wallingford CT 06492
  
  
 ---------------------------------------------------------------
 Warning -- This program may not be used in any manner that
 competes with the business of Gaussian, Inc. or will provide
 assistance to any competitor of Gaussian, Inc.  The licensee
 of this program is prohibited from giving any competitor of
 Gaussian, Inc. access to this program.  By using this program,
 the user acknowledges that Gaussian, Inc. is engaged in the
 business of creating and licensing software in the field of
 computational chemistry and represents and warrants to the
 licensee that it is not a competitor of Gaussian, Inc. and that
 it will not use this program in any manner prohibited above.
 ---------------------------------------------------------------
  

 Cite this work as:
 Gaussian 16, Revision C.01,
 M. J. Frisch, G. W. Trucks, H. B. Schlegel, G. E. Scuseria, 
 M. A. Robb, J. R. Cheeseman, G. Scalmani, V. Barone, 
 G. A. Petersson, H. Nakatsuji, X. Li, M. Caricato, A. V. Marenich, 
 J. Bloino, B. G. Janesko, R. Gomperts, B. Mennucci, H. P. Hratchian, 
 J. V. Ortiz, A. F. Izmaylov, J. L. Sonnenberg, D. Williams-Young, 
 F. Ding, F. Lipparini, F. Egidi, J. Goings, B. Peng, A. Petrone, 
 T. Henderson, D. Ranasinghe, V. G. Zakrzewski, J. Gao, N. Rega, 
 G. Zheng, W. Liang, M. Hada, M. Ehara, K. Toyota, R. Fukuda, 
 J. Hasegawa, M. Ishida, T. Nakajima, Y. Honda, O. Kitao, H. Nakai, 
 T. Vreven, K. Throssell, J. A. Montgomery, Jr., J. E. Peralta, 
 F. Ogliaro, M. J. Bearpark, J. J. Heyd, E. N. Brothers, K. N. Kudin, 
 V. N. Staroverov, T. A. Keith, R. Kobayashi, J. Normand, 
 K. Raghavachari, A. P. Rendell, J. C. Burant, S. S. Iyengar, 
 J. Tomasi, M. Cossi, J. M. Millam, M. Klene, C. Adamo, R. Cammi, 
 J. W. Ochterski, R. L. Martin, K. Morokuma, O. Farkas, 
 J. B. Foresman, and D. J. Fox, Gaussian, Inc., Wallingford CT, 2019.
 
 ******************************************
 Gaussian 16:  ES64L-G16RevC.01  3-Jul-2019
                 9-Apr-2025 
 ******************************************
 %nprocs=16
 Will use up to   16 processors via shared memory.
 %mem=30GB
 %chk=Grambow2020_wb97xd3_007730_forward_mol1.chk
 ----------------------------------------------------------------------
 #t hf aug-cc-pvdz symm=none int=(grid=ultrafine) guess=(read,tcheck) s
 table=(opt,rrhf)
 ----------------------------------------------------------------------
 -----
 title
 -----
 Symbolic Z-matrix:
 Charge =  0 Multiplicity = 1
 C                     2.16553   0.03199   0.04879 
 C                     0.68513  -0.15434   0.01548 
 C                     0.03957  -1.24335   0.40605 
 C                    -1.4406   -1.30343   0.28288 
 C                    -1.61461   0.79561  -0.11591 
 C                    -0.15878   0.99972  -0.48916 
 O                     0.21587   2.22573   0.13237 
 H                     2.42029   0.91151   0.64211 
 H                     2.55213   0.20704  -0.95904 
 H                     2.66841  -0.83987   0.46678 
 H                     0.55491  -2.11341   0.79859 
 H                    -1.99781  -1.24213   1.21138 
 H                    -1.77749  -2.187    -0.27609 
 H                    -1.80053  -0.54675  -0.52127 
 H                    -2.28934   0.8908   -0.98504 
 H                     0.04968   1.16083  -1.55581 
 H                    -0.31152   2.26816   0.93974 
 
                    Distance matrix (angstroms):
                    1          2          3          4          5
     1  C    0.000000
     2  C    1.492449   0.000000
     3  C    2.504761   1.324855   0.000000
     4  C    3.852574   2.431185   1.486503   0.000000
     5  C    3.860010   2.491680   2.676957   2.143659   0.000000
     6  C    2.574547   1.516144   2.423240   2.746564   1.516711
     7  O    2.936090   2.428697   3.484316   3.901472   2.336134
     8  H    1.091087   2.130599   3.219774   4.465587   4.107119
     9  H    1.093537   2.136812   3.206252   4.445875   4.291736
    10  H    1.089843   2.146399   2.660315   4.139164   4.621535
    11  H    2.785511   2.113814   1.084748   2.214519   3.742397
    12  H    4.506486   3.132358   2.190775   1.084601   2.461895
    13  H    4.536170   3.206433   2.158119   1.098467   2.991343
    14  H    4.048404   2.573058   2.175119   1.161362   1.414504
    15  H    4.653190   3.307689   3.451595   2.672565   1.104401
    16  H    2.885454   2.145327   3.103077   3.416771   2.230822
    17  H    3.453983   2.777780   3.569143   3.802966   2.231783
                    6          7          8          9         10
     6  C    0.000000
     7  O    1.424689   0.000000
     8  H    2.817647   2.616578   0.000000
     9  H    2.863245   3.274810   1.754230   0.000000
    10  H    3.505842   3.940140   1.777538   1.772713   0.000000
    11  H    3.443727   4.403061   3.557285   3.530252   2.489758
    12  H    3.361512   4.253313   4.947912   5.245266   4.742349
    13  H    3.580614   4.859263   5.297653   4.994341   4.704529
    14  H    2.255655   3.489952   4.614685   4.439094   4.586243
    15  H    2.190214   3.050686   4.982832   4.889582   5.448143
    16  H    1.098714   2.002892   3.242346   2.743742   3.866712
    17  H    1.916772   0.965292   3.064615   4.006753   4.331692
                   11         12         13         14         15
    11  H    0.000000
    12  H    2.728721   0.000000
    13  H    2.569127   1.775919   0.000000
    14  H    3.121628   1.877376   1.658628   0.000000
    15  H    4.505148   3.075489   3.199599   1.587629   0.000000
    16  H    4.064379   4.198074   4.022960   2.722028   2.422747
    17  H    4.468648   3.903781   4.845177   3.503635   3.084424
                   16         17
    16  H    0.000000
    17  H    2.753985   0.000000
 Symmetry turned off by external request.
 Rotational constants (GHZ):           3.3343299           2.7644948           1.6327936
   251 basis functions,   411 primitive gaussians,   265 cartesian basis functions
    27 alpha electrons       27 beta electrons
       nuclear repulsion energy       303.9780216995 Hartrees.
 NAtoms=   17 NActive=   17 NUniq=   17 SFac= 1.00D+00 NAtFMM=   60 NAOKFM=F Big=F
 ExpMin= 2.97D-02 ExpMax= 1.17D+04 ExpMxC= 4.01D+02 IAcc=3 IRadAn=         5 AccDes= 0.00D+00
 Harris functional with IExCor=  205 and IRadAn=       5 diagonalized for initial guess.
 HarFok:  IExCor=  205 AccDes= 0.00D+00 IRadAn=         5 IDoV= 1 UseB2=F ITyADJ=14
 ICtDFT=  3500011 ScaDFX=  1.000000  1.000000  1.000000  1.000000
 FoFCou: FMM=F IPFlag=           0 FMFlag=      100000 FMFlg1=           0
         NFxFlg=           0 DoJE=T BraDBF=F KetDBF=T FulRan=T
         wScrn=  0.000000 ICntrl=       500 IOpCl=  0 I1Cent=   200000004 NGrid=           0
         NMat0=    1 NMatS0=      1 NMatT0=    0 NMatD0=    1 NMtDS0=    0 NMtDT0=    0
 Symmetry not used in FoFCou.
 SCF Done:  E(RHF) =  -307.747276813     A.U. after   15 cycles
            NFock= 15  Conv=0.57D-08     -V/T= 2.0006

 **********************************************************************

            Population analysis using the SCF Density.

 **********************************************************************

 Alpha  occ. eigenvalues --  -20.56049 -11.29039 -11.28105 -11.25780 -11.24542
 Alpha  occ. eigenvalues --  -11.23958 -11.22681  -1.36312  -1.13365  -1.02194
 Alpha  occ. eigenvalues --   -0.97430  -0.91061  -0.81538  -0.73914  -0.67267
 Alpha  occ. eigenvalues --   -0.63528  -0.62454  -0.61056  -0.60237  -0.55986
 Alpha  occ. eigenvalues --   -0.53533  -0.52119  -0.51567  -0.49878  -0.43272
 Alpha  occ. eigenvalues --   -0.35846  -0.34374
 Alpha virt. eigenvalues --    0.03173   0.04160   0.04325   0.05010   0.05985
 Alpha virt. eigenvalues --    0.06242   0.06782   0.07942   0.08533   0.08901
 Alpha virt. eigenvalues --    0.11507   0.11772   0.12380   0.12705   0.13716
 Alpha virt. eigenvalues --    0.13977   0.15072   0.15718   0.16387   0.17016
 Alpha virt. eigenvalues --    0.17392   0.17816   0.18296   0.18409   0.19033
 Alpha virt. eigenvalues --    0.19462   0.19623   0.20388   0.21830   0.22159
 Alpha virt. eigenvalues --    0.22671   0.23551   0.26041   0.26821   0.27550
 Alpha virt. eigenvalues --    0.28388   0.29128   0.29686   0.31061   0.32006
 Alpha virt. eigenvalues --    0.32448   0.34554   0.34929   0.36031   0.37616
 Alpha virt. eigenvalues --    0.38660   0.40220   0.40983   0.41502   0.42276
 Alpha virt. eigenvalues --    0.42890   0.43416   0.44932   0.45306   0.45827
 Alpha virt. eigenvalues --    0.46400   0.47000   0.47866   0.49583   0.50369
 Alpha virt. eigenvalues --    0.50795   0.52345   0.53428   0.53580   0.54577
 Alpha virt. eigenvalues --    0.54789   0.55198   0.55648   0.56100   0.57166
 Alpha virt. eigenvalues --    0.58838   0.59319   0.62014   0.62260   0.62590
 Alpha virt. eigenvalues --    0.62898   0.64221   0.65375   0.66234   0.66599
 Alpha virt. eigenvalues --    0.67517   0.68610   0.69084   0.70067   0.71050
 Alpha virt. eigenvalues --    0.71641   0.72247   0.73837   0.73909   0.75444
 Alpha virt. eigenvalues --    0.75819   0.76722   0.77569   0.79724   0.80471
 Alpha virt. eigenvalues --    0.80838   0.81348   0.82224   0.84273   0.84685
 Alpha virt. eigenvalues --    0.85520   0.87416   0.87768   0.88099   0.89967
 Alpha virt. eigenvalues --    0.90703   0.92063   0.93563   0.95089   0.96332
 Alpha virt. eigenvalues --    0.98516   1.01008   1.03388   1.05639   1.06059
 Alpha virt. eigenvalues --    1.08903   1.09447   1.11514   1.14300   1.15873
 Alpha virt. eigenvalues --    1.17518   1.18153   1.20341   1.20879   1.23651
 Alpha virt. eigenvalues --    1.25831   1.26468   1.29323   1.31372   1.34671
 Alpha virt. eigenvalues --    1.36016   1.38345   1.39123   1.41895   1.45238
 Alpha virt. eigenvalues --    1.47461   1.52872   1.54474   1.57342   1.58974
 Alpha virt. eigenvalues --    1.62592   1.63846   1.64304   1.65981   1.69019
 Alpha virt. eigenvalues --    1.70794   1.71757   1.73612   1.74612   1.75904
 Alpha virt. eigenvalues --    1.78172   1.78604   1.79899   1.83322   1.84892
 Alpha virt. eigenvalues --    1.85750   1.87301   1.89149   1.91801   1.93613
 Alpha virt. eigenvalues --    1.96147   1.97939   2.01132   2.03651   2.05091
 Alpha virt. eigenvalues --    2.06203   2.09173   2.11304   2.12365   2.14645
 Alpha virt. eigenvalues --    2.16107   2.18080   2.20584   2.23159   2.24653
 Alpha virt. eigenvalues --    2.25446   2.27707   2.29433   2.30427   2.32103
 Alpha virt. eigenvalues --    2.33308   2.37295   2.39068   2.40558   2.41456
 Alpha virt. eigenvalues --    2.43552   2.46930   2.48060   2.50330   2.52417
 Alpha virt. eigenvalues --    2.54865   2.57552   2.60809   2.62520   2.63450
 Alpha virt. eigenvalues --    2.66255   2.69191   2.70497   2.74635   2.77288
 Alpha virt. eigenvalues --    2.83038   2.85336   2.87484   2.89106   2.93644
 Alpha virt. eigenvalues --    2.95786   2.98594   3.00809   3.04641   3.07091
 Alpha virt. eigenvalues --    3.10824   3.14721   3.17513   3.27945   3.28561
 Alpha virt. eigenvalues --    3.33575   3.47675   3.73735   3.84659   3.87197
 Alpha virt. eigenvalues --    3.91032   4.03350   4.05499   4.43131
          Condensed to atoms (all electrons):
 Mulliken charges:
               1
     1  C    0.366458
     2  C   -0.810904
     3  C    0.525675
     4  C    0.313105
     5  C   -0.300100
     6  C    0.872610
     7  O   -0.805584
     8  H    0.103675
     9  H    0.074951
    10  H   -0.151782
    11  H   -0.463760
    12  H    0.090289
    13  H    0.059400
    14  H    0.147919
    15  H   -0.026459
    16  H   -0.161008
    17  H    0.165516
 Sum of Mulliken charges =  -0.00000
 Mulliken charges with hydrogens summed into heavy atoms:
               1
     1  C    0.393301
     2  C   -0.810904
     3  C    0.061915
     4  C    0.610713
     5  C   -0.326558
     6  C    0.711602
     7  O   -0.640068
 Electronic spatial extent (au):  <R**2>=            798.9074
 Charge=             -0.0000 electrons
 Dipole moment (field-independent basis, Debye):
    X=             -0.2777    Y=             -3.0808    Z=             -0.6013  Tot=              3.1512
 NROrb=    251 NOA=    27 NOB=    27 NVA=   224 NVB=   224

 **** Warning!!: The largest alpha MO coefficient is  0.81516359D+02

    12 initial guesses have been made.
 Iteration     1 Dimension    12 NMult     0 NNew     12
 Iteration     2 Dimension    24 NMult    12 NNew     12
 Iteration     3 Dimension    27 NMult    24 NNew      3
 Iteration     4 Dimension    30 NMult    27 NNew      3
 Iteration     5 Dimension    33 NMult    30 NNew      3
 Iteration     6 Dimension    36 NMult    33 NNew      3
 ***********************************************************************
 Stability analysis using <AA,BB:AA,BB> singles matrix:
 ***********************************************************************
 Ground to excited state transition densities written to RWF  633

 Eigenvectors of the stability matrix:
 
 Excited state symmetry could not be determined.
 Eigenvector   1:      Singlet-?Sym  Eigenvalue= 0.1454676  <S**2>=0.000
      26 -> 38         0.11092
      27 -> 30        -0.10332
      27 -> 31        -0.11603
      27 -> 35         0.10516
      27 -> 38         0.44771
      27 -> 40        -0.18253
      27 -> 41        -0.15561
      27 -> 44         0.18905
      27 -> 50        -0.15209
      27 -> 52         0.10139
      27 -> 55        -0.11763
 The wavefunction is stable under the perturbations considered.
 The wavefunction is already stable.

 **********************************************************************

            Population analysis using the SCF Density.

 **********************************************************************

 Alpha  occ. eigenvalues --  -20.56049 -11.29039 -11.28105 -11.25780 -11.24542
 Alpha  occ. eigenvalues --  -11.23958 -11.22681  -1.36312  -1.13365  -1.02194
 Alpha  occ. eigenvalues --   -0.97430  -0.91061  -0.81538  -0.73914  -0.67267
 Alpha  occ. eigenvalues --   -0.63528  -0.62454  -0.61056  -0.60237  -0.55986
 Alpha  occ. eigenvalues --   -0.53533  -0.52119  -0.51567  -0.49878  -0.43272
 Alpha  occ. eigenvalues --   -0.35846  -0.34374
 Alpha virt. eigenvalues --    0.03173   0.04160   0.04325   0.05010   0.05985
 Alpha virt. eigenvalues --    0.06242   0.06782   0.07942   0.08533   0.08901
 Alpha virt. eigenvalues --    0.11507   0.11772   0.12380   0.12705   0.13716
 Alpha virt. eigenvalues --    0.13977   0.15072   0.15718   0.16387   0.17016
 Alpha virt. eigenvalues --    0.17392   0.17816   0.18296   0.18409   0.19033
 Alpha virt. eigenvalues --    0.19462   0.19623   0.20388   0.21830   0.22159
 Alpha virt. eigenvalues --    0.22671   0.23551   0.26041   0.26821   0.27550
 Alpha virt. eigenvalues --    0.28388   0.29128   0.29686   0.31061   0.32006
 Alpha virt. eigenvalues --    0.32448   0.34554   0.34929   0.36031   0.37616
 Alpha virt. eigenvalues --    0.38660   0.40220   0.40983   0.41502   0.42276
 Alpha virt. eigenvalues --    0.42890   0.43416   0.44932   0.45306   0.45827
 Alpha virt. eigenvalues --    0.46400   0.47000   0.47866   0.49583   0.50369
 Alpha virt. eigenvalues --    0.50795   0.52345   0.53428   0.53580   0.54577
 Alpha virt. eigenvalues --    0.54789   0.55198   0.55648   0.56100   0.57166
 Alpha virt. eigenvalues --    0.58838   0.59319   0.62014   0.62260   0.62590
 Alpha virt. eigenvalues --    0.62898   0.64221   0.65375   0.66234   0.66599
 Alpha virt. eigenvalues --    0.67517   0.68610   0.69084   0.70067   0.71050
 Alpha virt. eigenvalues --    0.71641   0.72247   0.73837   0.73909   0.75444
 Alpha virt. eigenvalues --    0.75819   0.76722   0.77569   0.79724   0.80471
 Alpha virt. eigenvalues --    0.80838   0.81348   0.82224   0.84273   0.84685
 Alpha virt. eigenvalues --    0.85520   0.87416   0.87768   0.88099   0.89967
 Alpha virt. eigenvalues --    0.90703   0.92063   0.93563   0.95089   0.96332
 Alpha virt. eigenvalues --    0.98516   1.01008   1.03388   1.05639   1.06059
 Alpha virt. eigenvalues --    1.08903   1.09447   1.11514   1.14300   1.15873
 Alpha virt. eigenvalues --    1.17518   1.18153   1.20341   1.20879   1.23651
 Alpha virt. eigenvalues --    1.25831   1.26468   1.29323   1.31372   1.34671
 Alpha virt. eigenvalues --    1.36016   1.38345   1.39123   1.41895   1.45238
 Alpha virt. eigenvalues --    1.47461   1.52872   1.54474   1.57342   1.58974
 Alpha virt. eigenvalues --    1.62592   1.63846   1.64304   1.65981   1.69019
 Alpha virt. eigenvalues --    1.70794   1.71757   1.73612   1.74612   1.75904
 Alpha virt. eigenvalues --    1.78172   1.78604   1.79899   1.83322   1.84892
 Alpha virt. eigenvalues --    1.85750   1.87301   1.89149   1.91801   1.93613
 Alpha virt. eigenvalues --    1.96147   1.97939   2.01132   2.03651   2.05091
 Alpha virt. eigenvalues --    2.06203   2.09173   2.11304   2.12365   2.14645
 Alpha virt. eigenvalues --    2.16107   2.18080   2.20584   2.23159   2.24653
 Alpha virt. eigenvalues --    2.25446   2.27707   2.29433   2.30427   2.32103
 Alpha virt. eigenvalues --    2.33308   2.37295   2.39068   2.40558   2.41456
 Alpha virt. eigenvalues --    2.43552   2.46930   2.48060   2.50330   2.52417
 Alpha virt. eigenvalues --    2.54865   2.57552   2.60809   2.62520   2.63450
 Alpha virt. eigenvalues --    2.66255   2.69191   2.70497   2.74635   2.77288
 Alpha virt. eigenvalues --    2.83038   2.85336   2.87484   2.89106   2.93644
 Alpha virt. eigenvalues --    2.95786   2.98594   3.00809   3.04641   3.07091
 Alpha virt. eigenvalues --    3.10824   3.14721   3.17513   3.27945   3.28561
 Alpha virt. eigenvalues --    3.33575   3.47675   3.73735   3.84659   3.87197
 Alpha virt. eigenvalues --    3.91032   4.03350   4.05499   4.43131
          Condensed to atoms (all electrons):
 Mulliken charges:
               1
     1  C    0.366458
     2  C   -0.810904
     3  C    0.525675
     4  C    0.313105
     5  C   -0.300100
     6  C    0.872610
     7  O   -0.805584
     8  H    0.103675
     9  H    0.074951
    10  H   -0.151782
    11  H   -0.463760
    12  H    0.090289
    13  H    0.059400
    14  H    0.147919
    15  H   -0.026459
    16  H   -0.161008
    17  H    0.165516
 Sum of Mulliken charges =  -0.00000
 Mulliken charges with hydrogens summed into heavy atoms:
               1
     1  C    0.393301
     2  C   -0.810904
     3  C    0.061915
     4  C    0.610713
     5  C   -0.326558
     6  C    0.711602
     7  O   -0.640068
 Electronic spatial extent (au):  <R**2>=            798.9074
 Charge=             -0.0000 electrons
 Dipole moment (field-independent basis, Debye):
    X=             -0.2777    Y=             -3.0808    Z=             -0.6013  Tot=              3.1512
 Unable to Open any file for archive entry.
 1\1\GINC-SE131\Stability\RHF\Aug-CC-pVDZ\C6H10O1\OHZDE\09-Apr-2025\0\\
 #t hf aug-cc-pvdz symm=none int=(grid=ultrafine) guess=(read,tcheck) s
 table=(opt,rrhf)\\title\\0,1\C,0,2.16553058,0.03199345,0.04878861\C,0,
 0.68513374,-0.154336,0.01547857\C,0,0.03957224,-1.24334738,0.40604805\
 C,0,-1.44060001,-1.30342869,0.28288097\C,0,-1.61460709,0.7956099,-0.11
 591016\C,0,-0.15877807,0.99972183,-0.48915653\O,0,0.21587017,2.2257267
 4,0.13236634\H,0,2.42029148,0.91150651,0.64210556\H,0,2.5521325,0.2070
 4123,-0.95904126\H,0,2.66841234,-0.83987478,0.46677734\H,0,0.55491028,
 -2.11341343,0.79859222\H,0,-1.99781004,-1.24212721,1.21138432\H,0,-1.7
 7748523,-2.1869976,-0.27608505\H,0,-1.80053339,-0.54675359,-0.521266\H
 ,0,-2.2893355,0.89079826,-0.98503811\H,0,0.04968136,1.1608322,-1.55581
 481\H,0,-0.31151536,2.26816154,0.93973995\\Version=ES64L-G16RevC.01\HF
 =-307.7472768\RMSD=5.716e-09\Dipole=-0.109246,-1.212076,-0.2365535\Qua
 drupole=0.4291981,-1.7432002,1.3140021,1.2691379,1.6789552,-0.3497432\
 PG=Unknown\\@
 The archive entry for this job was punched.


 "WOULD YOU TELL ME PLEASE, WHICH WAY I OUGHT TO WALK FROM HERE?"
 "THAT DEPENDS A GREAT DEAL ON WHERE YOU WANT TO GO," SAID THE CAT.
 "I DON'T MUCH CARE WHERE -- ", SAID ALICE.
 "THEN IT DOESN'T MATTER WHICH WAY YOU WALK," SAID THE CAT.

                                      -- LEWIS CARROLL
 Job cpu time:       0 days  0 hours 10 minutes 25.8 seconds.
 Elapsed time:       0 days  0 hours  0 minutes 44.2 seconds.
 File lengths (MBytes):  RWF=    265 Int=      0 D2E=      0 Chk=      9 Scr=      1
 Normal termination of Gaussian 16 at Wed Apr  9 18:52:02 2025.
 Initial command:
 /arc/software/Gaussian/g16.c01/l1.exe "/tmp/slurm/4881972/Gau-90648.inp" -scrdir="/tmp/slurm/4881972/"
 Entering Link 1 = /arc/software/Gaussian/g16.c01/l1.exe PID=     90865.
  
 Copyright (c) 1988-2019, Gaussian, Inc.  All Rights Reserved.
  
 This is part of the Gaussian(R) 16 program.  It is based on
 the Gaussian(R) 09 system (copyright 2009, Gaussian, Inc.),
 the Gaussian(R) 03 system (copyright 2003, Gaussian, Inc.),
 the Gaussian(R) 98 system (copyright 1998, Gaussian, Inc.),
 the Gaussian(R) 94 system (copyright 1995, Gaussian, Inc.),
 the Gaussian 92(TM) system (copyright 1992, Gaussian, Inc.),
 the Gaussian 90(TM) system (copyright 1990, Gaussian, Inc.),
 the Gaussian 88(TM) system (copyright 1988, Gaussian, Inc.),
 the Gaussian 86(TM) system (copyright 1986, Carnegie Mellon
 University), and the Gaussian 82(TM) system (copyright 1983,
 Carnegie Mellon University). Gaussian is a federally registered
 trademark of Gaussian, Inc.
  
 This software contains proprietary and confidential information,
 including trade secrets, belonging to Gaussian, Inc.
  
 This software is provided under written license and may be
 used, copied, transmitted, or stored only in accord with that
 written license.
  
 The following legend is applicable only to US Government
 contracts under FAR:
  
                    RESTRICTED RIGHTS LEGEND
  
 Use, reproduction and disclosure by the US Government is
 subject to restrictions as set forth in subparagraphs (a)
 and (c) of the Commercial Computer Software - Restricted
 Rights clause in FAR 52.227-19.
  
 Gaussian, Inc.
 340 Quinnipiac St., Bldg. 40, Wallingford CT 06492
  
  
 ---------------------------------------------------------------
 Warning -- This program may not be used in any manner that
 competes with the business of Gaussian, Inc. or will provide
 assistance to any competitor of Gaussian, Inc.  The licensee
 of this program is prohibited from giving any competitor of
 Gaussian, Inc. access to this program.  By using this program,
 the user acknowledges that Gaussian, Inc. is engaged in the
 business of creating and licensing software in the field of
 computational chemistry and represents and warrants to the
 licensee that it is not a competitor of Gaussian, Inc. and that
 it will not use this program in any manner prohibited above.
 ---------------------------------------------------------------
  

 Cite this work as:
 Gaussian 16, Revision C.01,
 M. J. Frisch, G. W. Trucks, H. B. Schlegel, G. E. Scuseria, 
 M. A. Robb, J. R. Cheeseman, G. Scalmani, V. Barone, 
 G. A. Petersson, H. Nakatsuji, X. Li, M. Caricato, A. V. Marenich, 
 J. Bloino, B. G. Janesko, R. Gomperts, B. Mennucci, H. P. Hratchian, 
 J. V. Ortiz, A. F. Izmaylov, J. L. Sonnenberg, D. Williams-Young, 
 F. Ding, F. Lipparini, F. Egidi, J. Goings, B. Peng, A. Petrone, 
 T. Henderson, D. Ranasinghe, V. G. Zakrzewski, J. Gao, N. Rega, 
 G. Zheng, W. Liang, M. Hada, M. Ehara, K. Toyota, R. Fukuda, 
 J. Hasegawa, M. Ishida, T. Nakajima, Y. Honda, O. Kitao, H. Nakai, 
 T. Vreven, K. Throssell, J. A. Montgomery, Jr., J. E. Peralta, 
 F. Ogliaro, M. J. Bearpark, J. J. Heyd, E. N. Brothers, K. N. Kudin, 
 V. N. Staroverov, T. A. Keith, R. Kobayashi, J. Normand, 
 K. Raghavachari, A. P. Rendell, J. C. Burant, S. S. Iyengar, 
 J. Tomasi, M. Cossi, J. M. Millam, M. Klene, C. Adamo, R. Cammi, 
 J. W. Ochterski, R. L. Martin, K. Morokuma, O. Farkas, 
 J. B. Foresman, and D. J. Fox, Gaussian, Inc., Wallingford CT, 2019.
 
 ******************************************
 Gaussian 16:  ES64L-G16RevC.01  3-Jul-2019
                 9-Apr-2025 
 ******************************************
 %nprocs=16
 Will use up to   16 processors via shared memory.
 %mem=30GB
 %chk=Grambow2020_wb97xd3_007730_forward_mol1.chk
 ----------------------------------------------------------------------
 #t hf aug-cc-pvdz iop(5/13=1,5/36=2,99/5=2) pseudo=read geom=check gue
 ss=(read,tcheck) scf=(maxcycle=1)
 ----------------------------------------------------------------------
 -----
 title
 -----
 Structure from the checkpoint file:  "Grambow2020_wb97xd3_007730_forward_mol1.chk"
 Charge =  0 Multiplicity = 1
 Z-Matrix found in chk file.
 C,0,2.16553058,0.03199345,0.04878861
 C,0,0.68513374,-0.154336,0.01547857
 C,0,0.03957224,-1.24334738,0.40604805
 C,0,-1.44060001,-1.30342869,0.28288097
 C,0,-1.61460709,0.7956099,-0.11591016
 C,0,-0.15877807,0.99972183,-0.48915653
 O,0,0.21587017,2.22572674,0.13236634
 H,0,2.42029148,0.91150651,0.64210556
 H,0,2.5521325,0.20704123,-0.95904126
 H,0,2.66841234,-0.83987478,0.46677734
 H,0,0.55491028,-2.11341343,0.79859222
 H,0,-1.99781004,-1.24212721,1.21138432
 H,0,-1.77748523,-2.1869976,-0.27608505
 H,0,-1.80053339,-0.54675359,-0.521266
 H,0,-2.2893355,0.89079826,-0.98503811
 H,0,0.04968136,1.1608322,-1.55581481
 H,0,-0.31151536,2.26816154,0.93973995
 Recover connectivity data from disk.
                    Distance matrix (angstroms):
                    1          2          3          4          5
     1  C    0.000000
     2  C    1.492449   0.000000
     3  C    2.504761   1.324855   0.000000
     4  C    3.852574   2.431185   1.486503   0.000000
     5  C    3.860010   2.491680   2.676957   2.143659   0.000000
     6  C    2.574547   1.516144   2.423240   2.746564   1.516711
     7  O    2.936090   2.428697   3.484316   3.901472   2.336134
     8  H    1.091087   2.130599   3.219774   4.465587   4.107119
     9  H    1.093537   2.136812   3.206252   4.445875   4.291736
    10  H    1.089843   2.146399   2.660315   4.139164   4.621535
    11  H    2.785511   2.113814   1.084748   2.214519   3.742397
    12  H    4.506486   3.132358   2.190775   1.084601   2.461895
    13  H    4.536170   3.206433   2.158119   1.098467   2.991343
    14  H    4.048404   2.573058   2.175119   1.161362   1.414504
    15  H    4.653190   3.307689   3.451595   2.672565   1.104401
    16  H    2.885454   2.145327   3.103077   3.416771   2.230822
    17  H    3.453983   2.777780   3.569143   3.802966   2.231783
                    6          7          8          9         10
     6  C    0.000000
     7  O    1.424689   0.000000
     8  H    2.817647   2.616578   0.000000
     9  H    2.863245   3.274810   1.754230   0.000000
    10  H    3.505842   3.940140   1.777538   1.772713   0.000000
    11  H    3.443727   4.403061   3.557285   3.530252   2.489758
    12  H    3.361512   4.253313   4.947912   5.245266   4.742349
    13  H    3.580614   4.859263   5.297653   4.994341   4.704529
    14  H    2.255655   3.489952   4.614685   4.439094   4.586243
    15  H    2.190214   3.050686   4.982832   4.889582   5.448143
    16  H    1.098714   2.002892   3.242346   2.743742   3.866712
    17  H    1.916772   0.965292   3.064615   4.006753   4.331692
                   11         12         13         14         15
    11  H    0.000000
    12  H    2.728721   0.000000
    13  H    2.569127   1.775919   0.000000
    14  H    3.121628   1.877376   1.658628   0.000000
    15  H    4.505148   3.075489   3.199599   1.587629   0.000000
    16  H    4.064379   4.198074   4.022960   2.722028   2.422747
    17  H    4.468648   3.903781   4.845177   3.503635   3.084424
                   16         17
    16  H    0.000000
    17  H    2.753985   0.000000
 Framework group  C1[X(C6H10O)]
 Deg. of freedom    45
                         Standard orientation:                         
 ---------------------------------------------------------------------
 Center     Atomic      Atomic             Coordinates (Angstroms)
 Number     Number       Type             X           Y           Z
 ---------------------------------------------------------------------
      1          6           0       -1.684039   -1.374170    0.084924
      2          6           0       -0.362413   -0.680844    0.087538
      3          6           0        0.803217   -1.249446   -0.183087
      4          6           0        2.049143   -0.442186   -0.107663
      5          6           0        0.984005    1.414335    0.011028
      6          6           0       -0.345073    0.800918    0.408123
      7          8           0       -1.321934    1.506587   -0.351820
      8          1           0       -2.366934   -0.878659   -0.606881
      9          1           0       -2.144808   -1.323680    1.075361
     10          1           0       -1.584805   -2.421789   -0.198635
     11          1           0        0.890086   -2.299450   -0.441205
     12          1           0        2.512672   -0.193518   -1.056169
     13          1           0        2.803355   -0.898711    0.547606
     14          1           0        1.881039    0.479482    0.578655
     15          1           0        1.447280    1.984988    0.835306
     16          1           0       -0.653988    0.948683    1.452110
     17          1           0       -0.877458    1.738316   -1.176763
 ---------------------------------------------------------------------
 Rotational constants (GHZ):           3.3343299           2.7644948           1.6327936
 ======================================================================================================
                                       Pseudopotential Parameters
 ======================================================================================================
  Center     Atomic      Valence      Angular      Power
  Number     Number     Electrons     Momentum     of R      Exponent        Coefficient   SO-Coeffient
 ======================================================================================================
    1          6            6
                                      G and up 
                                                     0        0.0000010       -0.00286759    0.00000000
                                                     2        0.1200000        0.03193960    0.00000000
                                                     2        0.1600000       -0.04027782    0.00000000
                                                     2        0.2600000        0.24782456    0.00000000
                                                     2        0.4000000       -0.62266671    0.00000000
                                                     2        0.7000000        0.35695227    0.00000000
                                      S - G
                                                     0        0.0000010       -0.06602313    0.00000000
                                                     2        0.1200000        1.47277455    0.00000000
                                                     2        0.1600000       -4.06924166    0.00000000
                                                     2        0.3000000        5.02952802    0.00000000
                                                     2        0.7000000       -5.65856978    0.00000000
                                                     2        1.7000000        8.57604414    0.00000000
                                      P - G
                                                     0        0.0000010        0.49434425    0.00000000
                                                     2        0.1200000       -1.37391547    0.00000000
                                                     2        0.1600000        3.65411806    0.00000000
                                                     2        0.2800000       -7.36479843    0.00000000
                                                     2        0.6000000       17.22091285    0.00000000
                                                     2        1.1000000      -23.50107827    0.00000000
                                                     2        3.0000000       16.29464063    0.00000000
                                      D - G
                                                     0        0.0000010       -0.28693103    0.00000000
                                                     2        0.1200000        0.12273044    0.00000000
                                                     2        0.3000000       -0.43416384    0.00000000
                                                     2        0.7000000        2.23358493    0.00000000
                                      F - G
                                                     0        0.0000010        0.07263570    0.00000000
                                                     2        0.1400000       -0.76152861    0.00000000
                                                     2        0.2200000        1.98045593    0.00000000
                                                     2        0.4000000       -2.42426427    0.00000000
                                                     2        0.7000000        0.52335237    0.00000000
    2          6            6
                                      G and up 
                                                     0        0.0000010       -0.00286759    0.00000000
                                                     2        0.1200000        0.03193960    0.00000000
                                                     2        0.1600000       -0.04027782    0.00000000
                                                     2        0.2600000        0.24782456    0.00000000
                                                     2        0.4000000       -0.62266671    0.00000000
                                                     2        0.7000000        0.35695227    0.00000000
                                      S - G
                                                     0        0.0000010       -0.06602313    0.00000000
                                                     2        0.1200000        1.47277455    0.00000000
                                                     2        0.1600000       -4.06924166    0.00000000
                                                     2        0.3000000        5.02952802    0.00000000
                                                     2        0.7000000       -5.65856978    0.00000000
                                                     2        1.7000000        8.57604414    0.00000000
                                      P - G
                                                     0        0.0000010        0.49434425    0.00000000
                                                     2        0.1200000       -1.37391547    0.00000000
                                                     2        0.1600000        3.65411806    0.00000000
                                                     2        0.2800000       -7.36479843    0.00000000
                                                     2        0.6000000       17.22091285    0.00000000
                                                     2        1.1000000      -23.50107827    0.00000000
                                                     2        3.0000000       16.29464063    0.00000000
                                      D - G
                                                     0        0.0000010       -0.28693103    0.00000000
                                                     2        0.1200000        0.12273044    0.00000000
                                                     2        0.3000000       -0.43416384    0.00000000
                                                     2        0.7000000        2.23358493    0.00000000
                                      F - G
                                                     0        0.0000010        0.07263570    0.00000000
                                                     2        0.1400000       -0.76152861    0.00000000
                                                     2        0.2200000        1.98045593    0.00000000
                                                     2        0.4000000       -2.42426427    0.00000000
                                                     2        0.7000000        0.52335237    0.00000000
    3          6            6
                                      G and up 
                                                     0        0.0000010       -0.00286759    0.00000000
                                                     2        0.1200000        0.03193960    0.00000000
                                                     2        0.1600000       -0.04027782    0.00000000
                                                     2        0.2600000        0.24782456    0.00000000
                                                     2        0.4000000       -0.62266671    0.00000000
                                                     2        0.7000000        0.35695227    0.00000000
                                      S - G
                                                     0        0.0000010       -0.06602313    0.00000000
                                                     2        0.1200000        1.47277455    0.00000000
                                                     2        0.1600000       -4.06924166    0.00000000
                                                     2        0.3000000        5.02952802    0.00000000
                                                     2        0.7000000       -5.65856978    0.00000000
                                                     2        1.7000000        8.57604414    0.00000000
                                      P - G
                                                     0        0.0000010        0.49434425    0.00000000
                                                     2        0.1200000       -1.37391547    0.00000000
                                                     2        0.1600000        3.65411806    0.00000000
                                                     2        0.2800000       -7.36479843    0.00000000
                                                     2        0.6000000       17.22091285    0.00000000
                                                     2        1.1000000      -23.50107827    0.00000000
                                                     2        3.0000000       16.29464063    0.00000000
                                      D - G
                                                     0        0.0000010       -0.28693103    0.00000000
                                                     2        0.1200000        0.12273044    0.00000000
                                                     2        0.3000000       -0.43416384    0.00000000
                                                     2        0.7000000        2.23358493    0.00000000
                                      F - G
                                                     0        0.0000010        0.07263570    0.00000000
                                                     2        0.1400000       -0.76152861    0.00000000
                                                     2        0.2200000        1.98045593    0.00000000
                                                     2        0.4000000       -2.42426427    0.00000000
                                                     2        0.7000000        0.52335237    0.00000000
    4          6            6
                                      G and up 
                                                     0        0.0000010       -0.00286759    0.00000000
                                                     2        0.1200000        0.03193960    0.00000000
                                                     2        0.1600000       -0.04027782    0.00000000
                                                     2        0.2600000        0.24782456    0.00000000
                                                     2        0.4000000       -0.62266671    0.00000000
                                                     2        0.7000000        0.35695227    0.00000000
                                      S - G
                                                     0        0.0000010       -0.06602313    0.00000000
                                                     2        0.1200000        1.47277455    0.00000000
                                                     2        0.1600000       -4.06924166    0.00000000
                                                     2        0.3000000        5.02952802    0.00000000
                                                     2        0.7000000       -5.65856978    0.00000000
                                                     2        1.7000000        8.57604414    0.00000000
                                      P - G
                                                     0        0.0000010        0.49434425    0.00000000
                                                     2        0.1200000       -1.37391547    0.00000000
                                                     2        0.1600000        3.65411806    0.00000000
                                                     2        0.2800000       -7.36479843    0.00000000
                                                     2        0.6000000       17.22091285    0.00000000
                                                     2        1.1000000      -23.50107827    0.00000000
                                                     2        3.0000000       16.29464063    0.00000000
                                      D - G
                                                     0        0.0000010       -0.28693103    0.00000000
                                                     2        0.1200000        0.12273044    0.00000000
                                                     2        0.3000000       -0.43416384    0.00000000
                                                     2        0.7000000        2.23358493    0.00000000
                                      F - G
                                                     0        0.0000010        0.07263570    0.00000000
                                                     2        0.1400000       -0.76152861    0.00000000
                                                     2        0.2200000        1.98045593    0.00000000
                                                     2        0.4000000       -2.42426427    0.00000000
                                                     2        0.7000000        0.52335237    0.00000000
    5          6            6
                                      G and up 
                                                     0        0.0000010       -0.00286759    0.00000000
                                                     2        0.1200000        0.03193960    0.00000000
                                                     2        0.1600000       -0.04027782    0.00000000
                                                     2        0.2600000        0.24782456    0.00000000
                                                     2        0.4000000       -0.62266671    0.00000000
                                                     2        0.7000000        0.35695227    0.00000000
                                      S - G
                                                     0        0.0000010       -0.06602313    0.00000000
                                                     2        0.1200000        1.47277455    0.00000000
                                                     2        0.1600000       -4.06924166    0.00000000
                                                     2        0.3000000        5.02952802    0.00000000
                                                     2        0.7000000       -5.65856978    0.00000000
                                                     2        1.7000000        8.57604414    0.00000000
                                      P - G
                                                     0        0.0000010        0.49434425    0.00000000
                                                     2        0.1200000       -1.37391547    0.00000000
                                                     2        0.1600000        3.65411806    0.00000000
                                                     2        0.2800000       -7.36479843    0.00000000
                                                     2        0.6000000       17.22091285    0.00000000
                                                     2        1.1000000      -23.50107827    0.00000000
                                                     2        3.0000000       16.29464063    0.00000000
                                      D - G
                                                     0        0.0000010       -0.28693103    0.00000000
                                                     2        0.1200000        0.12273044    0.00000000
                                                     2        0.3000000       -0.43416384    0.00000000
                                                     2        0.7000000        2.23358493    0.00000000
                                      F - G
                                                     0        0.0000010        0.07263570    0.00000000
                                                     2        0.1400000       -0.76152861    0.00000000
                                                     2        0.2200000        1.98045593    0.00000000
                                                     2        0.4000000       -2.42426427    0.00000000
                                                     2        0.7000000        0.52335237    0.00000000
    6          6            6
                                      G and up 
                                                     0        0.0000010       -0.00286759    0.00000000
                                                     2        0.1200000        0.03193960    0.00000000
                                                     2        0.1600000       -0.04027782    0.00000000
                                                     2        0.2600000        0.24782456    0.00000000
                                                     2        0.4000000       -0.62266671    0.00000000
                                                     2        0.7000000        0.35695227    0.00000000
                                      S - G
                                                     0        0.0000010       -0.06602313    0.00000000
                                                     2        0.1200000        1.47277455    0.00000000
                                                     2        0.1600000       -4.06924166    0.00000000
                                                     2        0.3000000        5.02952802    0.00000000
                                                     2        0.7000000       -5.65856978    0.00000000
                                                     2        1.7000000        8.57604414    0.00000000
                                      P - G
                                                     0        0.0000010        0.49434425    0.00000000
                                                     2        0.1200000       -1.37391547    0.00000000
                                                     2        0.1600000        3.65411806    0.00000000
                                                     2        0.2800000       -7.36479843    0.00000000
                                                     2        0.6000000       17.22091285    0.00000000
                                                     2        1.1000000      -23.50107827    0.00000000
                                                     2        3.0000000       16.29464063    0.00000000
                                      D - G
                                                     0        0.0000010       -0.28693103    0.00000000
                                                     2        0.1200000        0.12273044    0.00000000
                                                     2        0.3000000       -0.43416384    0.00000000
                                                     2        0.7000000        2.23358493    0.00000000
                                      F - G
                                                     0        0.0000010        0.07263570    0.00000000
                                                     2        0.1400000       -0.76152861    0.00000000
                                                     2        0.2200000        1.98045593    0.00000000
                                                     2        0.4000000       -2.42426427    0.00000000
                                                     2        0.7000000        0.52335237    0.00000000
    7          8            8
                                      G and up 
                                                     0        0.0000010       -0.00165251    0.00000000
                                                     2        0.1200000       -0.10937202    0.00000000
                                                     2        0.1400000        0.35668905    0.00000000
                                                     2        0.1800000       -0.51696033    0.00000000
                                                     2        0.2400000        0.52446472    0.00000000
                                                     2        0.4000000       -0.07754493    0.00000000
                                                     2        0.8000000       -1.90560988    0.00000000
                                                     2        1.7000000        0.19857963    0.00000000
                                      S - G
                                                     0        0.0000010       -0.03845181    0.00000000
                                                     2        0.1400000        0.42024558    0.00000000
                                                     2        0.4000000       -4.10467779    0.00000000
                                                     2        1.3000000        9.99571838    0.00000000
                                      P - G
                                                     0        0.0000010        0.33206183    0.00000000
                                                     2        0.1200000       -0.18708141    0.00000000
                                                     2        0.2800000       -0.18179081    0.00000000
                                                     2        0.7000000        1.18820394    0.00000000
                                      D - G
                                                     0        0.0000010       -0.57891674    0.00000000
                                                     2        0.1200000        0.60487490    0.00000000
                                                     2        0.2400000       -0.24931464    0.00000000
                                                     2        0.3000000       -2.75054612    0.00000000
                                                     2        1.0000000       15.96776040    0.00000000
                                      F - G
                                                     0        0.0000010        0.37449041    0.00000000
                                                     2        0.1200000       -0.63373642    0.00000000
                                                     2        0.1400000       -0.08412804    0.00000000
                                                     2        0.2800000        2.62321406    0.00000000
                                                     2        0.6000000       -2.68223623    0.00000000
    8          1            1
                                      F and up 
                                                     0        0.0000010        0.00072061    0.00000000
                                                     2        0.1200000        0.03832357    0.00000000
                                                     2        0.1400000       -0.08683256    0.00000000
                                                     2        0.1800000        0.09312970    0.00000000
                                                     2        0.2800000       -0.02532572    0.00000000
                                                     2        0.4000000       -0.09430787    0.00000000
                                                     2        0.7000000        0.42710831    0.00000000
                                                     2        1.2000000       -2.11746981    0.00000000
                                      S - F
                                                     0        0.0000010        0.14449603    0.00000000
                                                     2        0.1200000       -0.56378993    0.00000000
                                                     2        0.1400000        0.63941249    0.00000000
                                                     2        0.2600000       -0.58461015    0.00000000
                                                     2        0.5000000        1.00157293    0.00000000
                                                     2        1.8000000       -0.14135838    0.00000000
                                      P - F
                                                     0        0.0000010       -0.09353646    0.00000000
                                                     2        0.1200000        0.31768975    0.00000000
                                                     2        0.2000000       -0.71747951    0.00000000
                                                     2        0.4000000        0.65752308    0.00000000
                                                     2        1.7000000        2.94052587    0.00000000
                                      D - F
                                                     0        0.0000010       -0.04491202    0.00000000
                                                     2        0.1200000       -0.02862031    0.00000000
                                                     2        0.1800000       -0.21515263    0.00000000
                                                     2        0.3000000        0.80560647    0.00000000
                                                     2        0.4000000        0.47351754    0.00000000
                                                     2        0.7000000       -4.57051794    0.00000000
                                                     2        1.6000000       18.53737826    0.00000000
    9          1            1
                                      F and up 
                                                     0        0.0000010        0.00072061    0.00000000
                                                     2        0.1200000        0.03832357    0.00000000
                                                     2        0.1400000       -0.08683256    0.00000000
                                                     2        0.1800000        0.09312970    0.00000000
                                                     2        0.2800000       -0.02532572    0.00000000
                                                     2        0.4000000       -0.09430787    0.00000000
                                                     2        0.7000000        0.42710831    0.00000000
                                                     2        1.2000000       -2.11746981    0.00000000
                                      S - F
                                                     0        0.0000010        0.14449603    0.00000000
                                                     2        0.1200000       -0.56378993    0.00000000
                                                     2        0.1400000        0.63941249    0.00000000
                                                     2        0.2600000       -0.58461015    0.00000000
                                                     2        0.5000000        1.00157293    0.00000000
                                                     2        1.8000000       -0.14135838    0.00000000
                                      P - F
                                                     0        0.0000010       -0.09353646    0.00000000
                                                     2        0.1200000        0.31768975    0.00000000
                                                     2        0.2000000       -0.71747951    0.00000000
                                                     2        0.4000000        0.65752308    0.00000000
                                                     2        1.7000000        2.94052587    0.00000000
                                      D - F
                                                     0        0.0000010       -0.04491202    0.00000000
                                                     2        0.1200000       -0.02862031    0.00000000
                                                     2        0.1800000       -0.21515263    0.00000000
                                                     2        0.3000000        0.80560647    0.00000000
                                                     2        0.4000000        0.47351754    0.00000000
                                                     2        0.7000000       -4.57051794    0.00000000
                                                     2        1.6000000       18.53737826    0.00000000
   10          1            1
                                      F and up 
                                                     0        0.0000010        0.00072061    0.00000000
                                                     2        0.1200000        0.03832357    0.00000000
                                                     2        0.1400000       -0.08683256    0.00000000
                                                     2        0.1800000        0.09312970    0.00000000
                                                     2        0.2800000       -0.02532572    0.00000000
                                                     2        0.4000000       -0.09430787    0.00000000
                                                     2        0.7000000        0.42710831    0.00000000
                                                     2        1.2000000       -2.11746981    0.00000000
                                      S - F
                                                     0        0.0000010        0.14449603    0.00000000
                                                     2        0.1200000       -0.56378993    0.00000000
                                                     2        0.1400000        0.63941249    0.00000000
                                                     2        0.2600000       -0.58461015    0.00000000
                                                     2        0.5000000        1.00157293    0.00000000
                                                     2        1.8000000       -0.14135838    0.00000000
                                      P - F
                                                     0        0.0000010       -0.09353646    0.00000000
                                                     2        0.1200000        0.31768975    0.00000000
                                                     2        0.2000000       -0.71747951    0.00000000
                                                     2        0.4000000        0.65752308    0.00000000
                                                     2        1.7000000        2.94052587    0.00000000
                                      D - F
                                                     0        0.0000010       -0.04491202    0.00000000
                                                     2        0.1200000       -0.02862031    0.00000000
                                                     2        0.1800000       -0.21515263    0.00000000
                                                     2        0.3000000        0.80560647    0.00000000
                                                     2        0.4000000        0.47351754    0.00000000
                                                     2        0.7000000       -4.57051794    0.00000000
                                                     2        1.6000000       18.53737826    0.00000000
   11          1            1
                                      F and up 
                                                     0        0.0000010        0.00072061    0.00000000
                                                     2        0.1200000        0.03832357    0.00000000
                                                     2        0.1400000       -0.08683256    0.00000000
                                                     2        0.1800000        0.09312970    0.00000000
                                                     2        0.2800000       -0.02532572    0.00000000
                                                     2        0.4000000       -0.09430787    0.00000000
                                                     2        0.7000000        0.42710831    0.00000000
                                                     2        1.2000000       -2.11746981    0.00000000
                                      S - F
                                                     0        0.0000010        0.14449603    0.00000000
                                                     2        0.1200000       -0.56378993    0.00000000
                                                     2        0.1400000        0.63941249    0.00000000
                                                     2        0.2600000       -0.58461015    0.00000000
                                                     2        0.5000000        1.00157293    0.00000000
                                                     2        1.8000000       -0.14135838    0.00000000
                                      P - F
                                                     0        0.0000010       -0.09353646    0.00000000
                                                     2        0.1200000        0.31768975    0.00000000
                                                     2        0.2000000       -0.71747951    0.00000000
                                                     2        0.4000000        0.65752308    0.00000000
                                                     2        1.7000000        2.94052587    0.00000000
                                      D - F
                                                     0        0.0000010       -0.04491202    0.00000000
                                                     2        0.1200000       -0.02862031    0.00000000
                                                     2        0.1800000       -0.21515263    0.00000000
                                                     2        0.3000000        0.80560647    0.00000000
                                                     2        0.4000000        0.47351754    0.00000000
                                                     2        0.7000000       -4.57051794    0.00000000
                                                     2        1.6000000       18.53737826    0.00000000
   12          1            1
                                      F and up 
                                                     0        0.0000010        0.00072061    0.00000000
                                                     2        0.1200000        0.03832357    0.00000000
                                                     2        0.1400000       -0.08683256    0.00000000
                                                     2        0.1800000        0.09312970    0.00000000
                                                     2        0.2800000       -0.02532572    0.00000000
                                                     2        0.4000000       -0.09430787    0.00000000
                                                     2        0.7000000        0.42710831    0.00000000
                                                     2        1.2000000       -2.11746981    0.00000000
                                      S - F
                                                     0        0.0000010        0.14449603    0.00000000
                                                     2        0.1200000       -0.56378993    0.00000000
                                                     2        0.1400000        0.63941249    0.00000000
                                                     2        0.2600000       -0.58461015    0.00000000
                                                     2        0.5000000        1.00157293    0.00000000
                                                     2        1.8000000       -0.14135838    0.00000000
                                      P - F
                                                     0        0.0000010       -0.09353646    0.00000000
                                                     2        0.1200000        0.31768975    0.00000000
                                                     2        0.2000000       -0.71747951    0.00000000
                                                     2        0.4000000        0.65752308    0.00000000
                                                     2        1.7000000        2.94052587    0.00000000
                                      D - F
                                                     0        0.0000010       -0.04491202    0.00000000
                                                     2        0.1200000       -0.02862031    0.00000000
                                                     2        0.1800000       -0.21515263    0.00000000
                                                     2        0.3000000        0.80560647    0.00000000
                                                     2        0.4000000        0.47351754    0.00000000
                                                     2        0.7000000       -4.57051794    0.00000000
                                                     2        1.6000000       18.53737826    0.00000000
   13          1            1
                                      F and up 
                                                     0        0.0000010        0.00072061    0.00000000
                                                     2        0.1200000        0.03832357    0.00000000
                                                     2        0.1400000       -0.08683256    0.00000000
                                                     2        0.1800000        0.09312970    0.00000000
                                                     2        0.2800000       -0.02532572    0.00000000
                                                     2        0.4000000       -0.09430787    0.00000000
                                                     2        0.7000000        0.42710831    0.00000000
                                                     2        1.2000000       -2.11746981    0.00000000
                                      S - F
                                                     0        0.0000010        0.14449603    0.00000000
                                                     2        0.1200000       -0.56378993    0.00000000
                                                     2        0.1400000        0.63941249    0.00000000
                                                     2        0.2600000       -0.58461015    0.00000000
                                                     2        0.5000000        1.00157293    0.00000000
                                                     2        1.8000000       -0.14135838    0.00000000
                                      P - F
                                                     0        0.0000010       -0.09353646    0.00000000
                                                     2        0.1200000        0.31768975    0.00000000
                                                     2        0.2000000       -0.71747951    0.00000000
                                                     2        0.4000000        0.65752308    0.00000000
                                                     2        1.7000000        2.94052587    0.00000000
                                      D - F
                                                     0        0.0000010       -0.04491202    0.00000000
                                                     2        0.1200000       -0.02862031    0.00000000
                                                     2        0.1800000       -0.21515263    0.00000000
                                                     2        0.3000000        0.80560647    0.00000000
                                                     2        0.4000000        0.47351754    0.00000000
                                                     2        0.7000000       -4.57051794    0.00000000
                                                     2        1.6000000       18.53737826    0.00000000
   14          1            1
                                      F and up 
                                                     0        0.0000010        0.00072061    0.00000000
                                                     2        0.1200000        0.03832357    0.00000000
                                                     2        0.1400000       -0.08683256    0.00000000
                                                     2        0.1800000        0.09312970    0.00000000
                                                     2        0.2800000       -0.02532572    0.00000000
                                                     2        0.4000000       -0.09430787    0.00000000
                                                     2        0.7000000        0.42710831    0.00000000
                                                     2        1.2000000       -2.11746981    0.00000000
                                      S - F
                                                     0        0.0000010        0.14449603    0.00000000
                                                     2        0.1200000       -0.56378993    0.00000000
                                                     2        0.1400000        0.63941249    0.00000000
                                                     2        0.2600000       -0.58461015    0.00000000
                                                     2        0.5000000        1.00157293    0.00000000
                                                     2        1.8000000       -0.14135838    0.00000000
                                      P - F
                                                     0        0.0000010       -0.09353646    0.00000000
                                                     2        0.1200000        0.31768975    0.00000000
                                                     2        0.2000000       -0.71747951    0.00000000
                                                     2        0.4000000        0.65752308    0.00000000
                                                     2        1.7000000        2.94052587    0.00000000
                                      D - F
                                                     0        0.0000010       -0.04491202    0.00000000
                                                     2        0.1200000       -0.02862031    0.00000000
                                                     2        0.1800000       -0.21515263    0.00000000
                                                     2        0.3000000        0.80560647    0.00000000
                                                     2        0.4000000        0.47351754    0.00000000
                                                     2        0.7000000       -4.57051794    0.00000000
                                                     2        1.6000000       18.53737826    0.00000000
   15          1            1
                                      F and up 
                                                     0        0.0000010        0.00072061    0.00000000
                                                     2        0.1200000        0.03832357    0.00000000
                                                     2        0.1400000       -0.08683256    0.00000000
                                                     2        0.1800000        0.09312970    0.00000000
                                                     2        0.2800000       -0.02532572    0.00000000
                                                     2        0.4000000       -0.09430787    0.00000000
                                                     2        0.7000000        0.42710831    0.00000000
                                                     2        1.2000000       -2.11746981    0.00000000
                                      S - F
                                                     0        0.0000010        0.14449603    0.00000000
                                                     2        0.1200000       -0.56378993    0.00000000
                                                     2        0.1400000        0.63941249    0.00000000
                                                     2        0.2600000       -0.58461015    0.00000000
                                                     2        0.5000000        1.00157293    0.00000000
                                                     2        1.8000000       -0.14135838    0.00000000
                                      P - F
                                                     0        0.0000010       -0.09353646    0.00000000
                                                     2        0.1200000        0.31768975    0.00000000
                                                     2        0.2000000       -0.71747951    0.00000000
                                                     2        0.4000000        0.65752308    0.00000000
                                                     2        1.7000000        2.94052587    0.00000000
                                      D - F
                                                     0        0.0000010       -0.04491202    0.00000000
                                                     2        0.1200000       -0.02862031    0.00000000
                                                     2        0.1800000       -0.21515263    0.00000000
                                                     2        0.3000000        0.80560647    0.00000000
                                                     2        0.4000000        0.47351754    0.00000000
                                                     2        0.7000000       -4.57051794    0.00000000
                                                     2        1.6000000       18.53737826    0.00000000
   16          1            1
                                      F and up 
                                                     0        0.0000010        0.00072061    0.00000000
                                                     2        0.1200000        0.03832357    0.00000000
                                                     2        0.1400000       -0.08683256    0.00000000
                                                     2        0.1800000        0.09312970    0.00000000
                                                     2        0.2800000       -0.02532572    0.00000000
                                                     2        0.4000000       -0.09430787    0.00000000
                                                     2        0.7000000        0.42710831    0.00000000
                                                     2        1.2000000       -2.11746981    0.00000000
                                      S - F
                                                     0        0.0000010        0.14449603    0.00000000
                                                     2        0.1200000       -0.56378993    0.00000000
                                                     2        0.1400000        0.63941249    0.00000000
                                                     2        0.2600000       -0.58461015    0.00000000
                                                     2        0.5000000        1.00157293    0.00000000
                                                     2        1.8000000       -0.14135838    0.00000000
                                      P - F
                                                     0        0.0000010       -0.09353646    0.00000000
                                                     2        0.1200000        0.31768975    0.00000000
                                                     2        0.2000000       -0.71747951    0.00000000
                                                     2        0.4000000        0.65752308    0.00000000
                                                     2        1.7000000        2.94052587    0.00000000
                                      D - F
                                                     0        0.0000010       -0.04491202    0.00000000
                                                     2        0.1200000       -0.02862031    0.00000000
                                                     2        0.1800000       -0.21515263    0.00000000
                                                     2        0.3000000        0.80560647    0.00000000
                                                     2        0.4000000        0.47351754    0.00000000
                                                     2        0.7000000       -4.57051794    0.00000000
                                                     2        1.6000000       18.53737826    0.00000000
   17          1            1
                                      F and up 
                                                     0        0.0000010        0.00072061    0.00000000
                                                     2        0.1200000        0.03832357    0.00000000
                                                     2        0.1400000       -0.08683256    0.00000000
                                                     2        0.1800000        0.09312970    0.00000000
                                                     2        0.2800000       -0.02532572    0.00000000
                                                     2        0.4000000       -0.09430787    0.00000000
                                                     2        0.7000000        0.42710831    0.00000000
                                                     2        1.2000000       -2.11746981    0.00000000
                                      S - F
                                                     0        0.0000010        0.14449603    0.00000000
                                                     2        0.1200000       -0.56378993    0.00000000
                                                     2        0.1400000        0.63941249    0.00000000
                                                     2        0.2600000       -0.58461015    0.00000000
                                                     2        0.5000000        1.00157293    0.00000000
                                                     2        1.8000000       -0.14135838    0.00000000
                                      P - F
                                                     0        0.0000010       -0.09353646    0.00000000
                                                     2        0.1200000        0.31768975    0.00000000
                                                     2        0.2000000       -0.71747951    0.00000000
                                                     2        0.4000000        0.65752308    0.00000000
                                                     2        1.7000000        2.94052587    0.00000000
                                      D - F
                                                     0        0.0000010       -0.04491202    0.00000000
                                                     2        0.1200000       -0.02862031    0.00000000
                                                     2        0.1800000       -0.21515263    0.00000000
                                                     2        0.3000000        0.80560647    0.00000000
                                                     2        0.4000000        0.47351754    0.00000000
                                                     2        0.7000000       -4.57051794    0.00000000
                                                     2        1.6000000       18.53737826    0.00000000
 ======================================================================================================
   251 basis functions,   411 primitive gaussians,   265 cartesian basis functions
    27 alpha electrons       27 beta electrons
       nuclear repulsion energy       303.9780216995 Hartrees.
 NAtoms=   17 NActive=   17 NUniq=   17 SFac= 1.00D+00 NAtFMM=   60 NAOKFM=F Big=F
   1 Symmetry operations used in ECPInt.
 ECPInt:  NShTT=    6441 NPrTT=   27141 LenC2=    6437 LenP2D=   21871.
 LDataN:  DoStor=T MaxTD1= 6 Len=  172
 Initial guess from the checkpoint file:  "Grambow2020_wb97xd3_007730_forward_mol1.chk"
 B after Tr=     0.213045   -0.310483    0.109322
         Rot=   -0.001700   -0.298066    0.952186   -0.067043 Ang=-180.19 deg.
 >>>>>>>>>> Convergence criterion not met.
 SCF Done:  E(RHF) =  -309.224093987     A.U. after    2 cycles
            NFock=  1  Conv=0.17D+01     -V/T= 2.0140

 **********************************************************************

            Population analysis using the SCF Density.

 **********************************************************************

 Orbital symmetries:
       Occupied  (A) (A) (A) (A) (A) (A) (A) (A) (A) (A) (A) (A)
                 (A) (A) (A) (A) (A) (A) (A) (A) (A) (A) (A) (A)
                 (A) (A) (A)
       Virtual   (A) (A) (A) (A) (A) (A) (A) (A) (A) (A) (A) (A)
                 (A) (A) (A) (A) (A) (A) (A) (A) (A) (A) (A) (A)
                 (A) (A) (A) (A) (A) (A) (A) (A) (A) (A) (A) (A)
                 (A) (A) (A) (A) (A) (A) (A) (A) (A) (A) (A) (A)
                 (A) (A) (A) (A) (A) (A) (A) (A) (A) (A) (A) (A)
                 (A) (A) (A) (A) (A) (A) (A) (A) (A) (A) (A) (A)
                 (A) (A) (A) (A) (A) (A) (A) (A) (A) (A) (A) (A)
                 (A) (A) (A) (A) (A) (A) (A) (A) (A) (A) (A) (A)
                 (A) (A) (A) (A) (A) (A) (A) (A) (A) (A) (A) (A)
                 (A) (A) (A) (A) (A) (A) (A) (A) (A) (A) (A) (A)
                 (A) (A) (A) (A) (A) (A) (A) (A) (A) (A) (A) (A)
                 (A) (A) (A) (A) (A) (A) (A) (A) (A) (A) (A) (A)
                 (A) (A) (A) (A) (A) (A) (A) (A) (A) (A) (A) (A)
                 (A) (A) (A) (A) (A) (A) (A) (A) (A) (A) (A) (A)
                 (A) (A) (A) (A) (A) (A) (A) (A) (A) (A) (A) (A)
                 (A) (A) (A) (A) (A) (A) (A) (A) (A) (A) (A) (A)
                 (A) (A) (A) (A) (A) (A) (A) (A) (A) (A) (A) (A)
                 (A) (A) (A) (A) (A) (A) (A) (A) (A) (A) (A) (A)
                 (A) (A) (A) (A) (A) (A) (A) (A)
 The electronic state is 1-A.
 Alpha  occ. eigenvalues --  -21.05727 -11.46691 -11.45428 -11.43521 -11.39897
 Alpha  occ. eigenvalues --  -11.38982 -11.36549  -1.71193  -1.29958  -1.11286
 Alpha  occ. eigenvalues --   -1.03816  -0.96127  -0.84020  -0.75632  -0.66190
 Alpha  occ. eigenvalues --   -0.62868  -0.60027  -0.59133  -0.57531  -0.53521
 Alpha  occ. eigenvalues --   -0.51493  -0.48786  -0.46788  -0.40286  -0.34407
 Alpha  occ. eigenvalues --   -0.31873  -0.30261
 Alpha virt. eigenvalues --    0.03597   0.04659   0.05051   0.05306   0.05771
 Alpha virt. eigenvalues --    0.06359   0.07287   0.07517   0.08135   0.08606
 Alpha virt. eigenvalues --    0.11554   0.11868   0.12408   0.12672   0.13434
 Alpha virt. eigenvalues --    0.13630   0.14626   0.14939   0.16095   0.16795
 Alpha virt. eigenvalues --    0.17773   0.18135   0.18532   0.19179   0.19585
 Alpha virt. eigenvalues --    0.19729   0.20046   0.21356   0.21763   0.22360
 Alpha virt. eigenvalues --    0.22538   0.23314   0.26039   0.26356   0.27806
 Alpha virt. eigenvalues --    0.28762   0.29198   0.29680   0.30411   0.31349
 Alpha virt. eigenvalues --    0.32917   0.34434   0.34999   0.35456   0.37950
 Alpha virt. eigenvalues --    0.39124   0.40512   0.41738   0.42092   0.42907
 Alpha virt. eigenvalues --    0.43173   0.44586   0.45324   0.45729   0.45934
 Alpha virt. eigenvalues --    0.46100   0.47327   0.48303   0.49979   0.50367
 Alpha virt. eigenvalues --    0.50788   0.52338   0.53148   0.53785   0.54192
 Alpha virt. eigenvalues --    0.54580   0.54893   0.57124   0.57423   0.57786
 Alpha virt. eigenvalues --    0.58519   0.59787   0.62668   0.63077   0.63458
 Alpha virt. eigenvalues --    0.64829   0.65315   0.66387   0.66976   0.67887
 Alpha virt. eigenvalues --    0.68273   0.69510   0.71415   0.71911   0.72109
 Alpha virt. eigenvalues --    0.73575   0.74401   0.74921   0.75423   0.76676
 Alpha virt. eigenvalues --    0.77242   0.78520   0.79203   0.81015   0.82140
 Alpha virt. eigenvalues --    0.82828   0.83337   0.84266   0.85841   0.86511
 Alpha virt. eigenvalues --    0.88208   0.89935   0.91266   0.91725   0.92366
 Alpha virt. eigenvalues --    0.92664   0.94789   0.95492   0.96866   0.98133
 Alpha virt. eigenvalues --    1.00336   1.03053   1.06676   1.07216   1.10022
 Alpha virt. eigenvalues --    1.14237   1.15841   1.22281   1.24439   1.26859
 Alpha virt. eigenvalues --    1.27127   1.30557   1.32407   1.33369   1.35043
 Alpha virt. eigenvalues --    1.36432   1.39920   1.41084   1.43032   1.45217
 Alpha virt. eigenvalues --    1.52013   1.53299   1.55160   1.59437   1.62997
 Alpha virt. eigenvalues --    1.66396   1.72745   1.74843   1.78820   1.81115
 Alpha virt. eigenvalues --    1.84080   1.84521   1.86072   1.86641   1.89604
 Alpha virt. eigenvalues --    1.91832   1.93022   1.95389   1.95807   1.96368
 Alpha virt. eigenvalues --    1.96928   1.98967   2.00323   2.02042   2.03742
 Alpha virt. eigenvalues --    2.04522   2.06420   2.08437   2.09675   2.14108
 Alpha virt. eigenvalues --    2.14734   2.19538   2.22429   2.23882   2.27017
 Alpha virt. eigenvalues --    2.28001   2.29117   2.30326   2.33831   2.36137
 Alpha virt. eigenvalues --    2.39690   2.40160   2.42427   2.44180   2.46465
 Alpha virt. eigenvalues --    2.48575   2.52481   2.55844   2.56312   2.59118
 Alpha virt. eigenvalues --    2.60815   2.64200   2.66324   2.69103   2.72099
 Alpha virt. eigenvalues --    2.72666   2.76577   2.77517   2.79332   2.81583
 Alpha virt. eigenvalues --    2.82603   2.88567   2.90419   2.94162   2.96188
 Alpha virt. eigenvalues --    3.01086   3.04076   3.06329   3.09089   3.14798
 Alpha virt. eigenvalues --    3.20170   3.21826   3.28909   3.31629   3.34516
 Alpha virt. eigenvalues --    3.38766   3.45267   3.48036   3.56092   3.65841
 Alpha virt. eigenvalues --    3.67074   3.69810   3.71656   3.74917   3.78858
 Alpha virt. eigenvalues --    3.84027   3.89252   4.08386   4.17889   6.15256
 Alpha virt. eigenvalues --    6.17148   6.21347   6.32198   6.92997
          Condensed to atoms (all electrons):
 Mulliken charges:
               1
     1  C   -4.742768
     2  C    3.609302
     3  C   -0.805921
     4  C   -5.179195
     5  C   -3.180208
     6  C    0.560649
     7  O   -2.903513
     8  H    1.217966
     9  H    1.140259
    10  H    1.334981
    11  H    1.660662
    12  H    1.083021
    13  H    0.712123
    14  H    2.529761
    15  H    0.830972
    16  H    1.428248
    17  H    0.703660
 Sum of Mulliken charges =  -0.00000
 Mulliken charges with hydrogens summed into heavy atoms:
               1
     1  C   -1.049562
     2  C    3.609302
     3  C    0.854741
     4  C   -0.854291
     5  C   -2.349237
     6  C    1.988897
     7  O   -2.199852
 Electronic spatial extent (au):  <R**2>=            811.6304
 Charge=              0.0000 electrons
 Dipole moment (field-independent basis, Debye):
    X=              0.9078    Y=             -1.9350    Z=              1.0199  Tot=              2.3683

 Test job not archived.
 1\1\GINC-SE131\SP\RHF\Aug-CC-pVDZ\C6H10O1\OHZDE\09-Apr-2025\0\\#t hf a
 ug-cc-pvdz iop(5/13=1,5/36=2,99/5=2) pseudo=read geom=check guess=(rea
 d,tcheck) scf=(maxcycle=1)\\title\\0,1\C,0,2.16553058,0.03199345,0.048
 78861\C,0,0.68513374,-0.154336,0.01547857\C,0,0.03957224,-1.24334738,0
 .40604805\C,0,-1.44060001,-1.30342869,0.28288097\C,0,-1.61460709,0.795
 6099,-0.11591016\C,0,-0.15877807,0.99972183,-0.48915653\O,0,0.21587017
 ,2.22572674,0.13236634\H,0,2.42029148,0.91150651,0.64210556\H,0,2.5521
 325,0.20704123,-0.95904126\H,0,2.66841234,-0.83987478,0.46677734\H,0,0
 .55491028,-2.11341343,0.79859222\H,0,-1.99781004,-1.24212721,1.2113843
 2\H,0,-1.77748523,-2.1869976,-0.27608505\H,0,-1.80053339,-0.54675359,-
 0.521266\H,0,-2.2893355,0.89079826,-0.98503811\H,0,0.04968136,1.160832
 2,-1.55581481\H,0,-0.31151536,2.26816154,0.93973995\\Version=ES64L-G16
 RevC.01\State=1-A\HF=-309.224094\RMSD=1.660e+00\Dipole=0.1533522,-0.87
 34827,-0.2857976\Quadrupole=-1.0660415,0.383595,0.6824465,2.1261546,1.
 5538189,-0.5432913\PG=C01 [X(C6H10O1)]\\@


 ... FOR AFTERWARDS A MAN FINDS PLEASURE IN HIS PAINS,
 WHEN HE HAS SUFFERED LONG AND WANDERED FAR.

                                    -- HOMER
 Job cpu time:       0 days  0 hours  1 minutes 18.2 seconds.
 Elapsed time:       0 days  0 hours  0 minutes  5.9 seconds.
 File lengths (MBytes):  RWF=     14 Int=      0 D2E=      0 Chk=      9 Scr=      1
 Normal termination of Gaussian 16 at Wed Apr  9 18:52:08 2025.
