 Entering Gaussian System, Link 0=g16
 Input=Grambow2020_wb97xd3_008659_reverse_mol1.gjf
 Output=Grambow2020_wb97xd3_008659_reverse_mol1.log
 Initial command:
 /arc/software/Gaussian/g16.c01/l1.exe "/tmp/slurm/4883199/Gau-11006.inp" -scrdir="/tmp/slurm/4883199/"
 Entering Link 1 = /arc/software/Gaussian/g16.c01/l1.exe PID=     11007.
  
 Copyright (c) 1988-2019, Gaussian, Inc.  All Rights Reserved.
  
 This is part of the Gaussian(R) 16 program.  It is based on
 the Gaussian(R) 09 system (copyright 2009, Gaussian, Inc.),
 the Gaussian(R) 03 system (copyright 2003, Gaussian, Inc.),
 the Gaussian(R) 98 system (copyright 1998, Gaussian, Inc.),
 the Gaussian(R) 94 system (copyright 1995, Gaussian, Inc.),
 the Gaussian 92(TM) system (copyright 1992, Gaussian, Inc.),
 the Gaussian 90(TM) system (copyright 1990, Gaussian, Inc.),
 the Gaussian 88(TM) system (copyright 1988, Gaussian, Inc.),
 the Gaussian 86(TM) system (copyright 1986, Carnegie Mellon
 University), and the Gaussian 82(TM) system (copyright 1983,
 Carnegie Mellon University). Gaussian is a federally registered
 trademark of Gaussian, Inc.
  
 This software contains proprietary and confidential information,
 including trade secrets, belonging to Gaussian, Inc.
  
 This software is provided under written license and may be
 used, copied, transmitted, or stored only in accord with that
 written license.
  
 The following legend is applicable only to US Government
 contracts under FAR:
  
                    RESTRICTED RIGHTS LEGEND
  
 Use, reproduction and disclosure by the US Government is
 subject to restrictions as set forth in subparagraphs (a)
 and (c) of the Commercial Computer Software - Restricted
 Rights clause in FAR 52.227-19.
  
 Gaussian, Inc.
 340 Quinnipiac St., Bldg. 40, Wallingford CT 06492
  
  
 ---------------------------------------------------------------
 Warning -- This program may not be used in any manner that
 competes with the business of Gaussian, Inc. or will provide
 assistance to any competitor of Gaussian, Inc.  The licensee
 of this program is prohibited from giving any competitor of
 Gaussian, Inc. access to this program.  By using this program,
 the user acknowledges that Gaussian, Inc. is engaged in the
 business of creating and licensing software in the field of
 computational chemistry and represents and warrants to the
 licensee that it is not a competitor of Gaussian, Inc. and that
 it will not use this program in any manner prohibited above.
 ---------------------------------------------------------------
  

 Cite this work as:
 Gaussian 16, Revision C.01,
 M. J. Frisch, G. W. Trucks, H. B. Schlegel, G. E. Scuseria, 
 M. A. Robb, J. R. Cheeseman, G. Scalmani, V. Barone, 
 G. A. Petersson, H. Nakatsuji, X. Li, M. Caricato, A. V. Marenich, 
 J. Bloino, B. G. Janesko, R. Gomperts, B. Mennucci, H. P. Hratchian, 
 J. V. Ortiz, A. F. Izmaylov, J. L. Sonnenberg, D. Williams-Young, 
 F. Ding, F. Lipparini, F. Egidi, J. Goings, B. Peng, A. Petrone, 
 T. Henderson, D. Ranasinghe, V. G. Zakrzewski, J. Gao, N. Rega, 
 G. Zheng, W. Liang, M. Hada, M. Ehara, K. Toyota, R. Fukuda, 
 J. Hasegawa, M. Ishida, T. Nakajima, Y. Honda, O. Kitao, H. Nakai, 
 T. Vreven, K. Throssell, J. A. Montgomery, Jr., J. E. Peralta, 
 F. Ogliaro, M. J. Bearpark, J. J. Heyd, E. N. Brothers, K. N. Kudin, 
 V. N. Staroverov, T. A. Keith, R. Kobayashi, J. Normand, 
 K. Raghavachari, A. P. Rendell, J. C. Burant, S. S. Iyengar, 
 J. Tomasi, M. Cossi, J. M. Millam, M. Klene, C. Adamo, R. Cammi, 
 J. W. Ochterski, R. L. Martin, K. Morokuma, O. Farkas, 
 J. B. Foresman, and D. J. Fox, Gaussian, Inc., Wallingford CT, 2019.
 
 ******************************************
 Gaussian 16:  ES64L-G16RevC.01  3-Jul-2019
                 9-Apr-2025 
 ******************************************
 %nprocs=16
 Will use up to   16 processors via shared memory.
 %mem=30GB
 %chk=Grambow2020_wb97xd3_008659_reverse_mol1.chk
 ----------------------------------------------------------------------
 #t hf aug-cc-pvdz symm=none int=(grid=ultrafine) guess=(read,tcheck) s
 table=(opt,rrhf)
 ----------------------------------------------------------------------
 -----
 title
 -----
 Symbolic Z-matrix:
 Charge =  0 Multiplicity = 1
 C                     2.42715  -1.40576  -0.73008 
 O                     1.16805  -1.08946  -0.50562 
 C                     0.77951  -0.01659   0.10579 
 C                    -0.69703   0.23487   0.2279 
 C                    -0.89655   1.73678   0.45053 
 C                    -1.42916  -0.20562  -1.04058 
 C                    -1.24915  -0.53659   1.43973 
 H                     2.50231   0.36622  -1.48959 
 H                     2.54055  -2.32471  -1.28441 
 H                     3.16393  -1.10362   0.00481 
 H                     1.95561   0.89967  -1.24496 
 H                     1.46808   0.42398   0.8235 
 H                    -0.35073   2.08327   1.33181 
 H                    -1.9544    1.95947   0.60647 
 H                    -0.54707   2.30866  -0.41089 
 H                    -1.31803  -1.27696  -1.2131 
 H                    -1.04097   0.31777  -1.91627 
 H                    -2.49554   0.01357  -0.95177 
 H                    -1.11244  -1.61207   1.3098 
 H                    -2.31742  -0.34152   1.56617 
 H                    -0.74208  -0.23812   2.36031 
 
                    Distance matrix (angstroms):
                    1          2          3          4          5
     1  C    0.000000
     2  O    1.317486   0.000000
     3  C    2.311532   1.294539   0.000000
     4  C    3.656484   2.402168   1.502766   0.000000
     5  C    4.724015   3.628276   2.449960   1.531371   0.000000
     6  C    4.050662   2.795143   2.495612   1.529400   2.505990
     7  C    4.356454   3.151648   2.482991   1.539001   2.504205
     8  H    1.929351   2.206226   2.379033   3.633558   4.146647
     9  H    1.079180   2.004026   3.218903   4.395502   5.596368
    10  H    1.083600   2.060169   2.622463   4.092474   4.975340
    11  H    2.408825   2.263515   2.011779   3.106080   3.422018
    12  H    2.584833   2.036442   1.087821   2.253491   2.730202
    13  H    4.913386   3.968513   2.681420   2.180629   1.092990
    14  H    5.684111   4.503600   3.410243   2.167614   1.092230
    15  H    4.769145   3.807599   2.726454   2.175117   1.091435
    16  H    3.778402   2.591579   2.779869   2.178932   3.468130
    17  H    4.050365   2.974892   2.741287   2.173162   2.763370
    18  H    5.128011   3.851956   3.441693   2.162225   2.737276
    19  H    4.090526   2.961337   2.752215   2.180433   3.464066
    20  H    5.377388   4.123130   3.439368   2.179188   2.753697
    21  H    4.577976   3.547801   2.728948   2.184701   2.751602
                    6          7          8          9         10
     6  C    0.000000
     7  C    2.508755   0.000000
     8  H    3.998127   4.844519   0.000000
     9  H    4.506502   4.998010   2.699013   0.000000
    10  H    4.795384   4.675017   2.198046   1.881960   0.000000
    11  H    3.566520   4.420502   0.802055   3.277247   2.652385
    12  H    3.502169   2.947166   2.534429   3.626128   2.424815
    13  H    3.468467   2.771729   4.364449   5.885106   4.926469
    14  H    2.770609   2.724339   5.176307   6.491088   5.995152
    15  H    2.737917   3.465999   3.772976   5.636004   5.058458
    16  H    1.090816   2.755064   4.167910   3.998940   4.647728
    17  H    1.091548   3.469297   3.569201   4.495464   4.836538
    18  H    1.092288   2.752348   5.039052   5.562404   5.847456
    19  H    2.757297   1.091893   4.981628   4.536753   4.499877
    20  H    2.757277   1.093273   5.750503   5.971489   5.750117
    21  H    3.469743   1.092549   5.070792   5.330428   4.642668
                   11         12         13         14         15
    11  H    0.000000
    12  H    2.177723   0.000000
    13  H    3.655116   2.513905   0.000000
    14  H    4.454114   3.757421   1.764423   0.000000
    15  H    2.990704   3.022675   1.768152   1.771310   0.000000
    16  H    3.931342   3.847518   4.324744   3.767000   3.754276
    17  H    3.125496   3.716582   3.760784   3.145442   2.544358
    18  H    4.547946   4.362374   3.754813   2.550980   3.058844
    19  H    4.716839   3.322818   3.773097   3.736240   4.318861
    20  H    5.263243   3.932886   3.130880   2.519397   3.750513
    21  H    4.644352   2.772178   2.569011   3.061871   3.768772
                   16         17         18         19         20
    16  H    0.000000
    17  H    1.764761   0.000000
    18  H    1.766426   1.771603   0.000000
    19  H    2.553350   3.759915   3.109720   0.000000
    20  H    3.098084   3.767144   2.549080   1.769745   0.000000
    21  H    3.765650   4.322901   3.756035   1.768748   1.767215
                   21
    21  H    0.000000
 Symmetry turned off by external request.
 Rotational constants (GHZ):           4.1025706           1.5537563           1.5261458
   287 basis functions,   455 primitive gaussians,   301 cartesian basis functions
    29 alpha electrons       29 beta electrons
       nuclear repulsion energy       341.2842227087 Hartrees.
 NAtoms=   21 NActive=   21 NUniq=   21 SFac= 1.00D+00 NAtFMM=   60 NAOKFM=F Big=F
 ExpMin= 2.97D-02 ExpMax= 1.17D+04 ExpMxC= 4.01D+02 IAcc=3 IRadAn=         5 AccDes= 0.00D+00
 Harris functional with IExCor=  205 and IRadAn=       5 diagonalized for initial guess.
 HarFok:  IExCor=  205 AccDes= 0.00D+00 IRadAn=         5 IDoV= 1 UseB2=F ITyADJ=14
 ICtDFT=  3500011 ScaDFX=  1.000000  1.000000  1.000000  1.000000
 FoFCou: FMM=F IPFlag=           0 FMFlag=      100000 FMFlg1=           0
         NFxFlg=           0 DoJE=T BraDBF=F KetDBF=T FulRan=T
         wScrn=  0.000000 ICntrl=       500 IOpCl=  0 I1Cent=   200000004 NGrid=           0
         NMat0=    1 NMatS0=      1 NMatT0=    0 NMatD0=    1 NMtDS0=    0 NMtDT0=    0
 Symmetry not used in FoFCou.
 SCF Done:  E(RHF) =  -310.064532002     A.U. after   15 cycles
            NFock= 15  Conv=0.38D-08     -V/T= 2.0010

 **********************************************************************

            Population analysis using the SCF Density.

 **********************************************************************

 Alpha  occ. eigenvalues --  -20.67470 -11.30795 -11.27115 -11.25542 -11.22806
 Alpha  occ. eigenvalues --  -11.22662 -11.22115  -1.49705  -1.12334  -0.99940
 Alpha  occ. eigenvalues --   -0.94205  -0.94041  -0.84823  -0.78039  -0.70485
 Alpha  occ. eigenvalues --   -0.68158  -0.67476  -0.60973  -0.59958  -0.59412
 Alpha  occ. eigenvalues --   -0.54733  -0.54044  -0.53545  -0.51860  -0.50304
 Alpha  occ. eigenvalues --   -0.47979  -0.47433  -0.46926  -0.25416
 Alpha virt. eigenvalues --    0.03440   0.04189   0.04446   0.04893   0.06060
 Alpha virt. eigenvalues --    0.06247   0.06791   0.06939   0.07419   0.08476
 Alpha virt. eigenvalues --    0.08662   0.09341   0.09475   0.09723   0.11650
 Alpha virt. eigenvalues --    0.12673   0.13496   0.14345   0.15026   0.15882
 Alpha virt. eigenvalues --    0.16063   0.16428   0.17161   0.17338   0.17891
 Alpha virt. eigenvalues --    0.18405   0.19158   0.19351   0.20094   0.20818
 Alpha virt. eigenvalues --    0.21086   0.21655   0.22033   0.22496   0.22962
 Alpha virt. eigenvalues --    0.23341   0.25466   0.26728   0.27336   0.28494
 Alpha virt. eigenvalues --    0.30344   0.31216   0.32332   0.32826   0.34016
 Alpha virt. eigenvalues --    0.34626   0.35151   0.35465   0.36860   0.38527
 Alpha virt. eigenvalues --    0.38929   0.39396   0.41080   0.41569   0.41947
 Alpha virt. eigenvalues --    0.42623   0.43173   0.43572   0.44179   0.45580
 Alpha virt. eigenvalues --    0.46021   0.46466   0.47115   0.47370   0.48360
 Alpha virt. eigenvalues --    0.48903   0.49687   0.49954   0.50380   0.51398
 Alpha virt. eigenvalues --    0.51763   0.52164   0.53892   0.54438   0.54611
 Alpha virt. eigenvalues --    0.55291   0.56720   0.56993   0.57850   0.58815
 Alpha virt. eigenvalues --    0.60091   0.60943   0.61126   0.61493   0.62944
 Alpha virt. eigenvalues --    0.63070   0.63524   0.64275   0.64841   0.65270
 Alpha virt. eigenvalues --    0.66261   0.67328   0.67574   0.68346   0.68991
 Alpha virt. eigenvalues --    0.69801   0.70793   0.71518   0.72079   0.72422
 Alpha virt. eigenvalues --    0.72831   0.73851   0.74203   0.75830   0.76424
 Alpha virt. eigenvalues --    0.77597   0.78228   0.78903   0.79418   0.81577
 Alpha virt. eigenvalues --    0.82318   0.82859   0.83670   0.84548   0.85010
 Alpha virt. eigenvalues --    0.85649   0.87876   0.88383   0.89635   0.90140
 Alpha virt. eigenvalues --    0.90620   0.91184   0.92364   0.93022   0.93728
 Alpha virt. eigenvalues --    0.94566   0.96276   0.98292   1.01140   1.03205
 Alpha virt. eigenvalues --    1.04409   1.04840   1.06958   1.09086   1.10211
 Alpha virt. eigenvalues --    1.10947   1.11274   1.12173   1.14706   1.16923
 Alpha virt. eigenvalues --    1.18389   1.19164   1.21168   1.26522   1.27464
 Alpha virt. eigenvalues --    1.29051   1.30377   1.32614   1.34682   1.36232
 Alpha virt. eigenvalues --    1.38123   1.39853   1.42373   1.42877   1.44223
 Alpha virt. eigenvalues --    1.45777   1.46652   1.54223   1.55512   1.57222
 Alpha virt. eigenvalues --    1.60604   1.61323   1.63583   1.63999   1.68180
 Alpha virt. eigenvalues --    1.69467   1.70929   1.73495   1.73887   1.75883
 Alpha virt. eigenvalues --    1.77267   1.78975   1.81831   1.82248   1.84003
 Alpha virt. eigenvalues --    1.85974   1.87126   1.89022   1.91739   1.93333
 Alpha virt. eigenvalues --    1.94172   1.94971   1.98958   1.99654   2.00257
 Alpha virt. eigenvalues --    2.02023   2.04297   2.04495   2.05934   2.06122
 Alpha virt. eigenvalues --    2.09173   2.10574   2.12703   2.13476   2.14396
 Alpha virt. eigenvalues --    2.17031   2.21136   2.22559   2.23150   2.24214
 Alpha virt. eigenvalues --    2.25780   2.27066   2.29408   2.31187   2.32626
 Alpha virt. eigenvalues --    2.33874   2.34017   2.34604   2.37110   2.38009
 Alpha virt. eigenvalues --    2.39173   2.41583   2.42334   2.46393   2.48286
 Alpha virt. eigenvalues --    2.51111   2.53799   2.55941   2.56606   2.57325
 Alpha virt. eigenvalues --    2.58286   2.61011   2.61810   2.63540   2.64663
 Alpha virt. eigenvalues --    2.66410   2.68653   2.73355   2.75500   2.78400
 Alpha virt. eigenvalues --    2.80004   2.83560   2.85663   2.88056   2.89061
 Alpha virt. eigenvalues --    2.92355   2.93931   2.94223   3.00267   3.03702
 Alpha virt. eigenvalues --    3.04149   3.08740   3.10908   3.16076   3.20520
 Alpha virt. eigenvalues --    3.27186   3.32776   3.42429   3.46504   3.51982
 Alpha virt. eigenvalues --    3.57467   3.60264   3.77379   3.83868   3.91195
 Alpha virt. eigenvalues --    3.97967   4.15368   4.26911
          Condensed to atoms (all electrons):
 Mulliken charges:
               1
     1  C    0.767595
     2  O   -0.514684
     3  C    0.925065
     4  C   -3.559238
     5  C    1.225317
     6  C    1.252668
     7  C    1.141750
     8  H   -0.032891
     9  H   -0.398799
    10  H   -0.239188
    11  H    0.239021
    12  H   -0.515733
    13  H   -0.048695
    14  H   -0.021707
    15  H   -0.001880
    16  H   -0.039930
    17  H   -0.028597
    18  H   -0.017055
    19  H   -0.051641
    20  H   -0.042852
    21  H   -0.038529
 Sum of Mulliken charges =  -0.00000
 Mulliken charges with hydrogens summed into heavy atoms:
               1
     1  C    0.096718
     2  O   -0.514684
     3  C    0.648353
     4  C   -3.559238
     5  C    1.153036
     6  C    1.167086
     7  C    1.008729
 Electronic spatial extent (au):  <R**2>=            988.0642
 Charge=             -0.0000 electrons
 Dipole moment (field-independent basis, Debye):
    X=             -1.0981    Y=              0.1249    Z=              1.6382  Tot=              1.9761
 NROrb=    287 NOA=    29 NOB=    29 NVA=   258 NVB=   258

 **** Warning!!: The largest alpha MO coefficient is  0.10266057D+03

    12 initial guesses have been made.
 Iteration     1 Dimension    12 NMult     0 NNew     12
 New state      1 was old state      2
 Iteration     2 Dimension    24 NMult    12 NNew     12
 Iteration     3 Dimension    27 NMult    24 NNew      3
 Iteration     4 Dimension    30 NMult    27 NNew      3
 Iteration     5 Dimension    33 NMult    30 NNew      3
 Iteration     6 Dimension    36 NMult    33 NNew      3
 Iteration     7 Dimension    39 NMult    36 NNew      3
 ***********************************************************************
 Stability analysis using <AA,BB:AA,BB> singles matrix:
 ***********************************************************************
 Ground to excited state transition densities written to RWF  633

 Eigenvectors of the stability matrix:
 
 Excited state symmetry could not be determined.
 Eigenvector   1:      Singlet-?Sym  Eigenvalue= 0.1463676  <S**2>=0.000
      29 -> 30        -0.33127
      29 -> 31         0.30877
      29 -> 34         0.15748
      29 -> 39        -0.19177
      29 -> 40         0.30725
      29 -> 41        -0.13393
      29 -> 43        -0.20156
 The wavefunction is stable under the perturbations considered.
 The wavefunction is already stable.

 **********************************************************************

            Population analysis using the SCF Density.

 **********************************************************************

 Alpha  occ. eigenvalues --  -20.67470 -11.30795 -11.27115 -11.25542 -11.22806
 Alpha  occ. eigenvalues --  -11.22662 -11.22115  -1.49705  -1.12334  -0.99940
 Alpha  occ. eigenvalues --   -0.94205  -0.94041  -0.84823  -0.78039  -0.70485
 Alpha  occ. eigenvalues --   -0.68158  -0.67476  -0.60973  -0.59958  -0.59412
 Alpha  occ. eigenvalues --   -0.54733  -0.54044  -0.53545  -0.51860  -0.50304
 Alpha  occ. eigenvalues --   -0.47979  -0.47433  -0.46926  -0.25416
 Alpha virt. eigenvalues --    0.03440   0.04189   0.04446   0.04893   0.06060
 Alpha virt. eigenvalues --    0.06247   0.06791   0.06939   0.07419   0.08476
 Alpha virt. eigenvalues --    0.08662   0.09341   0.09475   0.09723   0.11650
 Alpha virt. eigenvalues --    0.12673   0.13496   0.14345   0.15026   0.15882
 Alpha virt. eigenvalues --    0.16063   0.16428   0.17161   0.17338   0.17891
 Alpha virt. eigenvalues --    0.18405   0.19158   0.19351   0.20094   0.20818
 Alpha virt. eigenvalues --    0.21086   0.21655   0.22033   0.22496   0.22962
 Alpha virt. eigenvalues --    0.23341   0.25466   0.26728   0.27336   0.28494
 Alpha virt. eigenvalues --    0.30344   0.31216   0.32332   0.32826   0.34016
 Alpha virt. eigenvalues --    0.34626   0.35151   0.35465   0.36860   0.38527
 Alpha virt. eigenvalues --    0.38929   0.39396   0.41080   0.41569   0.41947
 Alpha virt. eigenvalues --    0.42623   0.43173   0.43572   0.44179   0.45580
 Alpha virt. eigenvalues --    0.46021   0.46466   0.47115   0.47370   0.48360
 Alpha virt. eigenvalues --    0.48903   0.49687   0.49954   0.50380   0.51398
 Alpha virt. eigenvalues --    0.51763   0.52164   0.53892   0.54438   0.54611
 Alpha virt. eigenvalues --    0.55291   0.56720   0.56993   0.57850   0.58815
 Alpha virt. eigenvalues --    0.60091   0.60943   0.61126   0.61493   0.62944
 Alpha virt. eigenvalues --    0.63070   0.63524   0.64275   0.64841   0.65270
 Alpha virt. eigenvalues --    0.66261   0.67328   0.67574   0.68346   0.68991
 Alpha virt. eigenvalues --    0.69801   0.70793   0.71518   0.72079   0.72422
 Alpha virt. eigenvalues --    0.72831   0.73851   0.74203   0.75830   0.76424
 Alpha virt. eigenvalues --    0.77597   0.78228   0.78903   0.79418   0.81577
 Alpha virt. eigenvalues --    0.82318   0.82859   0.83670   0.84548   0.85010
 Alpha virt. eigenvalues --    0.85649   0.87876   0.88383   0.89635   0.90140
 Alpha virt. eigenvalues --    0.90620   0.91184   0.92364   0.93022   0.93728
 Alpha virt. eigenvalues --    0.94566   0.96276   0.98292   1.01140   1.03205
 Alpha virt. eigenvalues --    1.04409   1.04840   1.06958   1.09086   1.10211
 Alpha virt. eigenvalues --    1.10947   1.11274   1.12173   1.14706   1.16923
 Alpha virt. eigenvalues --    1.18389   1.19164   1.21168   1.26522   1.27464
 Alpha virt. eigenvalues --    1.29051   1.30377   1.32614   1.34682   1.36232
 Alpha virt. eigenvalues --    1.38123   1.39853   1.42373   1.42877   1.44223
 Alpha virt. eigenvalues --    1.45777   1.46652   1.54223   1.55512   1.57222
 Alpha virt. eigenvalues --    1.60604   1.61323   1.63583   1.63999   1.68180
 Alpha virt. eigenvalues --    1.69467   1.70929   1.73495   1.73887   1.75883
 Alpha virt. eigenvalues --    1.77267   1.78975   1.81831   1.82248   1.84003
 Alpha virt. eigenvalues --    1.85974   1.87126   1.89022   1.91739   1.93333
 Alpha virt. eigenvalues --    1.94172   1.94971   1.98958   1.99654   2.00257
 Alpha virt. eigenvalues --    2.02023   2.04297   2.04495   2.05934   2.06122
 Alpha virt. eigenvalues --    2.09173   2.10574   2.12703   2.13476   2.14396
 Alpha virt. eigenvalues --    2.17031   2.21136   2.22559   2.23150   2.24214
 Alpha virt. eigenvalues --    2.25780   2.27066   2.29408   2.31187   2.32626
 Alpha virt. eigenvalues --    2.33874   2.34017   2.34604   2.37110   2.38009
 Alpha virt. eigenvalues --    2.39173   2.41583   2.42334   2.46393   2.48286
 Alpha virt. eigenvalues --    2.51111   2.53799   2.55941   2.56606   2.57325
 Alpha virt. eigenvalues --    2.58286   2.61011   2.61810   2.63540   2.64663
 Alpha virt. eigenvalues --    2.66410   2.68653   2.73355   2.75500   2.78400
 Alpha virt. eigenvalues --    2.80004   2.83560   2.85663   2.88056   2.89061
 Alpha virt. eigenvalues --    2.92355   2.93931   2.94223   3.00267   3.03702
 Alpha virt. eigenvalues --    3.04149   3.08740   3.10908   3.16076   3.20520
 Alpha virt. eigenvalues --    3.27186   3.32776   3.42429   3.46504   3.51982
 Alpha virt. eigenvalues --    3.57467   3.60264   3.77379   3.83868   3.91195
 Alpha virt. eigenvalues --    3.97967   4.15368   4.26911
          Condensed to atoms (all electrons):
 Mulliken charges:
               1
     1  C    0.767595
     2  O   -0.514684
     3  C    0.925065
     4  C   -3.559238
     5  C    1.225317
     6  C    1.252668
     7  C    1.141750
     8  H   -0.032891
     9  H   -0.398799
    10  H   -0.239188
    11  H    0.239021
    12  H   -0.515733
    13  H   -0.048695
    14  H   -0.021707
    15  H   -0.001880
    16  H   -0.039930
    17  H   -0.028597
    18  H   -0.017055
    19  H   -0.051641
    20  H   -0.042852
    21  H   -0.038529
 Sum of Mulliken charges =  -0.00000
 Mulliken charges with hydrogens summed into heavy atoms:
               1
     1  C    0.096718
     2  O   -0.514684
     3  C    0.648353
     4  C   -3.559238
     5  C    1.153036
     6  C    1.167086
     7  C    1.008729
 Electronic spatial extent (au):  <R**2>=            988.0642
 Charge=             -0.0000 electrons
 Dipole moment (field-independent basis, Debye):
    X=             -1.0981    Y=              0.1249    Z=              1.6382  Tot=              1.9761
 Unable to Open any file for archive entry.
 1\1\GINC-SE212\Stability\RHF\Aug-CC-pVDZ\C6H14O1\OHZDE\09-Apr-2025\0\\
 #t hf aug-cc-pvdz symm=none int=(grid=ultrafine) guess=(read,tcheck) s
 table=(opt,rrhf)\\title\\0,1\C,0,2.42715231,-1.40575605,-0.73007756\O,
 0,1.16804721,-1.08946058,-0.5056211\C,0,0.77950752,-0.01659151,0.10578
 632\C,0,-0.69702924,0.23487027,0.22789589\C,0,-0.89654524,1.73677681,0
 .45053088\C,0,-1.42915829,-0.20562184,-1.04057513\C,0,-1.24914787,-0.5
 3659063,1.43972857\H,0,2.50230513,0.36621705,-1.48958901\H,0,2.5405457
 2,-2.3247139,-1.28441282\H,0,3.16393163,-1.10362199,0.00481089\H,0,1.9
 5560584,0.89966742,-1.24496011\H,0,1.46808342,0.42398294,0.82349944\H,
 0,-0.35073273,2.08327293,1.33181222\H,0,-1.95439918,1.95947167,0.60647
 315\H,0,-0.54706932,2.30865838,-0.41089152\H,0,-1.3180349,-1.27696039,
 -1.21309774\H,0,-1.04096834,0.31776752,-1.91627415\H,0,-2.49553726,0.0
 1356565,-0.95176941\H,0,-1.11244184,-1.61207233,1.30980273\H,0,-2.3174
 2052,-0.34152112,1.56616545\H,0,-0.74207904,-0.23812029,2.36030503\\Ve
 rsion=ES64L-G16RevC.01\HF=-310.064532\RMSD=3.755e-09\Dipole=-0.4320295
 ,0.0491387,0.6445201\Quadrupole=0.1812602,0.333453,-0.5147132,-0.73784
 21,2.5807357,0.9169113\PG=Unknown\\@
 The archive entry for this job was punched.


 KINETICS       FACT
 ---------  =  -------
 MECHANISM     FICTION
 Job cpu time:       0 days  0 hours 17 minutes 23.4 seconds.
 Elapsed time:       0 days  0 hours  1 minutes 13.5 seconds.
 File lengths (MBytes):  RWF=    323 Int=      0 D2E=      0 Chk=     11 Scr=      1
 Normal termination of Gaussian 16 at Wed Apr  9 19:21:46 2025.
 Initial command:
 /arc/software/Gaussian/g16.c01/l1.exe "/tmp/slurm/4883199/Gau-11006.inp" -scrdir="/tmp/slurm/4883199/"
 Entering Link 1 = /arc/software/Gaussian/g16.c01/l1.exe PID=     11290.
  
 Copyright (c) 1988-2019, Gaussian, Inc.  All Rights Reserved.
  
 This is part of the Gaussian(R) 16 program.  It is based on
 the Gaussian(R) 09 system (copyright 2009, Gaussian, Inc.),
 the Gaussian(R) 03 system (copyright 2003, Gaussian, Inc.),
 the Gaussian(R) 98 system (copyright 1998, Gaussian, Inc.),
 the Gaussian(R) 94 system (copyright 1995, Gaussian, Inc.),
 the Gaussian 92(TM) system (copyright 1992, Gaussian, Inc.),
 the Gaussian 90(TM) system (copyright 1990, Gaussian, Inc.),
 the Gaussian 88(TM) system (copyright 1988, Gaussian, Inc.),
 the Gaussian 86(TM) system (copyright 1986, Carnegie Mellon
 University), and the Gaussian 82(TM) system (copyright 1983,
 Carnegie Mellon University). Gaussian is a federally registered
 trademark of Gaussian, Inc.
  
 This software contains proprietary and confidential information,
 including trade secrets, belonging to Gaussian, Inc.
  
 This software is provided under written license and may be
 used, copied, transmitted, or stored only in accord with that
 written license.
  
 The following legend is applicable only to US Government
 contracts under FAR:
  
                    RESTRICTED RIGHTS LEGEND
  
 Use, reproduction and disclosure by the US Government is
 subject to restrictions as set forth in subparagraphs (a)
 and (c) of the Commercial Computer Software - Restricted
 Rights clause in FAR 52.227-19.
  
 Gaussian, Inc.
 340 Quinnipiac St., Bldg. 40, Wallingford CT 06492
  
  
 ---------------------------------------------------------------
 Warning -- This program may not be used in any manner that
 competes with the business of Gaussian, Inc. or will provide
 assistance to any competitor of Gaussian, Inc.  The licensee
 of this program is prohibited from giving any competitor of
 Gaussian, Inc. access to this program.  By using this program,
 the user acknowledges that Gaussian, Inc. is engaged in the
 business of creating and licensing software in the field of
 computational chemistry and represents and warrants to the
 licensee that it is not a competitor of Gaussian, Inc. and that
 it will not use this program in any manner prohibited above.
 ---------------------------------------------------------------
  

 Cite this work as:
 Gaussian 16, Revision C.01,
 M. J. Frisch, G. W. Trucks, H. B. Schlegel, G. E. Scuseria, 
 M. A. Robb, J. R. Cheeseman, G. Scalmani, V. Barone, 
 G. A. Petersson, H. Nakatsuji, X. Li, M. Caricato, A. V. Marenich, 
 J. Bloino, B. G. Janesko, R. Gomperts, B. Mennucci, H. P. Hratchian, 
 J. V. Ortiz, A. F. Izmaylov, J. L. Sonnenberg, D. Williams-Young, 
 F. Ding, F. Lipparini, F. Egidi, J. Goings, B. Peng, A. Petrone, 
 T. Henderson, D. Ranasinghe, V. G. Zakrzewski, J. Gao, N. Rega, 
 G. Zheng, W. Liang, M. Hada, M. Ehara, K. Toyota, R. Fukuda, 
 J. Hasegawa, M. Ishida, T. Nakajima, Y. Honda, O. Kitao, H. Nakai, 
 T. Vreven, K. Throssell, J. A. Montgomery, Jr., J. E. Peralta, 
 F. Ogliaro, M. J. Bearpark, J. J. Heyd, E. N. Brothers, K. N. Kudin, 
 V. N. Staroverov, T. A. Keith, R. Kobayashi, J. Normand, 
 K. Raghavachari, A. P. Rendell, J. C. Burant, S. S. Iyengar, 
 J. Tomasi, M. Cossi, J. M. Millam, M. Klene, C. Adamo, R. Cammi, 
 J. W. Ochterski, R. L. Martin, K. Morokuma, O. Farkas, 
 J. B. Foresman, and D. J. Fox, Gaussian, Inc., Wallingford CT, 2019.
 
 ******************************************
 Gaussian 16:  ES64L-G16RevC.01  3-Jul-2019
                 9-Apr-2025 
 ******************************************
 %nprocs=16
 Will use up to   16 processors via shared memory.
 %mem=30GB
 %chk=Grambow2020_wb97xd3_008659_reverse_mol1.chk
 ----------------------------------------------------------------------
 #t hf aug-cc-pvdz iop(5/13=1,5/36=2,99/5=2) pseudo=read geom=check gue
 ss=(read,tcheck) scf=(maxcycle=1)
 ----------------------------------------------------------------------
 -----
 title
 -----
 Structure from the checkpoint file:  "Grambow2020_wb97xd3_008659_reverse_mol1.chk"
 Charge =  0 Multiplicity = 1
 Z-Matrix found in chk file.
 C,0,2.42715231,-1.40575605,-0.73007756
 O,0,1.16804721,-1.08946058,-0.5056211
 C,0,0.77950752,-0.01659151,0.10578632
 C,0,-0.69702924,0.23487027,0.22789589
 C,0,-0.89654524,1.73677681,0.45053088
 C,0,-1.42915829,-0.20562184,-1.04057513
 C,0,-1.24914787,-0.53659063,1.43972857
 H,0,2.50230513,0.36621705,-1.48958901
 H,0,2.54054572,-2.3247139,-1.28441282
 H,0,3.16393163,-1.10362199,0.00481089
 H,0,1.95560584,0.89966742,-1.24496011
 H,0,1.46808342,0.42398294,0.82349944
 H,0,-0.35073273,2.08327293,1.33181222
 H,0,-1.95439918,1.95947167,0.60647315
 H,0,-0.54706932,2.30865838,-0.41089152
 H,0,-1.3180349,-1.27696039,-1.21309774
 H,0,-1.04096834,0.31776752,-1.91627415
 H,0,-2.49553726,0.01356565,-0.95176941
 H,0,-1.11244184,-1.61207233,1.30980273
 H,0,-2.31742052,-0.34152112,1.56616545
 H,0,-0.74207904,-0.23812029,2.36030503
 Recover connectivity data from disk.
                    Distance matrix (angstroms):
                    1          2          3          4          5
     1  C    0.000000
     2  O    1.317486   0.000000
     3  C    2.311532   1.294539   0.000000
     4  C    3.656484   2.402168   1.502766   0.000000
     5  C    4.724015   3.628276   2.449960   1.531371   0.000000
     6  C    4.050662   2.795143   2.495612   1.529400   2.505990
     7  C    4.356454   3.151648   2.482991   1.539001   2.504205
     8  H    1.929351   2.206226   2.379033   3.633558   4.146647
     9  H    1.079180   2.004026   3.218903   4.395502   5.596368
    10  H    1.083600   2.060169   2.622463   4.092474   4.975340
    11  H    2.408825   2.263515   2.011779   3.106080   3.422018
    12  H    2.584833   2.036442   1.087821   2.253491   2.730202
    13  H    4.913386   3.968513   2.681420   2.180629   1.092990
    14  H    5.684111   4.503600   3.410243   2.167614   1.092230
    15  H    4.769145   3.807599   2.726454   2.175117   1.091435
    16  H    3.778402   2.591579   2.779869   2.178932   3.468130
    17  H    4.050365   2.974892   2.741287   2.173162   2.763370
    18  H    5.128011   3.851956   3.441693   2.162225   2.737276
    19  H    4.090526   2.961337   2.752215   2.180433   3.464066
    20  H    5.377388   4.123130   3.439368   2.179188   2.753697
    21  H    4.577976   3.547801   2.728948   2.184701   2.751602
                    6          7          8          9         10
     6  C    0.000000
     7  C    2.508755   0.000000
     8  H    3.998127   4.844519   0.000000
     9  H    4.506502   4.998010   2.699013   0.000000
    10  H    4.795384   4.675017   2.198046   1.881960   0.000000
    11  H    3.566520   4.420502   0.802055   3.277247   2.652385
    12  H    3.502169   2.947166   2.534429   3.626128   2.424815
    13  H    3.468467   2.771729   4.364449   5.885106   4.926469
    14  H    2.770609   2.724339   5.176307   6.491088   5.995152
    15  H    2.737917   3.465999   3.772976   5.636004   5.058458
    16  H    1.090816   2.755064   4.167910   3.998940   4.647728
    17  H    1.091548   3.469297   3.569201   4.495464   4.836538
    18  H    1.092288   2.752348   5.039052   5.562404   5.847456
    19  H    2.757297   1.091893   4.981628   4.536753   4.499877
    20  H    2.757277   1.093273   5.750503   5.971489   5.750117
    21  H    3.469743   1.092549   5.070792   5.330428   4.642668
                   11         12         13         14         15
    11  H    0.000000
    12  H    2.177723   0.000000
    13  H    3.655116   2.513905   0.000000
    14  H    4.454114   3.757421   1.764423   0.000000
    15  H    2.990704   3.022675   1.768152   1.771310   0.000000
    16  H    3.931342   3.847518   4.324744   3.767000   3.754276
    17  H    3.125496   3.716582   3.760784   3.145442   2.544358
    18  H    4.547946   4.362374   3.754813   2.550980   3.058844
    19  H    4.716839   3.322818   3.773097   3.736240   4.318861
    20  H    5.263243   3.932886   3.130880   2.519397   3.750513
    21  H    4.644352   2.772178   2.569011   3.061871   3.768772
                   16         17         18         19         20
    16  H    0.000000
    17  H    1.764761   0.000000
    18  H    1.766426   1.771603   0.000000
    19  H    2.553350   3.759915   3.109720   0.000000
    20  H    3.098084   3.767144   2.549080   1.769745   0.000000
    21  H    3.765650   4.322901   3.756035   1.768748   1.767215
                   21
    21  H    0.000000
 Framework group  C1[X(C6H14O)]
 Deg. of freedom    57
                         Standard orientation:                         
 ---------------------------------------------------------------------
 Center     Atomic      Atomic             Coordinates (Angstroms)
 Number     Number       Type             X           Y           Z
 ---------------------------------------------------------------------
      1          6           0       -2.779991   -0.071887   -0.106049
      2          8           0       -1.503434   -0.322249    0.102492
      3          6           0       -0.529845    0.376290   -0.387406
      4          6           0        0.874352    0.001798   -0.004927
      5          6           0        1.758552    1.234222   -0.215677
      6          6           0        0.938455   -0.441562    1.457396
      7          6           0        1.365855   -1.138222   -0.914490
      8          1           0       -2.300157    1.696985    0.496652
      9          1           0       -3.435639   -0.750289    0.417903
     10          1           0       -3.063601    0.349592   -1.063186
     11          1           0       -1.531760    1.917187    0.430552
     12          1           0       -0.717518    0.906830   -1.318352
     13          1           0        1.699791    1.593231   -1.246351
     14          1           0        2.802942    0.991283   -0.007841
     15          1           0        1.456008    2.048929    0.444587
     16          1           0        0.330353   -1.330289    1.631336
     17          1           0        0.577756    0.347325    2.119991
     18          1           0        1.969006   -0.678300    1.731281
     19          1           0        0.746568   -2.028724   -0.789108
     20          1           0        2.398586   -1.404539   -0.674098
     21          1           0        1.330872   -0.845059   -1.966391
 ---------------------------------------------------------------------
 Rotational constants (GHZ):           4.1025706           1.5537563           1.5261458
 ======================================================================================================
                                       Pseudopotential Parameters
 ======================================================================================================
  Center     Atomic      Valence      Angular      Power
  Number     Number     Electrons     Momentum     of R      Exponent        Coefficient   SO-Coeffient
 ======================================================================================================
    1          6            6
                                      G and up 
                                                     0        0.0000010       -0.00286759    0.00000000
                                                     2        0.1200000        0.03193960    0.00000000
                                                     2        0.1600000       -0.04027782    0.00000000
                                                     2        0.2600000        0.24782456    0.00000000
                                                     2        0.4000000       -0.62266671    0.00000000
                                                     2        0.7000000        0.35695227    0.00000000
                                      S - G
                                                     0        0.0000010       -0.06602313    0.00000000
                                                     2        0.1200000        1.47277455    0.00000000
                                                     2        0.1600000       -4.06924166    0.00000000
                                                     2        0.3000000        5.02952802    0.00000000
                                                     2        0.7000000       -5.65856978    0.00000000
                                                     2        1.7000000        8.57604414    0.00000000
                                      P - G
                                                     0        0.0000010        0.49434425    0.00000000
                                                     2        0.1200000       -1.37391547    0.00000000
                                                     2        0.1600000        3.65411806    0.00000000
                                                     2        0.2800000       -7.36479843    0.00000000
                                                     2        0.6000000       17.22091285    0.00000000
                                                     2        1.1000000      -23.50107827    0.00000000
                                                     2        3.0000000       16.29464063    0.00000000
                                      D - G
                                                     0        0.0000010       -0.28693103    0.00000000
                                                     2        0.1200000        0.12273044    0.00000000
                                                     2        0.3000000       -0.43416384    0.00000000
                                                     2        0.7000000        2.23358493    0.00000000
                                      F - G
                                                     0        0.0000010        0.07263570    0.00000000
                                                     2        0.1400000       -0.76152861    0.00000000
                                                     2        0.2200000        1.98045593    0.00000000
                                                     2        0.4000000       -2.42426427    0.00000000
                                                     2        0.7000000        0.52335237    0.00000000
    2          8            8
                                      G and up 
                                                     0        0.0000010       -0.00165251    0.00000000
                                                     2        0.1200000       -0.10937202    0.00000000
                                                     2        0.1400000        0.35668905    0.00000000
                                                     2        0.1800000       -0.51696033    0.00000000
                                                     2        0.2400000        0.52446472    0.00000000
                                                     2        0.4000000       -0.07754493    0.00000000
                                                     2        0.8000000       -1.90560988    0.00000000
                                                     2        1.7000000        0.19857963    0.00000000
                                      S - G
                                                     0        0.0000010       -0.03845181    0.00000000
                                                     2        0.1400000        0.42024558    0.00000000
                                                     2        0.4000000       -4.10467779    0.00000000
                                                     2        1.3000000        9.99571838    0.00000000
                                      P - G
                                                     0        0.0000010        0.33206183    0.00000000
                                                     2        0.1200000       -0.18708141    0.00000000
                                                     2        0.2800000       -0.18179081    0.00000000
                                                     2        0.7000000        1.18820394    0.00000000
                                      D - G
                                                     0        0.0000010       -0.57891674    0.00000000
                                                     2        0.1200000        0.60487490    0.00000000
                                                     2        0.2400000       -0.24931464    0.00000000
                                                     2        0.3000000       -2.75054612    0.00000000
                                                     2        1.0000000       15.96776040    0.00000000
                                      F - G
                                                     0        0.0000010        0.37449041    0.00000000
                                                     2        0.1200000       -0.63373642    0.00000000
                                                     2        0.1400000       -0.08412804    0.00000000
                                                     2        0.2800000        2.62321406    0.00000000
                                                     2        0.6000000       -2.68223623    0.00000000
    3          6            6
                                      G and up 
                                                     0        0.0000010       -0.00286759    0.00000000
                                                     2        0.1200000        0.03193960    0.00000000
                                                     2        0.1600000       -0.04027782    0.00000000
                                                     2        0.2600000        0.24782456    0.00000000
                                                     2        0.4000000       -0.62266671    0.00000000
                                                     2        0.7000000        0.35695227    0.00000000
                                      S - G
                                                     0        0.0000010       -0.06602313    0.00000000
                                                     2        0.1200000        1.47277455    0.00000000
                                                     2        0.1600000       -4.06924166    0.00000000
                                                     2        0.3000000        5.02952802    0.00000000
                                                     2        0.7000000       -5.65856978    0.00000000
                                                     2        1.7000000        8.57604414    0.00000000
                                      P - G
                                                     0        0.0000010        0.49434425    0.00000000
                                                     2        0.1200000       -1.37391547    0.00000000
                                                     2        0.1600000        3.65411806    0.00000000
                                                     2        0.2800000       -7.36479843    0.00000000
                                                     2        0.6000000       17.22091285    0.00000000
                                                     2        1.1000000      -23.50107827    0.00000000
                                                     2        3.0000000       16.29464063    0.00000000
                                      D - G
                                                     0        0.0000010       -0.28693103    0.00000000
                                                     2        0.1200000        0.12273044    0.00000000
                                                     2        0.3000000       -0.43416384    0.00000000
                                                     2        0.7000000        2.23358493    0.00000000
                                      F - G
                                                     0        0.0000010        0.07263570    0.00000000
                                                     2        0.1400000       -0.76152861    0.00000000
                                                     2        0.2200000        1.98045593    0.00000000
                                                     2        0.4000000       -2.42426427    0.00000000
                                                     2        0.7000000        0.52335237    0.00000000
    4          6            6
                                      G and up 
                                                     0        0.0000010       -0.00286759    0.00000000
                                                     2        0.1200000        0.03193960    0.00000000
                                                     2        0.1600000       -0.04027782    0.00000000
                                                     2        0.2600000        0.24782456    0.00000000
                                                     2        0.4000000       -0.62266671    0.00000000
                                                     2        0.7000000        0.35695227    0.00000000
                                      S - G
                                                     0        0.0000010       -0.06602313    0.00000000
                                                     2        0.1200000        1.47277455    0.00000000
                                                     2        0.1600000       -4.06924166    0.00000000
                                                     2        0.3000000        5.02952802    0.00000000
                                                     2        0.7000000       -5.65856978    0.00000000
                                                     2        1.7000000        8.57604414    0.00000000
                                      P - G
                                                     0        0.0000010        0.49434425    0.00000000
                                                     2        0.1200000       -1.37391547    0.00000000
                                                     2        0.1600000        3.65411806    0.00000000
                                                     2        0.2800000       -7.36479843    0.00000000
                                                     2        0.6000000       17.22091285    0.00000000
                                                     2        1.1000000      -23.50107827    0.00000000
                                                     2        3.0000000       16.29464063    0.00000000
                                      D - G
                                                     0        0.0000010       -0.28693103    0.00000000
                                                     2        0.1200000        0.12273044    0.00000000
                                                     2        0.3000000       -0.43416384    0.00000000
                                                     2        0.7000000        2.23358493    0.00000000
                                      F - G
                                                     0        0.0000010        0.07263570    0.00000000
                                                     2        0.1400000       -0.76152861    0.00000000
                                                     2        0.2200000        1.98045593    0.00000000
                                                     2        0.4000000       -2.42426427    0.00000000
                                                     2        0.7000000        0.52335237    0.00000000
    5          6            6
                                      G and up 
                                                     0        0.0000010       -0.00286759    0.00000000
                                                     2        0.1200000        0.03193960    0.00000000
                                                     2        0.1600000       -0.04027782    0.00000000
                                                     2        0.2600000        0.24782456    0.00000000
                                                     2        0.4000000       -0.62266671    0.00000000
                                                     2        0.7000000        0.35695227    0.00000000
                                      S - G
                                                     0        0.0000010       -0.06602313    0.00000000
                                                     2        0.1200000        1.47277455    0.00000000
                                                     2        0.1600000       -4.06924166    0.00000000
                                                     2        0.3000000        5.02952802    0.00000000
                                                     2        0.7000000       -5.65856978    0.00000000
                                                     2        1.7000000        8.57604414    0.00000000
                                      P - G
                                                     0        0.0000010        0.49434425    0.00000000
                                                     2        0.1200000       -1.37391547    0.00000000
                                                     2        0.1600000        3.65411806    0.00000000
                                                     2        0.2800000       -7.36479843    0.00000000
                                                     2        0.6000000       17.22091285    0.00000000
                                                     2        1.1000000      -23.50107827    0.00000000
                                                     2        3.0000000       16.29464063    0.00000000
                                      D - G
                                                     0        0.0000010       -0.28693103    0.00000000
                                                     2        0.1200000        0.12273044    0.00000000
                                                     2        0.3000000       -0.43416384    0.00000000
                                                     2        0.7000000        2.23358493    0.00000000
                                      F - G
                                                     0        0.0000010        0.07263570    0.00000000
                                                     2        0.1400000       -0.76152861    0.00000000
                                                     2        0.2200000        1.98045593    0.00000000
                                                     2        0.4000000       -2.42426427    0.00000000
                                                     2        0.7000000        0.52335237    0.00000000
    6          6            6
                                      G and up 
                                                     0        0.0000010       -0.00286759    0.00000000
                                                     2        0.1200000        0.03193960    0.00000000
                                                     2        0.1600000       -0.04027782    0.00000000
                                                     2        0.2600000        0.24782456    0.00000000
                                                     2        0.4000000       -0.62266671    0.00000000
                                                     2        0.7000000        0.35695227    0.00000000
                                      S - G
                                                     0        0.0000010       -0.06602313    0.00000000
                                                     2        0.1200000        1.47277455    0.00000000
                                                     2        0.1600000       -4.06924166    0.00000000
                                                     2        0.3000000        5.02952802    0.00000000
                                                     2        0.7000000       -5.65856978    0.00000000
                                                     2        1.7000000        8.57604414    0.00000000
                                      P - G
                                                     0        0.0000010        0.49434425    0.00000000
                                                     2        0.1200000       -1.37391547    0.00000000
                                                     2        0.1600000        3.65411806    0.00000000
                                                     2        0.2800000       -7.36479843    0.00000000
                                                     2        0.6000000       17.22091285    0.00000000
                                                     2        1.1000000      -23.50107827    0.00000000
                                                     2        3.0000000       16.29464063    0.00000000
                                      D - G
                                                     0        0.0000010       -0.28693103    0.00000000
                                                     2        0.1200000        0.12273044    0.00000000
                                                     2        0.3000000       -0.43416384    0.00000000
                                                     2        0.7000000        2.23358493    0.00000000
                                      F - G
                                                     0        0.0000010        0.07263570    0.00000000
                                                     2        0.1400000       -0.76152861    0.00000000
                                                     2        0.2200000        1.98045593    0.00000000
                                                     2        0.4000000       -2.42426427    0.00000000
                                                     2        0.7000000        0.52335237    0.00000000
    7          6            6
                                      G and up 
                                                     0        0.0000010       -0.00286759    0.00000000
                                                     2        0.1200000        0.03193960    0.00000000
                                                     2        0.1600000       -0.04027782    0.00000000
                                                     2        0.2600000        0.24782456    0.00000000
                                                     2        0.4000000       -0.62266671    0.00000000
                                                     2        0.7000000        0.35695227    0.00000000
                                      S - G
                                                     0        0.0000010       -0.06602313    0.00000000
                                                     2        0.1200000        1.47277455    0.00000000
                                                     2        0.1600000       -4.06924166    0.00000000
                                                     2        0.3000000        5.02952802    0.00000000
                                                     2        0.7000000       -5.65856978    0.00000000
                                                     2        1.7000000        8.57604414    0.00000000
                                      P - G
                                                     0        0.0000010        0.49434425    0.00000000
                                                     2        0.1200000       -1.37391547    0.00000000
                                                     2        0.1600000        3.65411806    0.00000000
                                                     2        0.2800000       -7.36479843    0.00000000
                                                     2        0.6000000       17.22091285    0.00000000
                                                     2        1.1000000      -23.50107827    0.00000000
                                                     2        3.0000000       16.29464063    0.00000000
                                      D - G
                                                     0        0.0000010       -0.28693103    0.00000000
                                                     2        0.1200000        0.12273044    0.00000000
                                                     2        0.3000000       -0.43416384    0.00000000
                                                     2        0.7000000        2.23358493    0.00000000
                                      F - G
                                                     0        0.0000010        0.07263570    0.00000000
                                                     2        0.1400000       -0.76152861    0.00000000
                                                     2        0.2200000        1.98045593    0.00000000
                                                     2        0.4000000       -2.42426427    0.00000000
                                                     2        0.7000000        0.52335237    0.00000000
    8          1            1
                                      F and up 
                                                     0        0.0000010        0.00072061    0.00000000
                                                     2        0.1200000        0.03832357    0.00000000
                                                     2        0.1400000       -0.08683256    0.00000000
                                                     2        0.1800000        0.09312970    0.00000000
                                                     2        0.2800000       -0.02532572    0.00000000
                                                     2        0.4000000       -0.09430787    0.00000000
                                                     2        0.7000000        0.42710831    0.00000000
                                                     2        1.2000000       -2.11746981    0.00000000
                                      S - F
                                                     0        0.0000010        0.14449603    0.00000000
                                                     2        0.1200000       -0.56378993    0.00000000
                                                     2        0.1400000        0.63941249    0.00000000
                                                     2        0.2600000       -0.58461015    0.00000000
                                                     2        0.5000000        1.00157293    0.00000000
                                                     2        1.8000000       -0.14135838    0.00000000
                                      P - F
                                                     0        0.0000010       -0.09353646    0.00000000
                                                     2        0.1200000        0.31768975    0.00000000
                                                     2        0.2000000       -0.71747951    0.00000000
                                                     2        0.4000000        0.65752308    0.00000000
                                                     2        1.7000000        2.94052587    0.00000000
                                      D - F
                                                     0        0.0000010       -0.04491202    0.00000000
                                                     2        0.1200000       -0.02862031    0.00000000
                                                     2        0.1800000       -0.21515263    0.00000000
                                                     2        0.3000000        0.80560647    0.00000000
                                                     2        0.4000000        0.47351754    0.00000000
                                                     2        0.7000000       -4.57051794    0.00000000
                                                     2        1.6000000       18.53737826    0.00000000
    9          1            1
                                      F and up 
                                                     0        0.0000010        0.00072061    0.00000000
                                                     2        0.1200000        0.03832357    0.00000000
                                                     2        0.1400000       -0.08683256    0.00000000
                                                     2        0.1800000        0.09312970    0.00000000
                                                     2        0.2800000       -0.02532572    0.00000000
                                                     2        0.4000000       -0.09430787    0.00000000
                                                     2        0.7000000        0.42710831    0.00000000
                                                     2        1.2000000       -2.11746981    0.00000000
                                      S - F
                                                     0        0.0000010        0.14449603    0.00000000
                                                     2        0.1200000       -0.56378993    0.00000000
                                                     2        0.1400000        0.63941249    0.00000000
                                                     2        0.2600000       -0.58461015    0.00000000
                                                     2        0.5000000        1.00157293    0.00000000
                                                     2        1.8000000       -0.14135838    0.00000000
                                      P - F
                                                     0        0.0000010       -0.09353646    0.00000000
                                                     2        0.1200000        0.31768975    0.00000000
                                                     2        0.2000000       -0.71747951    0.00000000
                                                     2        0.4000000        0.65752308    0.00000000
                                                     2        1.7000000        2.94052587    0.00000000
                                      D - F
                                                     0        0.0000010       -0.04491202    0.00000000
                                                     2        0.1200000       -0.02862031    0.00000000
                                                     2        0.1800000       -0.21515263    0.00000000
                                                     2        0.3000000        0.80560647    0.00000000
                                                     2        0.4000000        0.47351754    0.00000000
                                                     2        0.7000000       -4.57051794    0.00000000
                                                     2        1.6000000       18.53737826    0.00000000
   10          1            1
                                      F and up 
                                                     0        0.0000010        0.00072061    0.00000000
                                                     2        0.1200000        0.03832357    0.00000000
                                                     2        0.1400000       -0.08683256    0.00000000
                                                     2        0.1800000        0.09312970    0.00000000
                                                     2        0.2800000       -0.02532572    0.00000000
                                                     2        0.4000000       -0.09430787    0.00000000
                                                     2        0.7000000        0.42710831    0.00000000
                                                     2        1.2000000       -2.11746981    0.00000000
                                      S - F
                                                     0        0.0000010        0.14449603    0.00000000
                                                     2        0.1200000       -0.56378993    0.00000000
                                                     2        0.1400000        0.63941249    0.00000000
                                                     2        0.2600000       -0.58461015    0.00000000
                                                     2        0.5000000        1.00157293    0.00000000
                                                     2        1.8000000       -0.14135838    0.00000000
                                      P - F
                                                     0        0.0000010       -0.09353646    0.00000000
                                                     2        0.1200000        0.31768975    0.00000000
                                                     2        0.2000000       -0.71747951    0.00000000
                                                     2        0.4000000        0.65752308    0.00000000
                                                     2        1.7000000        2.94052587    0.00000000
                                      D - F
                                                     0        0.0000010       -0.04491202    0.00000000
                                                     2        0.1200000       -0.02862031    0.00000000
                                                     2        0.1800000       -0.21515263    0.00000000
                                                     2        0.3000000        0.80560647    0.00000000
                                                     2        0.4000000        0.47351754    0.00000000
                                                     2        0.7000000       -4.57051794    0.00000000
                                                     2        1.6000000       18.53737826    0.00000000
   11          1            1
                                      F and up 
                                                     0        0.0000010        0.00072061    0.00000000
                                                     2        0.1200000        0.03832357    0.00000000
                                                     2        0.1400000       -0.08683256    0.00000000
                                                     2        0.1800000        0.09312970    0.00000000
                                                     2        0.2800000       -0.02532572    0.00000000
                                                     2        0.4000000       -0.09430787    0.00000000
                                                     2        0.7000000        0.42710831    0.00000000
                                                     2        1.2000000       -2.11746981    0.00000000
                                      S - F
                                                     0        0.0000010        0.14449603    0.00000000
                                                     2        0.1200000       -0.56378993    0.00000000
                                                     2        0.1400000        0.63941249    0.00000000
                                                     2        0.2600000       -0.58461015    0.00000000
                                                     2        0.5000000        1.00157293    0.00000000
                                                     2        1.8000000       -0.14135838    0.00000000
                                      P - F
                                                     0        0.0000010       -0.09353646    0.00000000
                                                     2        0.1200000        0.31768975    0.00000000
                                                     2        0.2000000       -0.71747951    0.00000000
                                                     2        0.4000000        0.65752308    0.00000000
                                                     2        1.7000000        2.94052587    0.00000000
                                      D - F
                                                     0        0.0000010       -0.04491202    0.00000000
                                                     2        0.1200000       -0.02862031    0.00000000
                                                     2        0.1800000       -0.21515263    0.00000000
                                                     2        0.3000000        0.80560647    0.00000000
                                                     2        0.4000000        0.47351754    0.00000000
                                                     2        0.7000000       -4.57051794    0.00000000
                                                     2        1.6000000       18.53737826    0.00000000
   12          1            1
                                      F and up 
                                                     0        0.0000010        0.00072061    0.00000000
                                                     2        0.1200000        0.03832357    0.00000000
                                                     2        0.1400000       -0.08683256    0.00000000
                                                     2        0.1800000        0.09312970    0.00000000
                                                     2        0.2800000       -0.02532572    0.00000000
                                                     2        0.4000000       -0.09430787    0.00000000
                                                     2        0.7000000        0.42710831    0.00000000
                                                     2        1.2000000       -2.11746981    0.00000000
                                      S - F
                                                     0        0.0000010        0.14449603    0.00000000
                                                     2        0.1200000       -0.56378993    0.00000000
                                                     2        0.1400000        0.63941249    0.00000000
                                                     2        0.2600000       -0.58461015    0.00000000
                                                     2        0.5000000        1.00157293    0.00000000
                                                     2        1.8000000       -0.14135838    0.00000000
                                      P - F
                                                     0        0.0000010       -0.09353646    0.00000000
                                                     2        0.1200000        0.31768975    0.00000000
                                                     2        0.2000000       -0.71747951    0.00000000
                                                     2        0.4000000        0.65752308    0.00000000
                                                     2        1.7000000        2.94052587    0.00000000
                                      D - F
                                                     0        0.0000010       -0.04491202    0.00000000
                                                     2        0.1200000       -0.02862031    0.00000000
                                                     2        0.1800000       -0.21515263    0.00000000
                                                     2        0.3000000        0.80560647    0.00000000
                                                     2        0.4000000        0.47351754    0.00000000
                                                     2        0.7000000       -4.57051794    0.00000000
                                                     2        1.6000000       18.53737826    0.00000000
   13          1            1
                                      F and up 
                                                     0        0.0000010        0.00072061    0.00000000
                                                     2        0.1200000        0.03832357    0.00000000
                                                     2        0.1400000       -0.08683256    0.00000000
                                                     2        0.1800000        0.09312970    0.00000000
                                                     2        0.2800000       -0.02532572    0.00000000
                                                     2        0.4000000       -0.09430787    0.00000000
                                                     2        0.7000000        0.42710831    0.00000000
                                                     2        1.2000000       -2.11746981    0.00000000
                                      S - F
                                                     0        0.0000010        0.14449603    0.00000000
                                                     2        0.1200000       -0.56378993    0.00000000
                                                     2        0.1400000        0.63941249    0.00000000
                                                     2        0.2600000       -0.58461015    0.00000000
                                                     2        0.5000000        1.00157293    0.00000000
                                                     2        1.8000000       -0.14135838    0.00000000
                                      P - F
                                                     0        0.0000010       -0.09353646    0.00000000
                                                     2        0.1200000        0.31768975    0.00000000
                                                     2        0.2000000       -0.71747951    0.00000000
                                                     2        0.4000000        0.65752308    0.00000000
                                                     2        1.7000000        2.94052587    0.00000000
                                      D - F
                                                     0        0.0000010       -0.04491202    0.00000000
                                                     2        0.1200000       -0.02862031    0.00000000
                                                     2        0.1800000       -0.21515263    0.00000000
                                                     2        0.3000000        0.80560647    0.00000000
                                                     2        0.4000000        0.47351754    0.00000000
                                                     2        0.7000000       -4.57051794    0.00000000
                                                     2        1.6000000       18.53737826    0.00000000
   14          1            1
                                      F and up 
                                                     0        0.0000010        0.00072061    0.00000000
                                                     2        0.1200000        0.03832357    0.00000000
                                                     2        0.1400000       -0.08683256    0.00000000
                                                     2        0.1800000        0.09312970    0.00000000
                                                     2        0.2800000       -0.02532572    0.00000000
                                                     2        0.4000000       -0.09430787    0.00000000
                                                     2        0.7000000        0.42710831    0.00000000
                                                     2        1.2000000       -2.11746981    0.00000000
                                      S - F
                                                     0        0.0000010        0.14449603    0.00000000
                                                     2        0.1200000       -0.56378993    0.00000000
                                                     2        0.1400000        0.63941249    0.00000000
                                                     2        0.2600000       -0.58461015    0.00000000
                                                     2        0.5000000        1.00157293    0.00000000
                                                     2        1.8000000       -0.14135838    0.00000000
                                      P - F
                                                     0        0.0000010       -0.09353646    0.00000000
                                                     2        0.1200000        0.31768975    0.00000000
                                                     2        0.2000000       -0.71747951    0.00000000
                                                     2        0.4000000        0.65752308    0.00000000
                                                     2        1.7000000        2.94052587    0.00000000
                                      D - F
                                                     0        0.0000010       -0.04491202    0.00000000
                                                     2        0.1200000       -0.02862031    0.00000000
                                                     2        0.1800000       -0.21515263    0.00000000
                                                     2        0.3000000        0.80560647    0.00000000
                                                     2        0.4000000        0.47351754    0.00000000
                                                     2        0.7000000       -4.57051794    0.00000000
                                                     2        1.6000000       18.53737826    0.00000000
   15          1            1
                                      F and up 
                                                     0        0.0000010        0.00072061    0.00000000
                                                     2        0.1200000        0.03832357    0.00000000
                                                     2        0.1400000       -0.08683256    0.00000000
                                                     2        0.1800000        0.09312970    0.00000000
                                                     2        0.2800000       -0.02532572    0.00000000
                                                     2        0.4000000       -0.09430787    0.00000000
                                                     2        0.7000000        0.42710831    0.00000000
                                                     2        1.2000000       -2.11746981    0.00000000
                                      S - F
                                                     0        0.0000010        0.14449603    0.00000000
                                                     2        0.1200000       -0.56378993    0.00000000
                                                     2        0.1400000        0.63941249    0.00000000
                                                     2        0.2600000       -0.58461015    0.00000000
                                                     2        0.5000000        1.00157293    0.00000000
                                                     2        1.8000000       -0.14135838    0.00000000
                                      P - F
                                                     0        0.0000010       -0.09353646    0.00000000
                                                     2        0.1200000        0.31768975    0.00000000
[...]
                                                     2        0.4000000        0.65752308    0.00000000
                                                     2        1.7000000        2.94052587    0.00000000
                                      D - F
                                                     0        0.0000010       -0.04491202    0.00000000
                                                     2        0.1200000       -0.02862031    0.00000000
                                                     2        0.1800000       -0.21515263    0.00000000
                                                     2        0.3000000        0.80560647    0.00000000
                                                     2        0.4000000        0.47351754    0.00000000
                                                     2        0.7000000       -4.57051794    0.00000000
                                                     2        1.6000000       18.53737826    0.00000000
   19          1            1
                                      F and up 
                                                     0        0.0000010        0.00072061    0.00000000
                                                     2        0.1200000        0.03832357    0.00000000
                                                     2        0.1400000       -0.08683256    0.00000000
                                                     2        0.1800000        0.09312970    0.00000000
                                                     2        0.2800000       -0.02532572    0.00000000
                                                     2        0.4000000       -0.09430787    0.00000000
                                                     2        0.7000000        0.42710831    0.00000000
                                                     2        1.2000000       -2.11746981    0.00000000
                                      S - F
                                                     0        0.0000010        0.14449603    0.00000000
                                                     2        0.1200000       -0.56378993    0.00000000
                                                     2        0.1400000        0.63941249    0.00000000
                                                     2        0.2600000       -0.58461015    0.00000000
                                                     2        0.5000000        1.00157293    0.00000000
                                                     2        1.8000000       -0.14135838    0.00000000
                                      P - F
                                                     0        0.0000010       -0.09353646    0.00000000
                                                     2        0.1200000        0.31768975    0.00000000
                                                     2        0.2000000       -0.71747951    0.00000000
                                                     2        0.4000000        0.65752308    0.00000000
                                                     2        1.7000000        2.94052587    0.00000000
                                      D - F
                                                     0        0.0000010       -0.04491202    0.00000000
                                                     2        0.1200000       -0.02862031    0.00000000
                                                     2        0.1800000       -0.21515263    0.00000000
                                                     2        0.3000000        0.80560647    0.00000000
                                                     2        0.4000000        0.47351754    0.00000000
                                                     2        0.7000000       -4.57051794    0.00000000
                                                     2        1.6000000       18.53737826    0.00000000
   20          1            1
                                      F and up 
                                                     0        0.0000010        0.00072061    0.00000000
                                                     2        0.1200000        0.03832357    0.00000000
                                                     2        0.1400000       -0.08683256    0.00000000
                                                     2        0.1800000        0.09312970    0.00000000
                                                     2        0.2800000       -0.02532572    0.00000000
                                                     2        0.4000000       -0.09430787    0.00000000
                                                     2        0.7000000        0.42710831    0.00000000
                                                     2        1.2000000       -2.11746981    0.00000000
                                      S - F
                                                     0        0.0000010        0.14449603    0.00000000
                                                     2        0.1200000       -0.56378993    0.00000000
                                                     2        0.1400000        0.63941249    0.00000000
                                                     2        0.2600000       -0.58461015    0.00000000
                                                     2        0.5000000        1.00157293    0.00000000
                                                     2        1.8000000       -0.14135838    0.00000000
                                      P - F
                                                     0        0.0000010       -0.09353646    0.00000000
                                                     2        0.1200000        0.31768975    0.00000000
                                                     2        0.2000000       -0.71747951    0.00000000
                                                     2        0.4000000        0.65752308    0.00000000
                                                     2        1.7000000        2.94052587    0.00000000
                                      D - F
                                                     0        0.0000010       -0.04491202    0.00000000
                                                     2        0.1200000       -0.02862031    0.00000000
                                                     2        0.1800000       -0.21515263    0.00000000
                                                     2        0.3000000        0.80560647    0.00000000
                                                     2        0.4000000        0.47351754    0.00000000
                                                     2        0.7000000       -4.57051794    0.00000000
                                                     2        1.6000000       18.53737826    0.00000000
   21          1            1
                                      F and up 
                                                     0        0.0000010        0.00072061    0.00000000
                                                     2        0.1200000        0.03832357    0.00000000
                                                     2        0.1400000       -0.08683256    0.00000000
                                                     2        0.1800000        0.09312970    0.00000000
                                                     2        0.2800000       -0.02532572    0.00000000
                                                     2        0.4000000       -0.09430787    0.00000000
                                                     2        0.7000000        0.42710831    0.00000000
                                                     2        1.2000000       -2.11746981    0.00000000
                                      S - F
                                                     0        0.0000010        0.14449603    0.00000000
                                                     2        0.1200000       -0.56378993    0.00000000
                                                     2        0.1400000        0.63941249    0.00000000
                                                     2        0.2600000       -0.58461015    0.00000000
                                                     2        0.5000000        1.00157293    0.00000000
                                                     2        1.8000000       -0.14135838    0.00000000
                                      P - F
                                                     0        0.0000010       -0.09353646    0.00000000
                                                     2        0.1200000        0.31768975    0.00000000
                                                     2        0.2000000       -0.71747951    0.00000000
                                                     2        0.4000000        0.65752308    0.00000000
                                                     2        1.7000000        2.94052587    0.00000000
                                      D - F
                                                     0        0.0000010       -0.04491202    0.00000000
                                                     2        0.1200000       -0.02862031    0.00000000
                                                     2        0.1800000       -0.21515263    0.00000000
                                                     2        0.3000000        0.80560647    0.00000000
                                                     2        0.4000000        0.47351754    0.00000000
                                                     2        0.7000000       -4.57051794    0.00000000
                                                     2        1.6000000       18.53737826    0.00000000
 ======================================================================================================
   287 basis functions,   455 primitive gaussians,   301 cartesian basis functions
    29 alpha electrons       29 beta electrons
       nuclear repulsion energy       341.2842227087 Hartrees.
 NAtoms=   21 NActive=   21 NUniq=   21 SFac= 1.00D+00 NAtFMM=   60 NAOKFM=F Big=F
   1 Symmetry operations used in ECPInt.
 ECPInt:  NShTT=    8911 NPrTT=   34027 LenC2=    8903 LenP2D=   27792.
 LDataN:  DoStor=T MaxTD1= 6 Len=  172
 Initial guess from the checkpoint file:  "Grambow2020_wb97xd3_008659_reverse_mol1.chk"
 B after Tr=     0.210858    0.200621   -0.038528
         Rot=   -0.165643    0.214297    0.960656   -0.061475 Ang= 199.07 deg.
 >>>>>>>>>> Convergence criterion not met.
 SCF Done:  E(RHF) =  -311.649173495     A.U. after    2 cycles
            NFock=  1  Conv=0.64D+00     -V/T= 2.0164

 **********************************************************************

            Population analysis using the SCF Density.

 **********************************************************************

 Orbital symmetries:
       Occupied  (A) (A) (A) (A) (A) (A) (A) (A) (A) (A) (A) (A)
                 (A) (A) (A) (A) (A) (A) (A) (A) (A) (A) (A) (A)
                 (A) (A) (A) (A) (A)
       Virtual   (A) (A) (A) (A) (A) (A) (A) (A) (A) (A) (A) (A)
                 (A) (A) (A) (A) (A) (A) (A) (A) (A) (A) (A) (A)
                 (A) (A) (A) (A) (A) (A) (A) (A) (A) (A) (A) (A)
                 (A) (A) (A) (A) (A) (A) (A) (A) (A) (A) (A) (A)
                 (A) (A) (A) (A) (A) (A) (A) (A) (A) (A) (A) (A)
                 (A) (A) (A) (A) (A) (A) (A) (A) (A) (A) (A) (A)
                 (A) (A) (A) (A) (A) (A) (A) (A) (A) (A) (A) (A)
                 (A) (A) (A) (A) (A) (A) (A) (A) (A) (A) (A) (A)
                 (A) (A) (A) (A) (A) (A) (A) (A) (A) (A) (A) (A)
                 (A) (A) (A) (A) (A) (A) (A) (A) (A) (A) (A) (A)
                 (A) (A) (A) (A) (A) (A) (A) (A) (A) (A) (A) (A)
                 (A) (A) (A) (A) (A) (A) (A) (A) (A) (A) (A) (A)
                 (A) (A) (A) (A) (A) (A) (A) (A) (A) (A) (A) (A)
                 (A) (A) (A) (A) (A) (A) (A) (A) (A) (A) (A) (A)
                 (A) (A) (A) (A) (A) (A) (A) (A) (A) (A) (A) (A)
                 (A) (A) (A) (A) (A) (A) (A) (A) (A) (A) (A) (A)
                 (A) (A) (A) (A) (A) (A) (A) (A) (A) (A) (A) (A)
                 (A) (A) (A) (A) (A) (A) (A) (A) (A) (A) (A) (A)
                 (A) (A) (A) (A) (A) (A) (A) (A) (A) (A) (A) (A)
                 (A) (A) (A) (A) (A) (A) (A) (A) (A) (A) (A) (A)
                 (A) (A) (A) (A) (A) (A) (A) (A) (A) (A) (A) (A)
                 (A) (A) (A) (A) (A) (A)
 The electronic state is 1-A.
 Alpha  occ. eigenvalues --  -21.16027 -11.47612 -11.41960 -11.39316 -11.39249
 Alpha  occ. eigenvalues --  -11.39160 -11.35570  -1.86653  -1.28974  -1.01808
 Alpha  occ. eigenvalues --   -1.01078  -1.00988  -0.87512  -0.79224  -0.67736
 Alpha  occ. eigenvalues --   -0.65570  -0.64628  -0.60354  -0.60203  -0.59185
 Alpha  occ. eigenvalues --   -0.54594  -0.53464  -0.51501  -0.47049  -0.45737
 Alpha  occ. eigenvalues --   -0.44037  -0.43733  -0.39941  -0.26850
 Alpha virt. eigenvalues --    0.03943   0.04912   0.05081   0.05368   0.05534
 Alpha virt. eigenvalues --    0.05717   0.06057   0.06423   0.07330   0.08089
 Alpha virt. eigenvalues --    0.08686   0.09094   0.09373   0.11012   0.12152
 Alpha virt. eigenvalues --    0.12220   0.13506   0.14164   0.14758   0.15163
 Alpha virt. eigenvalues --    0.16451   0.16561   0.17462   0.17785   0.18359
 Alpha virt. eigenvalues --    0.19152   0.19465   0.19576   0.19774   0.20502
 Alpha virt. eigenvalues --    0.20940   0.21111   0.21826   0.22071   0.22850
 Alpha virt. eigenvalues --    0.22909   0.24748   0.26198   0.26910   0.27608
 Alpha virt. eigenvalues --    0.29590   0.31222   0.31955   0.32883   0.34300
 Alpha virt. eigenvalues --    0.34462   0.35115   0.35930   0.36620   0.37528
 Alpha virt. eigenvalues --    0.39777   0.39932   0.41011   0.41894   0.42490
 Alpha virt. eigenvalues --    0.43425   0.43929   0.44261   0.44997   0.45830
 Alpha virt. eigenvalues --    0.46021   0.46788   0.47580   0.47684   0.48404
 Alpha virt. eigenvalues --    0.49204   0.49793   0.50095   0.51137   0.51338
 Alpha virt. eigenvalues --    0.51550   0.52596   0.53801   0.54204   0.54783
 Alpha virt. eigenvalues --    0.56018   0.56765   0.57640   0.58264   0.59365
 Alpha virt. eigenvalues --    0.60344   0.60525   0.61364   0.62283   0.63562
 Alpha virt. eigenvalues --    0.63963   0.64685   0.65395   0.65655   0.66532
 Alpha virt. eigenvalues --    0.67174   0.68158   0.68424   0.69437   0.70293
 Alpha virt. eigenvalues --    0.71264   0.72306   0.73134   0.73920   0.74160
 Alpha virt. eigenvalues --    0.75125   0.75853   0.76827   0.78172   0.78423
 Alpha virt. eigenvalues --    0.79648   0.80055   0.81130   0.81750   0.82811
 Alpha virt. eigenvalues --    0.84202   0.84870   0.85442   0.85869   0.86473
 Alpha virt. eigenvalues --    0.87214   0.89612   0.90343   0.91744   0.92020
 Alpha virt. eigenvalues --    0.92618   0.93498   0.94846   0.95803   0.96525
 Alpha virt. eigenvalues --    0.97087   1.00291   1.01057   1.04231   1.05621
 Alpha virt. eigenvalues --    1.07977   1.09120   1.12026   1.14911   1.15880
 Alpha virt. eigenvalues --    1.18507   1.20549   1.24674   1.24848   1.28130
 Alpha virt. eigenvalues --    1.29037   1.30893   1.33469   1.39355   1.41159
 Alpha virt. eigenvalues --    1.43050   1.45037   1.45965   1.48777   1.52426
 Alpha virt. eigenvalues --    1.53560   1.55487   1.56933   1.58326   1.66215
 Alpha virt. eigenvalues --    1.67023   1.68711   1.72929   1.79131   1.80841
 Alpha virt. eigenvalues --    1.83060   1.83957   1.85588   1.87054   1.90684
 Alpha virt. eigenvalues --    1.91096   1.93602   1.93827   1.95832   1.96323
 Alpha virt. eigenvalues --    1.96676   1.97382   1.98273   1.99754   2.01239
 Alpha virt. eigenvalues --    2.04640   2.05831   2.06762   2.09637   2.10536
 Alpha virt. eigenvalues --    2.12684   2.14412   2.16789   2.17569   2.19510
 Alpha virt. eigenvalues --    2.20210   2.21427   2.23806   2.25379   2.27123
 Alpha virt. eigenvalues --    2.29007   2.32214   2.36557   2.37158   2.38517
 Alpha virt. eigenvalues --    2.41044   2.42577   2.45322   2.46668   2.49587
 Alpha virt. eigenvalues --    2.52414   2.54016   2.55283   2.57268   2.59328
 Alpha virt. eigenvalues --    2.59706   2.60404   2.64004   2.65588   2.67955
 Alpha virt. eigenvalues --    2.70907   2.72112   2.73584   2.75156   2.75459
 Alpha virt. eigenvalues --    2.76091   2.81675   2.83247   2.84594   2.87044
 Alpha virt. eigenvalues --    2.90200   2.92887   2.95636   2.95947   2.98097
 Alpha virt. eigenvalues --    3.02600   3.03585   3.05302   3.06539   3.09996
 Alpha virt. eigenvalues --    3.11045   3.14164   3.18595   3.24091   3.29951
 Alpha virt. eigenvalues --    3.30876   3.34752   3.39174   3.45972   3.48387
 Alpha virt. eigenvalues --    3.51296   3.63911   3.73597   3.77568   3.79483
 Alpha virt. eigenvalues --    3.86979   3.90757   3.94993   3.98972   4.03046
 Alpha virt. eigenvalues --    4.06309   4.10799   4.41814   6.04886   6.11944
 Alpha virt. eigenvalues --    6.19989   6.43166   6.52811
          Condensed to atoms (all electrons):
 Mulliken charges:
               1
     1  C   -2.377308
     2  O   -3.998360
     3  C    1.164777
     4  C    3.143389
     5  C   -4.383719
     6  C   -4.906449
     7  C   -4.543284
     8  H    0.571341
     9  H    1.575084
    10  H    1.373964
    11  H   -0.702807
    12  H    1.816360
    13  H    1.256206
    14  H    1.186861
    15  H    1.338272
    16  H    1.368153
    17  H    1.254180
    18  H    1.146238
    19  H    1.255414
    20  H    1.233781
    21  H    1.227907
 Sum of Mulliken charges =  -0.00000
 Mulliken charges with hydrogens summed into heavy atoms:
               1
     1  C    1.143081
     2  O   -3.998360
     3  C    2.278329
     4  C    3.143389
     5  C   -0.602380
     6  C   -1.137877
     7  C   -0.826183
 Electronic spatial extent (au):  <R**2>=           1005.7478
 Charge=             -0.0000 electrons
 Dipole moment (field-independent basis, Debye):
    X=              0.9782    Y=             -0.9059    Z=             -0.6818  Tot=              1.4975

 Test job not archived.
 1\1\GINC-SE212\SP\RHF\Aug-CC-pVDZ\C6H14O1\OHZDE\09-Apr-2025\0\\#t hf a
 ug-cc-pvdz iop(5/13=1,5/36=2,99/5=2) pseudo=read geom=check guess=(rea
 d,tcheck) scf=(maxcycle=1)\\title\\0,1\C,0,2.42715231,-1.40575605,-0.7
 3007756\O,0,1.16804721,-1.08946058,-0.5056211\C,0,0.77950752,-0.016591
 51,0.10578632\C,0,-0.69702924,0.23487027,0.22789589\C,0,-0.89654524,1.
 73677681,0.45053088\C,0,-1.42915829,-0.20562184,-1.04057513\C,0,-1.249
 14787,-0.53659063,1.43972857\H,0,2.50230513,0.36621705,-1.48958901\H,0
 ,2.54054572,-2.3247139,-1.28441282\H,0,3.16393163,-1.10362199,0.004810
 89\H,0,1.95560584,0.89966742,-1.24496011\H,0,1.46808342,0.42398294,0.8
 2349944\H,0,-0.35073273,2.08327293,1.33181222\H,0,-1.95439918,1.959471
 67,0.60647315\H,0,-0.54706932,2.30865838,-0.41089152\H,0,-1.3180349,-1
 .27696039,-1.21309774\H,0,-1.04096834,0.31776752,-1.91627415\H,0,-2.49
 553726,0.01356565,-0.95176941\H,0,-1.11244184,-1.61207233,1.30980273\H
 ,0,-2.31742052,-0.34152112,1.56616545\H,0,-0.74207904,-0.23812029,2.36
 030503\\Version=ES64L-G16RevC.01\State=1-A\HF=-311.6491735\RMSD=6.390e
 -01\Dipole=-0.3754346,-0.142031,0.4312519\Quadrupole=-0.1556297,0.5705
 72,-0.4149424,-1.1803669,2.1202693,1.1931281\PG=C01 [X(C6H14O1)]\\@


 WE HAVE LEARNED THAT NOTHING IS SIMPLE AND
 RATIONAL EXCEPT WHAT WE OURSELVES HAVE INVENTED;
 THAT GOD THINKS IN TERMS NEITHER OF EUCLID OR RIEMANN; THAT SCIENCE HAS "EXPLAINED" NOTHING;
 THAT THE MORE WE KNOW THE MORE FANTASTIC THE WORLD BECOMES
 AND THE PROFOUNDER THE SURROUNDING DARKNESS.
   --  ALDOUS HUXLEY
 Job cpu time:       0 days  0 hours  1 minutes 56.6 seconds.
 Elapsed time:       0 days  0 hours  0 minutes  8.6 seconds.
 File lengths (MBytes):  RWF=     14 Int=      0 D2E=      0 Chk=     11 Scr=      1
 Normal termination of Gaussian 16 at Wed Apr  9 19:21:55 2025.
