 Entering Gaussian System, Link 0=g16
 Input=Grambow2020_b97d3_006691_reverse_mol2.gjf
 Output=Grambow2020_b97d3_006691_reverse_mol2.log
 Initial command:
 /arc/software/Gaussian/g16.c01/l1.exe "/tmp/slurm/4861353/Gau-1736883.inp" -scrdir="/tmp/slurm/4861353/"
 Entering Link 1 = /arc/software/Gaussian/g16.c01/l1.exe PID=   1736884.
  
 Copyright (c) 1988-2019, Gaussian, Inc.  All Rights Reserved.
  
 This is part of the Gaussian(R) 16 program.  It is based on
 the Gaussian(R) 09 system (copyright 2009, Gaussian, Inc.),
 the Gaussian(R) 03 system (copyright 2003, Gaussian, Inc.),
 the Gaussian(R) 98 system (copyright 1998, Gaussian, Inc.),
 the Gaussian(R) 94 system (copyright 1995, Gaussian, Inc.),
 the Gaussian 92(TM) system (copyright 1992, Gaussian, Inc.),
 the Gaussian 90(TM) system (copyright 1990, Gaussian, Inc.),
 the Gaussian 88(TM) system (copyright 1988, Gaussian, Inc.),
 the Gaussian 86(TM) system (copyright 1986, Carnegie Mellon
 University), and the Gaussian 82(TM) system (copyright 1983,
 Carnegie Mellon University). Gaussian is a federally registered
 trademark of Gaussian, Inc.
  
 This software contains proprietary and confidential information,
 including trade secrets, belonging to Gaussian, Inc.
  
 This software is provided under written license and may be
 used, copied, transmitted, or stored only in accord with that
 written license.
  
 The following legend is applicable only to US Government
 contracts under FAR:
  
                    RESTRICTED RIGHTS LEGEND
  
 Use, reproduction and disclosure by the US Government is
 subject to restrictions as set forth in subparagraphs (a)
 and (c) of the Commercial Computer Software - Restricted
 Rights clause in FAR 52.227-19.
  
 Gaussian, Inc.
 340 Quinnipiac St., Bldg. 40, Wallingford CT 06492
  
  
 ---------------------------------------------------------------
 Warning -- This program may not be used in any manner that
 competes with the business of Gaussian, Inc. or will provide
 assistance to any competitor of Gaussian, Inc.  The licensee
 of this program is prohibited from giving any competitor of
 Gaussian, Inc. access to this program.  By using this program,
 the user acknowledges that Gaussian, Inc. is engaged in the
 business of creating and licensing software in the field of
 computational chemistry and represents and warrants to the
 licensee that it is not a competitor of Gaussian, Inc. and that
 it will not use this program in any manner prohibited above.
 ---------------------------------------------------------------
  

 Cite this work as:
 Gaussian 16, Revision C.01,
 M. J. Frisch, G. W. Trucks, H. B. Schlegel, G. E. Scuseria, 
 M. A. Robb, J. R. Cheeseman, G. Scalmani, V. Barone, 
 G. A. Petersson, H. Nakatsuji, X. Li, M. Caricato, A. V. Marenich, 
 J. Bloino, B. G. Janesko, R. Gomperts, B. Mennucci, H. P. Hratchian, 
 J. V. Ortiz, A. F. Izmaylov, J. L. Sonnenberg, D. Williams-Young, 
 F. Ding, F. Lipparini, F. Egidi, J. Goings, B. Peng, A. Petrone, 
 T. Henderson, D. Ranasinghe, V. G. Zakrzewski, J. Gao, N. Rega, 
 G. Zheng, W. Liang, M. Hada, M. Ehara, K. Toyota, R. Fukuda, 
 J. Hasegawa, M. Ishida, T. Nakajima, Y. Honda, O. Kitao, H. Nakai, 
 T. Vreven, K. Throssell, J. A. Montgomery, Jr., J. E. Peralta, 
 F. Ogliaro, M. J. Bearpark, J. J. Heyd, E. N. Brothers, K. N. Kudin, 
 V. N. Staroverov, T. A. Keith, R. Kobayashi, J. Normand, 
 K. Raghavachari, A. P. Rendell, J. C. Burant, S. S. Iyengar, 
 J. Tomasi, M. Cossi, J. M. Millam, M. Klene, C. Adamo, R. Cammi, 
 J. W. Ochterski, R. L. Martin, K. Morokuma, O. Farkas, 
 J. B. Foresman, and D. J. Fox, Gaussian, Inc., Wallingford CT, 2019.
 
 ******************************************
 Gaussian 16:  ES64L-G16RevC.01  3-Jul-2019
                 9-Apr-2025 
 ******************************************
 %nprocs=16
 Will use up to   16 processors via shared memory.
 %mem=30GB
 %chk=Grambow2020_b97d3_006691_reverse_mol2.chk
 ----------------------------------------------------------------------
 #t hf aug-cc-pvdz symm=none int=(grid=ultrafine) guess=(read,tcheck) s
 table=(opt,rrhf)
 ----------------------------------------------------------------------
 -----
 title
 -----
 Symbolic Z-matrix:
 Charge =  0 Multiplicity = 1
 C                     0.48692   1.33733   0.1269 
 C                     1.50593   0.2272    0.11008 
 O                    -1.05965  -2.13956  -0.04571 
 C                    -1.87906  -1.25707  -0.21364 
 O                    -0.71944   1.20071  -0.00249 
 H                     0.91718   2.3591    0.27345 
 H                     2.0607    0.2327    1.06231 
 H                     2.2479    0.4282   -0.67942 
 H                     1.04163  -0.75057  -0.04613 
 H                    -2.10371  -0.83012  -1.21733 
 H                    -2.48422  -0.83628   0.62138 
 
                    Distance matrix (angstroms):
                    1          2          3          4          5
     1  C    0.000000
     2  C    1.507007   0.000000
     3  O    3.809259   3.494003   0.000000
     4  C    3.527710   3.710258   1.215897   0.000000
     5  O    1.220944   2.431598   3.357828   2.725800   0.000000
     6  H    1.118305   2.217730   4.924190   4.597050   2.023985
     7  H    2.138215   1.102054   4.073319   4.401038   3.130492
     8  H    2.139561   1.101916   4.234958   4.482059   3.140076
     9  H    2.167252   1.093626   2.518860   2.969004   2.628828
    10  H    3.635410   3.988673   2.043863   1.113623   2.741594
    11  H    3.714401   4.160982   2.042781   1.113798   2.766405
                    6          7          8          9         10
     6  H    0.000000
     7  H    2.539979   0.000000
     8  H    2.531236   1.762628   0.000000
     9  H    3.128526   1.798322   1.801570   0.000000
    10  H    4.638896   4.865046   4.561717   3.357261   0.000000
    11  H    4.679851   4.689719   5.067934   3.589501   1.877677
                   11
    11  H    0.000000
 Symmetry turned off by external request.
 Rotational constants (GHZ):           7.9208750           2.5305312           1.9701746
   169 basis functions,   281 primitive gaussians,   179 cartesian basis functions
    20 alpha electrons       20 beta electrons
       nuclear repulsion energy       159.1388980112 Hartrees.
 NAtoms=   11 NActive=   11 NUniq=   11 SFac= 1.00D+00 NAtFMM=   60 NAOKFM=F Big=F
 ExpMin= 2.97D-02 ExpMax= 1.17D+04 ExpMxC= 4.01D+02 IAcc=3 IRadAn=         5 AccDes= 0.00D+00
 Harris functional with IExCor=  205 and IRadAn=       5 diagonalized for initial guess.
 HarFok:  IExCor=  205 AccDes= 0.00D+00 IRadAn=         5 IDoV= 1 UseB2=F ITyADJ=14
 ICtDFT=  3500011 ScaDFX=  1.000000  1.000000  1.000000  1.000000
 FoFCou: FMM=F IPFlag=           0 FMFlag=      100000 FMFlg1=           0
         NFxFlg=           0 DoJE=T BraDBF=F KetDBF=T FulRan=T
         wScrn=  0.000000 ICntrl=       500 IOpCl=  0 I1Cent=   200000004 NGrid=           0
         NMat0=    1 NMatS0=      1 NMatT0=    0 NMatD0=    1 NMtDS0=    0 NMtDT0=    0
 Symmetry not used in FoFCou.
 SCF Done:  E(RHF) =  -266.825239263     A.U. after   13 cycles
            NFock= 13  Conv=0.50D-08     -V/T= 2.0022

 **********************************************************************

            Population analysis using the SCF Density.

 **********************************************************************

 Alpha  occ. eigenvalues --  -20.58079 -20.56688 -11.35852 -11.33971 -11.25137
 Alpha  occ. eigenvalues --   -1.40360  -1.38700  -1.02351  -0.85171  -0.80698
 Alpha  occ. eigenvalues --   -0.68023  -0.66892  -0.63741  -0.62866  -0.60275
 Alpha  occ. eigenvalues --   -0.56294  -0.51631  -0.51097  -0.43349  -0.42199
 Alpha virt. eigenvalues --    0.03167   0.04707   0.04969   0.05133   0.06655
 Alpha virt. eigenvalues --    0.08346   0.09522   0.09854   0.11276   0.12794
 Alpha virt. eigenvalues --    0.13116   0.14801   0.15107   0.16060   0.16396
 Alpha virt. eigenvalues --    0.17141   0.18074   0.18409   0.19077   0.21484
 Alpha virt. eigenvalues --    0.24735   0.25852   0.27618   0.28368   0.28906
 Alpha virt. eigenvalues --    0.31497   0.31809   0.32601   0.34337   0.36007
 Alpha virt. eigenvalues --    0.36644   0.37541   0.38427   0.40014   0.40560
 Alpha virt. eigenvalues --    0.42058   0.43113   0.43369   0.45071   0.45907
 Alpha virt. eigenvalues --    0.46259   0.49148   0.49953   0.51126   0.53572
 Alpha virt. eigenvalues --    0.54032   0.57115   0.58712   0.59152   0.60485
 Alpha virt. eigenvalues --    0.61424   0.62428   0.62719   0.63102   0.65028
 Alpha virt. eigenvalues --    0.66333   0.68812   0.70038   0.71045   0.71703
 Alpha virt. eigenvalues --    0.72046   0.73210   0.73680   0.76436   0.77913
 Alpha virt. eigenvalues --    0.81293   0.83058   0.84407   0.90820   0.91869
 Alpha virt. eigenvalues --    0.95039   0.96679   0.98274   1.01690   1.03283
 Alpha virt. eigenvalues --    1.08405   1.08808   1.10066   1.11503   1.19437
 Alpha virt. eigenvalues --    1.22414   1.24297   1.24568   1.25570   1.31346
 Alpha virt. eigenvalues --    1.33201   1.35235   1.39081   1.42017   1.44135
 Alpha virt. eigenvalues --    1.47900   1.52379   1.53374   1.54679   1.59275
 Alpha virt. eigenvalues --    1.61996   1.67756   1.68893   1.73156   1.74956
 Alpha virt. eigenvalues --    1.79673   1.82783   1.84075   1.84713   1.90448
 Alpha virt. eigenvalues --    1.91380   1.97195   1.99454   2.00162   2.00817
 Alpha virt. eigenvalues --    2.06249   2.08177   2.09697   2.11055   2.15121
 Alpha virt. eigenvalues --    2.19346   2.20725   2.23627   2.26585   2.28028
 Alpha virt. eigenvalues --    2.31102   2.32945   2.36560   2.39732   2.41537
 Alpha virt. eigenvalues --    2.44121   2.61406   2.62471   2.64063   2.70887
 Alpha virt. eigenvalues --    2.73869   2.81539   2.85722   2.92827   2.94221
 Alpha virt. eigenvalues --    2.96859   3.10842   3.34852   3.36368   3.72076
 Alpha virt. eigenvalues --    3.76603   3.77271   3.79902   3.83986   3.86682
 Alpha virt. eigenvalues --    3.91581   3.99428   4.07997   4.15531
          Condensed to atoms (all electrons):
 Mulliken charges:
               1
     1  C    0.615863
     2  C    0.216731
     3  O   -0.598688
     4  C    0.737968
     5  O   -0.634922
     6  H   -0.155641
     7  H    0.031838
     8  H    0.049040
     9  H   -0.118901
    10  H   -0.074420
    11  H   -0.068868
 Sum of Mulliken charges =  -0.00000
 Mulliken charges with hydrogens summed into heavy atoms:
               1
     1  C    0.460222
     2  C    0.178707
     3  O   -0.598688
     4  C    0.594681
     5  O   -0.634922
 Electronic spatial extent (au):  <R**2>=            609.2480
 Charge=             -0.0000 electrons
 Dipole moment (field-independent basis, Debye):
    X=              1.5052    Y=              2.2617    Z=             -0.0711  Tot=              2.7177
 NROrb=    169 NOA=    20 NOB=    20 NVA=   149 NVB=   149

 **** Warning!!: The largest alpha MO coefficient is  0.28507620D+02

    12 initial guesses have been made.
 Iteration     1 Dimension    12 NMult     0 NNew     12
 New state      1 was old state      3
 Iteration     2 Dimension    24 NMult    12 NNew     12
 Iteration     3 Dimension    27 NMult    24 NNew      3
 Iteration     4 Dimension    30 NMult    27 NNew      3
 Iteration     5 Dimension    33 NMult    30 NNew      3
 Iteration     6 Dimension    36 NMult    33 NNew      3
 ***********************************************************************
 Stability analysis using <AA,BB:AA,BB> singles matrix:
 ***********************************************************************
 Ground to excited state transition densities written to RWF  633

 Eigenvectors of the stability matrix:
 
 Excited state symmetry could not be determined.
 Eigenvector   1:      Singlet-?Sym  Eigenvalue= 0.1834037  <S**2>=0.000
      20 -> 22         0.10956
      20 -> 27         0.29631
      20 -> 29        -0.20211
      20 -> 30        -0.11702
      20 -> 31         0.31778
      20 -> 35        -0.17726
      20 -> 36         0.29583
      20 -> 39         0.13815
      20 -> 40        -0.12343
 The wavefunction is stable under the perturbations considered.
 The wavefunction is already stable.

 **********************************************************************

            Population analysis using the SCF Density.

 **********************************************************************

 Alpha  occ. eigenvalues --  -20.58079 -20.56688 -11.35852 -11.33971 -11.25137
 Alpha  occ. eigenvalues --   -1.40360  -1.38700  -1.02351  -0.85171  -0.80698
 Alpha  occ. eigenvalues --   -0.68023  -0.66892  -0.63741  -0.62866  -0.60275
 Alpha  occ. eigenvalues --   -0.56294  -0.51631  -0.51097  -0.43349  -0.42199
 Alpha virt. eigenvalues --    0.03167   0.04707   0.04969   0.05133   0.06655
 Alpha virt. eigenvalues --    0.08346   0.09522   0.09854   0.11276   0.12794
 Alpha virt. eigenvalues --    0.13116   0.14801   0.15107   0.16060   0.16396
 Alpha virt. eigenvalues --    0.17141   0.18074   0.18409   0.19077   0.21484
 Alpha virt. eigenvalues --    0.24735   0.25852   0.27618   0.28368   0.28906
 Alpha virt. eigenvalues --    0.31497   0.31809   0.32601   0.34337   0.36007
 Alpha virt. eigenvalues --    0.36644   0.37541   0.38427   0.40014   0.40560
 Alpha virt. eigenvalues --    0.42058   0.43113   0.43369   0.45071   0.45907
 Alpha virt. eigenvalues --    0.46259   0.49148   0.49953   0.51126   0.53572
 Alpha virt. eigenvalues --    0.54032   0.57115   0.58712   0.59152   0.60485
 Alpha virt. eigenvalues --    0.61424   0.62428   0.62719   0.63102   0.65028
 Alpha virt. eigenvalues --    0.66333   0.68812   0.70038   0.71045   0.71703
 Alpha virt. eigenvalues --    0.72046   0.73210   0.73680   0.76436   0.77913
 Alpha virt. eigenvalues --    0.81293   0.83058   0.84407   0.90820   0.91869
 Alpha virt. eigenvalues --    0.95039   0.96679   0.98274   1.01690   1.03283
 Alpha virt. eigenvalues --    1.08405   1.08808   1.10066   1.11503   1.19437
 Alpha virt. eigenvalues --    1.22414   1.24297   1.24568   1.25570   1.31346
 Alpha virt. eigenvalues --    1.33201   1.35235   1.39081   1.42017   1.44135
 Alpha virt. eigenvalues --    1.47900   1.52379   1.53374   1.54679   1.59275
 Alpha virt. eigenvalues --    1.61996   1.67756   1.68893   1.73156   1.74956
 Alpha virt. eigenvalues --    1.79673   1.82783   1.84075   1.84713   1.90448
 Alpha virt. eigenvalues --    1.91380   1.97195   1.99454   2.00162   2.00817
 Alpha virt. eigenvalues --    2.06249   2.08177   2.09697   2.11055   2.15121
 Alpha virt. eigenvalues --    2.19346   2.20725   2.23627   2.26585   2.28028
 Alpha virt. eigenvalues --    2.31102   2.32945   2.36560   2.39732   2.41537
 Alpha virt. eigenvalues --    2.44121   2.61406   2.62471   2.64063   2.70887
 Alpha virt. eigenvalues --    2.73869   2.81539   2.85722   2.92827   2.94221
 Alpha virt. eigenvalues --    2.96859   3.10842   3.34852   3.36368   3.72076
 Alpha virt. eigenvalues --    3.76603   3.77271   3.79902   3.83986   3.86682
 Alpha virt. eigenvalues --    3.91581   3.99428   4.07997   4.15531
          Condensed to atoms (all electrons):
 Mulliken charges:
               1
     1  C    0.615863
     2  C    0.216731
     3  O   -0.598688
     4  C    0.737968
     5  O   -0.634922
     6  H   -0.155641
     7  H    0.031838
     8  H    0.049040
     9  H   -0.118901
    10  H   -0.074420
    11  H   -0.068868
 Sum of Mulliken charges =  -0.00000
 Mulliken charges with hydrogens summed into heavy atoms:
               1
     1  C    0.460222
     2  C    0.178707
     3  O   -0.598688
     4  C    0.594681
     5  O   -0.634922
 Electronic spatial extent (au):  <R**2>=            609.2480
 Charge=             -0.0000 electrons
 Dipole moment (field-independent basis, Debye):
    X=              1.5052    Y=              2.2617    Z=             -0.0711  Tot=              2.7177
 Unable to Open any file for archive entry.
 1\1\GINC-SE340\Stability\RHF\Aug-CC-pVDZ\C3H6O2\OHZDE\09-Apr-2025\0\\#
 t hf aug-cc-pvdz symm=none int=(grid=ultrafine) guess=(read,tcheck) st
 able=(opt,rrhf)\\title\\0,1\C,0,0.48691929,1.33733263,0.12690298\C,0,1
 .50593468,0.22719928,0.1100821\O,0,-1.05965288,-2.139559,-0.04570962\C
 ,0,-1.87905596,-1.25707178,-0.2136377\O,0,-0.71943649,1.20070907,-0.00
 249239\H,0,0.91717603,2.35910022,0.27345158\H,0,2.06069854,0.23270427,
 1.06230627\H,0,2.24789931,0.42819993,-0.67941544\H,0,1.04162529,-0.750
 57102,-0.04612517\H,0,-2.10371256,-0.83012406,-1.21733103\H,0,-2.48422
 427,-0.83627654,0.62137642\\Version=ES64L-G16RevC.01\HF=-266.8252393\R
 MSD=4.951e-09\Dipole=0.5921987,0.8898189,-0.0279823\Quadrupole=4.69516
 9,-5.4216128,0.7264437,2.6157625,0.7435159,0.5791271\PG=Unknown\\@
 The archive entry for this job was punched.


  THE LARGE PRINT GIVETH,
  AND THE SMALL PRINT TAKETH AWAY.

                     -- TOM WAITS
 Job cpu time:       0 days  0 hours  0 minutes 56.2 seconds.
 Elapsed time:       0 days  0 hours  0 minutes  7.0 seconds.
 File lengths (MBytes):  RWF=    148 Int=      0 D2E=      0 Chk=      5 Scr=      1
 Normal termination of Gaussian 16 at Wed Apr  9 03:09:40 2025.
 Initial command:
 /arc/software/Gaussian/g16.c01/l1.exe "/tmp/slurm/4861353/Gau-1736883.inp" -scrdir="/tmp/slurm/4861353/"
 Entering Link 1 = /arc/software/Gaussian/g16.c01/l1.exe PID=   1737099.
  
 Copyright (c) 1988-2019, Gaussian, Inc.  All Rights Reserved.
  
 This is part of the Gaussian(R) 16 program.  It is based on
 the Gaussian(R) 09 system (copyright 2009, Gaussian, Inc.),
 the Gaussian(R) 03 system (copyright 2003, Gaussian, Inc.),
 the Gaussian(R) 98 system (copyright 1998, Gaussian, Inc.),
 the Gaussian(R) 94 system (copyright 1995, Gaussian, Inc.),
 the Gaussian 92(TM) system (copyright 1992, Gaussian, Inc.),
 the Gaussian 90(TM) system (copyright 1990, Gaussian, Inc.),
 the Gaussian 88(TM) system (copyright 1988, Gaussian, Inc.),
 the Gaussian 86(TM) system (copyright 1986, Carnegie Mellon
 University), and the Gaussian 82(TM) system (copyright 1983,
 Carnegie Mellon University). Gaussian is a federally registered
 trademark of Gaussian, Inc.
  
 This software contains proprietary and confidential information,
 including trade secrets, belonging to Gaussian, Inc.
  
 This software is provided under written license and may be
 used, copied, transmitted, or stored only in accord with that
 written license.
  
 The following legend is applicable only to US Government
 contracts under FAR:
  
                    RESTRICTED RIGHTS LEGEND
  
 Use, reproduction and disclosure by the US Government is
 subject to restrictions as set forth in subparagraphs (a)
 and (c) of the Commercial Computer Software - Restricted
 Rights clause in FAR 52.227-19.
  
 Gaussian, Inc.
 340 Quinnipiac St., Bldg. 40, Wallingford CT 06492
  
  
 ---------------------------------------------------------------
 Warning -- This program may not be used in any manner that
 competes with the business of Gaussian, Inc. or will provide
 assistance to any competitor of Gaussian, Inc.  The licensee
 of this program is prohibited from giving any competitor of
 Gaussian, Inc. access to this program.  By using this program,
 the user acknowledges that Gaussian, Inc. is engaged in the
 business of creating and licensing software in the field of
 computational chemistry and represents and warrants to the
 licensee that it is not a competitor of Gaussian, Inc. and that
 it will not use this program in any manner prohibited above.
 ---------------------------------------------------------------
  

 Cite this work as:
 Gaussian 16, Revision C.01,
 M. J. Frisch, G. W. Trucks, H. B. Schlegel, G. E. Scuseria, 
 M. A. Robb, J. R. Cheeseman, G. Scalmani, V. Barone, 
 G. A. Petersson, H. Nakatsuji, X. Li, M. Caricato, A. V. Marenich, 
 J. Bloino, B. G. Janesko, R. Gomperts, B. Mennucci, H. P. Hratchian, 
 J. V. Ortiz, A. F. Izmaylov, J. L. Sonnenberg, D. Williams-Young, 
 F. Ding, F. Lipparini, F. Egidi, J. Goings, B. Peng, A. Petrone, 
 T. Henderson, D. Ranasinghe, V. G. Zakrzewski, J. Gao, N. Rega, 
 G. Zheng, W. Liang, M. Hada, M. Ehara, K. Toyota, R. Fukuda, 
 J. Hasegawa, M. Ishida, T. Nakajima, Y. Honda, O. Kitao, H. Nakai, 
 T. Vreven, K. Throssell, J. A. Montgomery, Jr., J. E. Peralta, 
 F. Ogliaro, M. J. Bearpark, J. J. Heyd, E. N. Brothers, K. N. Kudin, 
 V. N. Staroverov, T. A. Keith, R. Kobayashi, J. Normand, 
 K. Raghavachari, A. P. Rendell, J. C. Burant, S. S. Iyengar, 
 J. Tomasi, M. Cossi, J. M. Millam, M. Klene, C. Adamo, R. Cammi, 
 J. W. Ochterski, R. L. Martin, K. Morokuma, O. Farkas, 
 J. B. Foresman, and D. J. Fox, Gaussian, Inc., Wallingford CT, 2019.
 
 ******************************************
 Gaussian 16:  ES64L-G16RevC.01  3-Jul-2019
                 9-Apr-2025 
 ******************************************
 %nprocs=16
 Will use up to   16 processors via shared memory.
 %mem=30GB
 %chk=Grambow2020_b97d3_006691_reverse_mol2.chk
 ----------------------------------------------------------------------
 #t hf aug-cc-pvdz iop(5/13=1,5/36=2,99/5=2) pseudo=read geom=check gue
 ss=(read,tcheck) scf=(maxcycle=1)
 ----------------------------------------------------------------------
 -----
 title
 -----
 Structure from the checkpoint file:  "Grambow2020_b97d3_006691_reverse_mol2.chk"
 Charge =  0 Multiplicity = 1
 Z-Matrix found in chk file.
 C,0,0.48691929,1.33733263,0.12690298
 C,0,1.50593468,0.22719928,0.1100821
 O,0,-1.05965288,-2.139559,-0.04570962
 C,0,-1.87905596,-1.25707178,-0.2136377
 O,0,-0.71943649,1.20070907,-0.00249239
 H,0,0.91717603,2.35910022,0.27345158
 H,0,2.06069854,0.23270427,1.06230627
 H,0,2.24789931,0.42819993,-0.67941544
 H,0,1.04162529,-0.75057102,-0.04612517
 H,0,-2.10371256,-0.83012406,-1.21733103
 H,0,-2.48422427,-0.83627654,0.62137642
 Recover connectivity data from disk.
                    Distance matrix (angstroms):
                    1          2          3          4          5
     1  C    0.000000
     2  C    1.507007   0.000000
     3  O    3.809259   3.494003   0.000000
     4  C    3.527710   3.710258   1.215897   0.000000
     5  O    1.220944   2.431598   3.357828   2.725800   0.000000
     6  H    1.118305   2.217730   4.924190   4.597050   2.023985
     7  H    2.138215   1.102054   4.073319   4.401038   3.130492
     8  H    2.139561   1.101916   4.234958   4.482059   3.140076
     9  H    2.167252   1.093626   2.518860   2.969004   2.628828
    10  H    3.635410   3.988673   2.043863   1.113623   2.741594
    11  H    3.714401   4.160982   2.042781   1.113798   2.766405
                    6          7          8          9         10
     6  H    0.000000
     7  H    2.539979   0.000000
     8  H    2.531236   1.762628   0.000000
     9  H    3.128526   1.798322   1.801570   0.000000
    10  H    4.638896   4.865046   4.561717   3.357261   0.000000
    11  H    4.679851   4.689719   5.067934   3.589501   1.877677
                   11
    11  H    0.000000
 Framework group  C1[X(C3H6O2)]
 Deg. of freedom    27
                         Standard orientation:                         
 ---------------------------------------------------------------------
 Center     Atomic      Atomic             Coordinates (Angstroms)
 Number     Number       Type             X           Y           Z
 ---------------------------------------------------------------------
      1          6           0        1.618388   -0.392897   -0.035192
      2          6           0        1.471539    1.105244    0.036094
      3          8           0       -2.005701    0.779842   -0.068650
      4          6           0       -1.908025   -0.425840    0.054616
      5          8           0        0.704316   -1.201773   -0.005284
      6          1           0        2.674051   -0.751380   -0.122777
      7          1           0        1.912517    1.554092   -0.868670
      8          1           0        2.059076    1.486962    0.886571
      9          1           0        0.425184    1.408604    0.131647
     10          1           0       -1.811663   -0.921534    1.047167
     11          1           0       -1.939506   -1.120335   -0.815575
 ---------------------------------------------------------------------
 Rotational constants (GHZ):           7.9208750           2.5305312           1.9701746
 ======================================================================================================
                                       Pseudopotential Parameters
 ======================================================================================================
  Center     Atomic      Valence      Angular      Power
  Number     Number     Electrons     Momentum     of R      Exponent        Coefficient   SO-Coeffient
 ======================================================================================================
    1          6            6
                                      G and up 
                                                     0        0.0000010       -0.00286759    0.00000000
                                                     2        0.1200000        0.03193960    0.00000000
                                                     2        0.1600000       -0.04027782    0.00000000
                                                     2        0.2600000        0.24782456    0.00000000
                                                     2        0.4000000       -0.62266671    0.00000000
                                                     2        0.7000000        0.35695227    0.00000000
                                      S - G
                                                     0        0.0000010       -0.06602313    0.00000000
                                                     2        0.1200000        1.47277455    0.00000000
                                                     2        0.1600000       -4.06924166    0.00000000
                                                     2        0.3000000        5.02952802    0.00000000
                                                     2        0.7000000       -5.65856978    0.00000000
                                                     2        1.7000000        8.57604414    0.00000000
                                      P - G
                                                     0        0.0000010        0.49434425    0.00000000
                                                     2        0.1200000       -1.37391547    0.00000000
                                                     2        0.1600000        3.65411806    0.00000000
                                                     2        0.2800000       -7.36479843    0.00000000
                                                     2        0.6000000       17.22091285    0.00000000
                                                     2        1.1000000      -23.50107827    0.00000000
                                                     2        3.0000000       16.29464063    0.00000000
                                      D - G
                                                     0        0.0000010       -0.28693103    0.00000000
                                                     2        0.1200000        0.12273044    0.00000000
                                                     2        0.3000000       -0.43416384    0.00000000
                                                     2        0.7000000        2.23358493    0.00000000
                                      F - G
                                                     0        0.0000010        0.07263570    0.00000000
                                                     2        0.1400000       -0.76152861    0.00000000
                                                     2        0.2200000        1.98045593    0.00000000
                                                     2        0.4000000       -2.42426427    0.00000000
                                                     2        0.7000000        0.52335237    0.00000000
    2          6            6
                                      G and up 
                                                     0        0.0000010       -0.00286759    0.00000000
                                                     2        0.1200000        0.03193960    0.00000000
                                                     2        0.1600000       -0.04027782    0.00000000
                                                     2        0.2600000        0.24782456    0.00000000
                                                     2        0.4000000       -0.62266671    0.00000000
                                                     2        0.7000000        0.35695227    0.00000000
                                      S - G
                                                     0        0.0000010       -0.06602313    0.00000000
                                                     2        0.1200000        1.47277455    0.00000000
                                                     2        0.1600000       -4.06924166    0.00000000
                                                     2        0.3000000        5.02952802    0.00000000
                                                     2        0.7000000       -5.65856978    0.00000000
                                                     2        1.7000000        8.57604414    0.00000000
                                      P - G
                                                     0        0.0000010        0.49434425    0.00000000
                                                     2        0.1200000       -1.37391547    0.00000000
                                                     2        0.1600000        3.65411806    0.00000000
                                                     2        0.2800000       -7.36479843    0.00000000
                                                     2        0.6000000       17.22091285    0.00000000
                                                     2        1.1000000      -23.50107827    0.00000000
                                                     2        3.0000000       16.29464063    0.00000000
                                      D - G
                                                     0        0.0000010       -0.28693103    0.00000000
                                                     2        0.1200000        0.12273044    0.00000000
                                                     2        0.3000000       -0.43416384    0.00000000
                                                     2        0.7000000        2.23358493    0.00000000
                                      F - G
                                                     0        0.0000010        0.07263570    0.00000000
                                                     2        0.1400000       -0.76152861    0.00000000
                                                     2        0.2200000        1.98045593    0.00000000
                                                     2        0.4000000       -2.42426427    0.00000000
                                                     2        0.7000000        0.52335237    0.00000000
    3          8            8
                                      G and up 
                                                     0        0.0000010       -0.00165251    0.00000000
                                                     2        0.1200000       -0.10937202    0.00000000
                                                     2        0.1400000        0.35668905    0.00000000
                                                     2        0.1800000       -0.51696033    0.00000000
                                                     2        0.2400000        0.52446472    0.00000000
                                                     2        0.4000000       -0.07754493    0.00000000
                                                     2        0.8000000       -1.90560988    0.00000000
                                                     2        1.7000000        0.19857963    0.00000000
                                      S - G
                                                     0        0.0000010       -0.03845181    0.00000000
                                                     2        0.1400000        0.42024558    0.00000000
                                                     2        0.4000000       -4.10467779    0.00000000
                                                     2        1.3000000        9.99571838    0.00000000
                                      P - G
                                                     0        0.0000010        0.33206183    0.00000000
                                                     2        0.1200000       -0.18708141    0.00000000
                                                     2        0.2800000       -0.18179081    0.00000000
                                                     2        0.7000000        1.18820394    0.00000000
                                      D - G
                                                     0        0.0000010       -0.57891674    0.00000000
                                                     2        0.1200000        0.60487490    0.00000000
                                                     2        0.2400000       -0.24931464    0.00000000
                                                     2        0.3000000       -2.75054612    0.00000000
                                                     2        1.0000000       15.96776040    0.00000000
                                      F - G
                                                     0        0.0000010        0.37449041    0.00000000
                                                     2        0.1200000       -0.63373642    0.00000000
                                                     2        0.1400000       -0.08412804    0.00000000
                                                     2        0.2800000        2.62321406    0.00000000
                                                     2        0.6000000       -2.68223623    0.00000000
    4          6            6
                                      G and up 
                                                     0        0.0000010       -0.00286759    0.00000000
                                                     2        0.1200000        0.03193960    0.00000000
                                                     2        0.1600000       -0.04027782    0.00000000
                                                     2        0.2600000        0.24782456    0.00000000
                                                     2        0.4000000       -0.62266671    0.00000000
                                                     2        0.7000000        0.35695227    0.00000000
                                      S - G
                                                     0        0.0000010       -0.06602313    0.00000000
                                                     2        0.1200000        1.47277455    0.00000000
                                                     2        0.1600000       -4.06924166    0.00000000
                                                     2        0.3000000        5.02952802    0.00000000
                                                     2        0.7000000       -5.65856978    0.00000000
                                                     2        1.7000000        8.57604414    0.00000000
                                      P - G
                                                     0        0.0000010        0.49434425    0.00000000
                                                     2        0.1200000       -1.37391547    0.00000000
                                                     2        0.1600000        3.65411806    0.00000000
                                                     2        0.2800000       -7.36479843    0.00000000
                                                     2        0.6000000       17.22091285    0.00000000
                                                     2        1.1000000      -23.50107827    0.00000000
                                                     2        3.0000000       16.29464063    0.00000000
                                      D - G
                                                     0        0.0000010       -0.28693103    0.00000000
                                                     2        0.1200000        0.12273044    0.00000000
                                                     2        0.3000000       -0.43416384    0.00000000
                                                     2        0.7000000        2.23358493    0.00000000
                                      F - G
                                                     0        0.0000010        0.07263570    0.00000000
                                                     2        0.1400000       -0.76152861    0.00000000
                                                     2        0.2200000        1.98045593    0.00000000
                                                     2        0.4000000       -2.42426427    0.00000000
                                                     2        0.7000000        0.52335237    0.00000000
    5          8            8
                                      G and up 
                                                     0        0.0000010       -0.00165251    0.00000000
                                                     2        0.1200000       -0.10937202    0.00000000
                                                     2        0.1400000        0.35668905    0.00000000
                                                     2        0.1800000       -0.51696033    0.00000000
                                                     2        0.2400000        0.52446472    0.00000000
                                                     2        0.4000000       -0.07754493    0.00000000
                                                     2        0.8000000       -1.90560988    0.00000000
                                                     2        1.7000000        0.19857963    0.00000000
                                      S - G
                                                     0        0.0000010       -0.03845181    0.00000000
                                                     2        0.1400000        0.42024558    0.00000000
                                                     2        0.4000000       -4.10467779    0.00000000
                                                     2        1.3000000        9.99571838    0.00000000
                                      P - G
                                                     0        0.0000010        0.33206183    0.00000000
                                                     2        0.1200000       -0.18708141    0.00000000
                                                     2        0.2800000       -0.18179081    0.00000000
                                                     2        0.7000000        1.18820394    0.00000000
                                      D - G
                                                     0        0.0000010       -0.57891674    0.00000000
                                                     2        0.1200000        0.60487490    0.00000000
                                                     2        0.2400000       -0.24931464    0.00000000
                                                     2        0.3000000       -2.75054612    0.00000000
                                                     2        1.0000000       15.96776040    0.00000000
                                      F - G
                                                     0        0.0000010        0.37449041    0.00000000
                                                     2        0.1200000       -0.63373642    0.00000000
                                                     2        0.1400000       -0.08412804    0.00000000
                                                     2        0.2800000        2.62321406    0.00000000
                                                     2        0.6000000       -2.68223623    0.00000000
    6          1            1
                                      F and up 
                                                     0        0.0000010        0.00072061    0.00000000
                                                     2        0.1200000        0.03832357    0.00000000
                                                     2        0.1400000       -0.08683256    0.00000000
                                                     2        0.1800000        0.09312970    0.00000000
                                                     2        0.2800000       -0.02532572    0.00000000
                                                     2        0.4000000       -0.09430787    0.00000000
                                                     2        0.7000000        0.42710831    0.00000000
                                                     2        1.2000000       -2.11746981    0.00000000
                                      S - F
                                                     0        0.0000010        0.14449603    0.00000000
                                                     2        0.1200000       -0.56378993    0.00000000
                                                     2        0.1400000        0.63941249    0.00000000
                                                     2        0.2600000       -0.58461015    0.00000000
                                                     2        0.5000000        1.00157293    0.00000000
                                                     2        1.8000000       -0.14135838    0.00000000
                                      P - F
                                                     0        0.0000010       -0.09353646    0.00000000
                                                     2        0.1200000        0.31768975    0.00000000
                                                     2        0.2000000       -0.71747951    0.00000000
                                                     2        0.4000000        0.65752308    0.00000000
                                                     2        1.7000000        2.94052587    0.00000000
                                      D - F
                                                     0        0.0000010       -0.04491202    0.00000000
                                                     2        0.1200000       -0.02862031    0.00000000
                                                     2        0.1800000       -0.21515263    0.00000000
                                                     2        0.3000000        0.80560647    0.00000000
                                                     2        0.4000000        0.47351754    0.00000000
                                                     2        0.7000000       -4.57051794    0.00000000
                                                     2        1.6000000       18.53737826    0.00000000
    7          1            1
                                      F and up 
                                                     0        0.0000010        0.00072061    0.00000000
                                                     2        0.1200000        0.03832357    0.00000000
                                                     2        0.1400000       -0.08683256    0.00000000
                                                     2        0.1800000        0.09312970    0.00000000
                                                     2        0.2800000       -0.02532572    0.00000000
                                                     2        0.4000000       -0.09430787    0.00000000
                                                     2        0.7000000        0.42710831    0.00000000
                                                     2        1.2000000       -2.11746981    0.00000000
                                      S - F
                                                     0        0.0000010        0.14449603    0.00000000
                                                     2        0.1200000       -0.56378993    0.00000000
                                                     2        0.1400000        0.63941249    0.00000000
                                                     2        0.2600000       -0.58461015    0.00000000
                                                     2        0.5000000        1.00157293    0.00000000
                                                     2        1.8000000       -0.14135838    0.00000000
                                      P - F
                                                     0        0.0000010       -0.09353646    0.00000000
                                                     2        0.1200000        0.31768975    0.00000000
                                                     2        0.2000000       -0.71747951    0.00000000
                                                     2        0.4000000        0.65752308    0.00000000
                                                     2        1.7000000        2.94052587    0.00000000
                                      D - F
                                                     0        0.0000010       -0.04491202    0.00000000
                                                     2        0.1200000       -0.02862031    0.00000000
                                                     2        0.1800000       -0.21515263    0.00000000
                                                     2        0.3000000        0.80560647    0.00000000
                                                     2        0.4000000        0.47351754    0.00000000
                                                     2        0.7000000       -4.57051794    0.00000000
                                                     2        1.6000000       18.53737826    0.00000000
    8          1            1
                                      F and up 
                                                     0        0.0000010        0.00072061    0.00000000
                                                     2        0.1200000        0.03832357    0.00000000
                                                     2        0.1400000       -0.08683256    0.00000000
                                                     2        0.1800000        0.09312970    0.00000000
                                                     2        0.2800000       -0.02532572    0.00000000
                                                     2        0.4000000       -0.09430787    0.00000000
                                                     2        0.7000000        0.42710831    0.00000000
                                                     2        1.2000000       -2.11746981    0.00000000
                                      S - F
                                                     0        0.0000010        0.14449603    0.00000000
                                                     2        0.1200000       -0.56378993    0.00000000
                                                     2        0.1400000        0.63941249    0.00000000
                                                     2        0.2600000       -0.58461015    0.00000000
                                                     2        0.5000000        1.00157293    0.00000000
                                                     2        1.8000000       -0.14135838    0.00000000
                                      P - F
                                                     0        0.0000010       -0.09353646    0.00000000
                                                     2        0.1200000        0.31768975    0.00000000
                                                     2        0.2000000       -0.71747951    0.00000000
                                                     2        0.4000000        0.65752308    0.00000000
                                                     2        1.7000000        2.94052587    0.00000000
                                      D - F
                                                     0        0.0000010       -0.04491202    0.00000000
                                                     2        0.1200000       -0.02862031    0.00000000
                                                     2        0.1800000       -0.21515263    0.00000000
                                                     2        0.3000000        0.80560647    0.00000000
                                                     2        0.4000000        0.47351754    0.00000000
                                                     2        0.7000000       -4.57051794    0.00000000
                                                     2        1.6000000       18.53737826    0.00000000
    9          1            1
                                      F and up 
                                                     0        0.0000010        0.00072061    0.00000000
                                                     2        0.1200000        0.03832357    0.00000000
                                                     2        0.1400000       -0.08683256    0.00000000
                                                     2        0.1800000        0.09312970    0.00000000
                                                     2        0.2800000       -0.02532572    0.00000000
                                                     2        0.4000000       -0.09430787    0.00000000
                                                     2        0.7000000        0.42710831    0.00000000
                                                     2        1.2000000       -2.11746981    0.00000000
                                      S - F
                                                     0        0.0000010        0.14449603    0.00000000
                                                     2        0.1200000       -0.56378993    0.00000000
                                                     2        0.1400000        0.63941249    0.00000000
                                                     2        0.2600000       -0.58461015    0.00000000
                                                     2        0.5000000        1.00157293    0.00000000
                                                     2        1.8000000       -0.14135838    0.00000000
                                      P - F
                                                     0        0.0000010       -0.09353646    0.00000000
                                                     2        0.1200000        0.31768975    0.00000000
                                                     2        0.2000000       -0.71747951    0.00000000
                                                     2        0.4000000        0.65752308    0.00000000
                                                     2        1.7000000        2.94052587    0.00000000
                                      D - F
                                                     0        0.0000010       -0.04491202    0.00000000
                                                     2        0.1200000       -0.02862031    0.00000000
                                                     2        0.1800000       -0.21515263    0.00000000
                                                     2        0.3000000        0.80560647    0.00000000
                                                     2        0.4000000        0.47351754    0.00000000
                                                     2        0.7000000       -4.57051794    0.00000000
                                                     2        1.6000000       18.53737826    0.00000000
   10          1            1
                                      F and up 
                                                     0        0.0000010        0.00072061    0.00000000
                                                     2        0.1200000        0.03832357    0.00000000
                                                     2        0.1400000       -0.08683256    0.00000000
                                                     2        0.1800000        0.09312970    0.00000000
                                                     2        0.2800000       -0.02532572    0.00000000
                                                     2        0.4000000       -0.09430787    0.00000000
                                                     2        0.7000000        0.42710831    0.00000000
                                                     2        1.2000000       -2.11746981    0.00000000
                                      S - F
                                                     0        0.0000010        0.14449603    0.00000000
                                                     2        0.1200000       -0.56378993    0.00000000
                                                     2        0.1400000        0.63941249    0.00000000
                                                     2        0.2600000       -0.58461015    0.00000000
                                                     2        0.5000000        1.00157293    0.00000000
                                                     2        1.8000000       -0.14135838    0.00000000
                                      P - F
                                                     0        0.0000010       -0.09353646    0.00000000
                                                     2        0.1200000        0.31768975    0.00000000
                                                     2        0.2000000       -0.71747951    0.00000000
                                                     2        0.4000000        0.65752308    0.00000000
                                                     2        1.7000000        2.94052587    0.00000000
                                      D - F
                                                     0        0.0000010       -0.04491202    0.00000000
                                                     2        0.1200000       -0.02862031    0.00000000
                                                     2        0.1800000       -0.21515263    0.00000000
                                                     2        0.3000000        0.80560647    0.00000000
                                                     2        0.4000000        0.47351754    0.00000000
                                                     2        0.7000000       -4.57051794    0.00000000
                                                     2        1.6000000       18.53737826    0.00000000
   11          1            1
                                      F and up 
                                                     0        0.0000010        0.00072061    0.00000000
                                                     2        0.1200000        0.03832357    0.00000000
                                                     2        0.1400000       -0.08683256    0.00000000
                                                     2        0.1800000        0.09312970    0.00000000
                                                     2        0.2800000       -0.02532572    0.00000000
                                                     2        0.4000000       -0.09430787    0.00000000
                                                     2        0.7000000        0.42710831    0.00000000
                                                     2        1.2000000       -2.11746981    0.00000000
                                      S - F
                                                     0        0.0000010        0.14449603    0.00000000
                                                     2        0.1200000       -0.56378993    0.00000000
                                                     2        0.1400000        0.63941249    0.00000000
                                                     2        0.2600000       -0.58461015    0.00000000
                                                     2        0.5000000        1.00157293    0.00000000
                                                     2        1.8000000       -0.14135838    0.00000000
                                      P - F
                                                     0        0.0000010       -0.09353646    0.00000000
                                                     2        0.1200000        0.31768975    0.00000000
                                                     2        0.2000000       -0.71747951    0.00000000
                                                     2        0.4000000        0.65752308    0.00000000
                                                     2        1.7000000        2.94052587    0.00000000
                                      D - F
                                                     0        0.0000010       -0.04491202    0.00000000
                                                     2        0.1200000       -0.02862031    0.00000000
                                                     2        0.1800000       -0.21515263    0.00000000
                                                     2        0.3000000        0.80560647    0.00000000
                                                     2        0.4000000        0.47351754    0.00000000
                                                     2        0.7000000       -4.57051794    0.00000000
                                                     2        1.6000000       18.53737826    0.00000000
 ======================================================================================================
   169 basis functions,   281 primitive gaussians,   179 cartesian basis functions
    20 alpha electrons       20 beta electrons
       nuclear repulsion energy       159.1388980112 Hartrees.
 NAtoms=   11 NActive=   11 NUniq=   11 SFac= 1.00D+00 NAtFMM=   60 NAOKFM=F Big=F
   1 Symmetry operations used in ECPInt.
 ECPInt:  NShTT=    2850 NPrTT=   12646 LenC2=    2846 LenP2D=   10109.
 LDataN:  DoStor=T MaxTD1= 6 Len=  172
 Initial guess from the checkpoint file:  "Grambow2020_b97d3_006691_reverse_mol2.chk"
 B after Tr=     0.551894    0.256307    0.039330
         Rot=    0.005301    0.912679    0.406566    0.041141 Ang= 179.39 deg.
 >>>>>>>>>> Convergence criterion not met.
 SCF Done:  E(RHF) =  -267.990530540     A.U. after    2 cycles
            NFock=  1  Conv=0.11D+00     -V/T= 2.0396

 **********************************************************************

            Population analysis using the SCF Density.

 **********************************************************************

 Orbital symmetries:
       Occupied  (A) (A) (A) (A) (A) (A) (A) (A) (A) (A) (A) (A)
                 (A) (A) (A) (A) (A) (A) (A) (A)
       Virtual   (A) (A) (A) (A) (A) (A) (A) (A) (A) (A) (A) (A)
                 (A) (A) (A) (A) (A) (A) (A) (A) (A) (A) (A) (A)
                 (A) (A) (A) (A) (A) (A) (A) (A) (A) (A) (A) (A)
                 (A) (A) (A) (A) (A) (A) (A) (A) (A) (A) (A) (A)
                 (A) (A) (A) (A) (A) (A) (A) (A) (A) (A) (A) (A)
                 (A) (A) (A) (A) (A) (A) (A) (A) (A) (A) (A) (A)
                 (A) (A) (A) (A) (A) (A) (A) (A) (A) (A) (A) (A)
                 (A) (A) (A) (A) (A) (A) (A) (A) (A) (A) (A) (A)
                 (A) (A) (A) (A) (A) (A) (A) (A) (A) (A) (A) (A)
                 (A) (A) (A) (A) (A) (A) (A) (A) (A) (A) (A) (A)
                 (A) (A) (A) (A) (A) (A) (A) (A) (A) (A) (A) (A)
                 (A) (A) (A) (A) (A) (A) (A) (A) (A) (A) (A) (A)
                 (A) (A) (A) (A) (A)
 The electronic state is 1-A.
 Alpha  occ. eigenvalues --  -21.07230 -21.06013 -11.49301 -11.46509 -11.39277
 Alpha  occ. eigenvalues --   -1.71298  -1.69144  -1.11778  -0.88450  -0.82218
 Alpha  occ. eigenvalues --   -0.64759  -0.64483  -0.59334  -0.56299  -0.52318
 Alpha  occ. eigenvalues --   -0.50337  -0.43472  -0.42982  -0.30385  -0.29351
 Alpha virt. eigenvalues --    0.03212   0.05181   0.05479   0.05628   0.06695
 Alpha virt. eigenvalues --    0.08498   0.10737   0.10849   0.11483   0.12755
 Alpha virt. eigenvalues --    0.13195   0.14429   0.15891   0.16121   0.17051
 Alpha virt. eigenvalues --    0.17339   0.18112   0.18901   0.19195   0.21462
 Alpha virt. eigenvalues --    0.24869   0.26235   0.27723   0.29346   0.30317
 Alpha virt. eigenvalues --    0.31621   0.31871   0.33280   0.35040   0.35740
 Alpha virt. eigenvalues --    0.36025   0.36860   0.37002   0.39387   0.40017
 Alpha virt. eigenvalues --    0.40617   0.42740   0.43203   0.43324   0.45724
 Alpha virt. eigenvalues --    0.47154   0.48834   0.49468   0.50169   0.52534
 Alpha virt. eigenvalues --    0.54026   0.55784   0.56736   0.58542   0.60052
 Alpha virt. eigenvalues --    0.60745   0.61719   0.62747   0.64380   0.65475
 Alpha virt. eigenvalues --    0.66784   0.68925   0.70868   0.71508   0.73064
 Alpha virt. eigenvalues --    0.73586   0.75056   0.76060   0.77079   0.79308
 Alpha virt. eigenvalues --    0.83560   0.84363   0.85182   0.90654   0.92980
 Alpha virt. eigenvalues --    0.97041   1.01082   1.02176   1.03168   1.08565
 Alpha virt. eigenvalues --    1.11327   1.14690   1.16653   1.21093   1.22824
 Alpha virt. eigenvalues --    1.25798   1.27975   1.34996   1.36039   1.40838
 Alpha virt. eigenvalues --    1.42854   1.45692   1.56206   1.59350   1.60587
 Alpha virt. eigenvalues --    1.71853   1.72535   1.73929   1.75395   1.78128
 Alpha virt. eigenvalues --    1.83790   1.84908   1.90359   1.94989   1.95756
 Alpha virt. eigenvalues --    1.98945   2.04615   2.05228   2.08053   2.10748
 Alpha virt. eigenvalues --    2.18982   2.22493   2.25844   2.27173   2.30483
 Alpha virt. eigenvalues --    2.30813   2.35441   2.36906   2.40607   2.41420
 Alpha virt. eigenvalues --    2.42308   2.45550   2.46538   2.50020   2.61640
 Alpha virt. eigenvalues --    2.62862   2.65467   2.67788   2.75637   2.78410
 Alpha virt. eigenvalues --    2.79289   2.90268   2.91599   2.95606   2.97709
 Alpha virt. eigenvalues --    3.17726   3.26275   3.27768   3.46919   3.59007
 Alpha virt. eigenvalues --    3.65205   3.76530   3.76912   3.79865   5.99660
 Alpha virt. eigenvalues --    6.03055   6.03757   6.07249   6.10604   6.12055
 Alpha virt. eigenvalues --    6.14991   6.25782   6.39988   6.46224
          Condensed to atoms (all electrons):
 Mulliken charges:
               1
     1  C    1.256717
     2  C   -3.795631
     3  O   -2.021303
     4  C   -0.852486
     5  O   -2.724074
     6  H    1.542036
     7  H    1.280301
     8  H    1.248301
     9  H    1.293060
    10  H    1.384353
    11  H    1.388726
 Sum of Mulliken charges =  -0.00000
 Mulliken charges with hydrogens summed into heavy atoms:
               1
     1  C    2.798753
     2  C    0.026031
     3  O   -2.021303
     4  C    1.920593
     5  O   -2.724074
 Electronic spatial extent (au):  <R**2>=            611.0024
 Charge=              0.0000 electrons
 Dipole moment (field-independent basis, Debye):
    X=              1.3169    Y=             -0.0920    Z=              0.1018  Tot=              1.3241

 Test job not archived.
 1\1\GINC-SE340\SP\RHF\Aug-CC-pVDZ\C3H6O2\OHZDE\09-Apr-2025\0\\#t hf au
 g-cc-pvdz iop(5/13=1,5/36=2,99/5=2) pseudo=read geom=check guess=(read
 ,tcheck) scf=(maxcycle=1)\\title\\0,1\C,0,0.48691929,1.33733263,0.1269
 0298\C,0,1.50593468,0.22719928,0.1100821\O,0,-1.05965288,-2.139559,-0.
 04570962\C,0,-1.87905596,-1.25707178,-0.2136377\O,0,-0.71943649,1.2007
 0907,-0.00249239\H,0,0.91717603,2.35910022,0.27345158\H,0,2.06069854,0
 .23270427,1.06230627\H,0,2.24789931,0.42819993,-0.67941544\H,0,1.04162
 529,-0.75057102,-0.04612517\H,0,-2.10371256,-0.83012406,-1.21733103\H,
 0,-2.48422427,-0.83627654,0.62137642\\Version=ES64L-G16RevC.01\State=1
 -A\HF=-267.9905305\RMSD=1.109e-01\Dipole=0.3214303,0.4099095,-0.004813
 3\Quadrupole=2.4450201,-2.9357362,0.4907161,1.2531952,0.3370151,0.1659
 561\PG=C01 [X(C3H6O2)]\\@


 I think that all right-thinking people in this
 country are sick and tired of being told that
 ordinary, decent people are fed up in this country
 with being sick and tired.  I'm certainly not!
 But I'm sick and tired of being told that I am!
                               -- Monty Python
 Job cpu time:       0 days  0 hours  0 minutes 25.8 seconds.
 Elapsed time:       0 days  0 hours  0 minutes  2.4 seconds.
 File lengths (MBytes):  RWF=     10 Int=      0 D2E=      0 Chk=      5 Scr=      1
 Normal termination of Gaussian 16 at Wed Apr  9 03:09:42 2025.
