 Entering Gaussian System, Link 0=g16
 Input=Grambow2020_wb97xd3_008282_reverse_mol2.gjf
 Output=Grambow2020_wb97xd3_008282_reverse_mol2.log
 Initial command:
 /arc/software/Gaussian/g16.c01/l1.exe "/tmp/slurm/4882749/Gau-1819950.inp" -scrdir="/tmp/slurm/4882749/"
 Entering Link 1 = /arc/software/Gaussian/g16.c01/l1.exe PID=   1819951.
  
 Copyright (c) 1988-2019, Gaussian, Inc.  All Rights Reserved.
  
 This is part of the Gaussian(R) 16 program.  It is based on
 the Gaussian(R) 09 system (copyright 2009, Gaussian, Inc.),
 the Gaussian(R) 03 system (copyright 2003, Gaussian, Inc.),
 the Gaussian(R) 98 system (copyright 1998, Gaussian, Inc.),
 the Gaussian(R) 94 system (copyright 1995, Gaussian, Inc.),
 the Gaussian 92(TM) system (copyright 1992, Gaussian, Inc.),
 the Gaussian 90(TM) system (copyright 1990, Gaussian, Inc.),
 the Gaussian 88(TM) system (copyright 1988, Gaussian, Inc.),
 the Gaussian 86(TM) system (copyright 1986, Carnegie Mellon
 University), and the Gaussian 82(TM) system (copyright 1983,
 Carnegie Mellon University). Gaussian is a federally registered
 trademark of Gaussian, Inc.
  
 This software contains proprietary and confidential information,
 including trade secrets, belonging to Gaussian, Inc.
  
 This software is provided under written license and may be
 used, copied, transmitted, or stored only in accord with that
 written license.
  
 The following legend is applicable only to US Government
 contracts under FAR:
  
                    RESTRICTED RIGHTS LEGEND
  
 Use, reproduction and disclosure by the US Government is
 subject to restrictions as set forth in subparagraphs (a)
 and (c) of the Commercial Computer Software - Restricted
 Rights clause in FAR 52.227-19.
  
 Gaussian, Inc.
 340 Quinnipiac St., Bldg. 40, Wallingford CT 06492
  
  
 ---------------------------------------------------------------
 Warning -- This program may not be used in any manner that
 competes with the business of Gaussian, Inc. or will provide
 assistance to any competitor of Gaussian, Inc.  The licensee
 of this program is prohibited from giving any competitor of
 Gaussian, Inc. access to this program.  By using this program,
 the user acknowledges that Gaussian, Inc. is engaged in the
 business of creating and licensing software in the field of
 computational chemistry and represents and warrants to the
 licensee that it is not a competitor of Gaussian, Inc. and that
 it will not use this program in any manner prohibited above.
 ---------------------------------------------------------------
  

 Cite this work as:
 Gaussian 16, Revision C.01,
 M. J. Frisch, G. W. Trucks, H. B. Schlegel, G. E. Scuseria, 
 M. A. Robb, J. R. Cheeseman, G. Scalmani, V. Barone, 
 G. A. Petersson, H. Nakatsuji, X. Li, M. Caricato, A. V. Marenich, 
 J. Bloino, B. G. Janesko, R. Gomperts, B. Mennucci, H. P. Hratchian, 
 J. V. Ortiz, A. F. Izmaylov, J. L. Sonnenberg, D. Williams-Young, 
 F. Ding, F. Lipparini, F. Egidi, J. Goings, B. Peng, A. Petrone, 
 T. Henderson, D. Ranasinghe, V. G. Zakrzewski, J. Gao, N. Rega, 
 G. Zheng, W. Liang, M. Hada, M. Ehara, K. Toyota, R. Fukuda, 
 J. Hasegawa, M. Ishida, T. Nakajima, Y. Honda, O. Kitao, H. Nakai, 
 T. Vreven, K. Throssell, J. A. Montgomery, Jr., J. E. Peralta, 
 F. Ogliaro, M. J. Bearpark, J. J. Heyd, E. N. Brothers, K. N. Kudin, 
 V. N. Staroverov, T. A. Keith, R. Kobayashi, J. Normand, 
 K. Raghavachari, A. P. Rendell, J. C. Burant, S. S. Iyengar, 
 J. Tomasi, M. Cossi, J. M. Millam, M. Klene, C. Adamo, R. Cammi, 
 J. W. Ochterski, R. L. Martin, K. Morokuma, O. Farkas, 
 J. B. Foresman, and D. J. Fox, Gaussian, Inc., Wallingford CT, 2019.
 
 ******************************************
 Gaussian 16:  ES64L-G16RevC.01  3-Jul-2019
                 9-Apr-2025 
 ******************************************
 %nprocs=16
 Will use up to   16 processors via shared memory.
 %mem=30GB
 %chk=Grambow2020_wb97xd3_008282_reverse_mol2.chk
 ----------------------------------------------------------------------
 #t hf aug-cc-pvdz symm=none int=(grid=ultrafine) guess=(read,tcheck) s
 table=(opt,rrhf)
 ----------------------------------------------------------------------
 -----
 title
 -----
 Symbolic Z-matrix:
 Charge =  0 Multiplicity = 1
 C                    -1.24914  -2.28751  -0.6689 
 C                    -1.217    -0.98765  -0.90382 
 C                     0.86544   2.20519   0.36116 
 N                     1.16394   0.89634   0.8984 
 C                     0.53956  -0.25862   0.57109 
 O                     0.80096  -1.33543   1.04199 
 O                    -0.41592  -0.00954  -0.36273 
 H                    -1.97509  -2.86576  -1.22469 
 H                    -0.15351   2.51536   0.5994 
 H                    -0.60087  -2.78534   0.03211 
 H                    -1.88227  -0.5149   -1.61523 
 H                     1.55663   2.92086   0.80287 
 H                     0.99012   2.22987  -0.72235 
 H                     1.87881   0.79089   1.59358 
 
                    Distance matrix (angstroms):
                    1          2          3          4          5
     1  C    0.000000
     2  C    1.321304   0.000000
     3  C    5.071174   4.016340   0.000000
     4  N    4.291420   3.530769   1.445966   0.000000
     5  C    2.975466   2.406733   2.494123   1.353118   0.000000
     6  O    2.834865   2.824760   3.606066   2.265657   1.203989
     7  O    2.444816   1.375215   2.659122   2.215181   1.359046
     8  H    1.081792   2.050589   6.024781   5.339886   4.042947
     9  H    5.086901   3.957501   1.091432   2.108628   2.859398
    10  H    1.076804   2.118315   5.211880   4.173699   2.824067
    11  H    2.106784   1.082675   4.342227   4.193968   3.272761
    12  H    6.096357   5.087467   1.088595   2.064465   3.346234
    13  H    5.042205   3.905991   1.090937   2.106023   2.840526
    14  H    4.937557   4.357101   2.132143   1.002717   1.985087
                    6          7          8          9         10
     6  O    0.000000
     7  O    2.282980   0.000000
     8  H    3.896937   3.366294   0.000000
     9  H    3.991933   2.714721   5.966732   0.000000
    10  H    2.255476   2.809830   1.864002   5.349708   0.000000
    11  H    3.864427   1.993576   2.384878   4.132279   3.083929
    12  H    4.329467   3.719790   7.075943   1.769293   6.148949
    13  H    3.982467   2.668561   5.916939   1.770993   5.315330
    14  H    2.446897   3.119880   6.013842   2.844737   4.623465
                   11         12         13         14
    11  H    0.000000
    12  H    5.429341   0.000000
    13  H    4.072054   1.767684   0.000000
    14  H    5.113449   2.294733   2.867747   0.000000
 Symmetry turned off by external request.
 Rotational constants (GHZ):           5.9634554           1.8409588           1.4191989
   224 basis functions,   378 primitive gaussians,   238 cartesian basis functions
    27 alpha electrons       27 beta electrons
       nuclear repulsion energy       305.3974817250 Hartrees.
 NAtoms=   14 NActive=   14 NUniq=   14 SFac= 1.00D+00 NAtFMM=   60 NAOKFM=F Big=F
 ExpMin= 2.97D-02 ExpMax= 1.17D+04 ExpMxC= 4.01D+02 IAcc=3 IRadAn=         5 AccDes= 0.00D+00
 Harris functional with IExCor=  205 and IRadAn=       5 diagonalized for initial guess.
 HarFok:  IExCor=  205 AccDes= 0.00D+00 IRadAn=         5 IDoV= 1 UseB2=F ITyADJ=14
 ICtDFT=  3500011 ScaDFX=  1.000000  1.000000  1.000000  1.000000
 FoFCou: FMM=F IPFlag=           0 FMFlag=      100000 FMFlg1=           0
         NFxFlg=           0 DoJE=T BraDBF=F KetDBF=T FulRan=T
         wScrn=  0.000000 ICntrl=       500 IOpCl=  0 I1Cent=   200000004 NGrid=           0
         NMat0=    1 NMatS0=      1 NMatT0=    0 NMatD0=    1 NMtDS0=    0 NMtDT0=    0
 Symmetry not used in FoFCou.
 SCF Done:  E(RHF) =  -359.764127032     A.U. after   13 cycles
            NFock= 13  Conv=0.73D-08     -V/T= 2.0011

 **********************************************************************

            Population analysis using the SCF Density.

 **********************************************************************

 Alpha  occ. eigenvalues --  -20.62778 -20.53880 -15.59786 -11.41742 -11.30717
 Alpha  occ. eigenvalues --  -11.28005 -11.22493  -1.48402  -1.37634  -1.24811
 Alpha  occ. eigenvalues --   -1.04622  -0.96758  -0.89752  -0.76783  -0.71868
 Alpha  occ. eigenvalues --   -0.68591  -0.67594  -0.66145  -0.62631  -0.60232
 Alpha  occ. eigenvalues --   -0.56807  -0.55870  -0.54564  -0.52180  -0.44982
 Alpha  occ. eigenvalues --   -0.40410  -0.35985
 Alpha virt. eigenvalues --    0.02988   0.03992   0.04838   0.05701   0.05837
 Alpha virt. eigenvalues --    0.06446   0.08195   0.10614   0.11208   0.12432
 Alpha virt. eigenvalues --    0.12905   0.13116   0.13824   0.14973   0.15339
 Alpha virt. eigenvalues --    0.15623   0.15911   0.16865   0.18138   0.18706
 Alpha virt. eigenvalues --    0.18999   0.19985   0.20927   0.22966   0.23831
 Alpha virt. eigenvalues --    0.25452   0.26168   0.27455   0.27831   0.28839
 Alpha virt. eigenvalues --    0.30301   0.31032   0.31415   0.33093   0.34441
 Alpha virt. eigenvalues --    0.35011   0.35610   0.37526   0.37778   0.38537
 Alpha virt. eigenvalues --    0.39376   0.40610   0.41161   0.41987   0.42814
 Alpha virt. eigenvalues --    0.43634   0.44372   0.45188   0.45667   0.46457
 Alpha virt. eigenvalues --    0.49642   0.50497   0.50884   0.52736   0.53241
 Alpha virt. eigenvalues --    0.53791   0.55036   0.56703   0.57360   0.57962
 Alpha virt. eigenvalues --    0.59007   0.60314   0.61196   0.61820   0.62132
 Alpha virt. eigenvalues --    0.62872   0.63355   0.64546   0.65813   0.66949
 Alpha virt. eigenvalues --    0.67473   0.70108   0.70677   0.71587   0.72540
 Alpha virt. eigenvalues --    0.73181   0.74242   0.74412   0.75806   0.79615
 Alpha virt. eigenvalues --    0.80089   0.81525   0.82044   0.83291   0.85352
 Alpha virt. eigenvalues --    0.86304   0.88746   0.89161   0.89521   0.90373
 Alpha virt. eigenvalues --    0.92150   0.92457   0.94993   0.96060   0.99825
 Alpha virt. eigenvalues --    1.01374   1.02022   1.05246   1.07380   1.08220
 Alpha virt. eigenvalues --    1.09953   1.11576   1.15017   1.18453   1.18906
 Alpha virt. eigenvalues --    1.23339   1.25952   1.28148   1.29287   1.32007
 Alpha virt. eigenvalues --    1.36934   1.38538   1.41322   1.41498   1.45099
 Alpha virt. eigenvalues --    1.46093   1.48464   1.50141   1.53281   1.56780
 Alpha virt. eigenvalues --    1.58803   1.60988   1.61580   1.65246   1.67891
 Alpha virt. eigenvalues --    1.68173   1.69763   1.75315   1.76633   1.79623
 Alpha virt. eigenvalues --    1.79943   1.81583   1.82253   1.86985   1.89557
 Alpha virt. eigenvalues --    1.90017   1.95720   1.97542   1.98054   1.98614
 Alpha virt. eigenvalues --    2.03849   2.07040   2.08832   2.09626   2.12103
 Alpha virt. eigenvalues --    2.12729   2.13451   2.15045   2.16397   2.17366
 Alpha virt. eigenvalues --    2.20859   2.21809   2.22075   2.28558   2.33519
 Alpha virt. eigenvalues --    2.34818   2.35916   2.41236   2.44475   2.44697
 Alpha virt. eigenvalues --    2.46075   2.49600   2.53172   2.56517   2.58855
 Alpha virt. eigenvalues --    2.59241   2.69357   2.70545   2.73962   2.74735
 Alpha virt. eigenvalues --    2.80270   2.82811   2.88734   2.89893   2.93026
 Alpha virt. eigenvalues --    2.95754   2.99123   3.01650   3.10050   3.12409
 Alpha virt. eigenvalues --    3.24794   3.26328   3.35411   3.39518   3.50548
 Alpha virt. eigenvalues --    3.58625   3.73344   3.74903   3.75675   3.81383
 Alpha virt. eigenvalues --    3.84229   3.90534   3.95511   4.01956   4.17742
 Alpha virt. eigenvalues --    4.24431   4.35753
          Condensed to atoms (all electrons):
 Mulliken charges:
               1
     1  C    0.548189
     2  C    0.798737
     3  C    0.845258
     4  N   -0.351555
     5  C    0.922301
     6  O   -0.671876
     7  O   -0.675262
     8  H   -0.253598
     9  H   -0.065162
    10  H   -0.255516
    11  H   -0.407554
    12  H   -0.222052
    13  H   -0.067510
    14  H   -0.144401
 Sum of Mulliken charges =  -0.00000
 Mulliken charges with hydrogens summed into heavy atoms:
               1
     1  C    0.039075
     2  C    0.391184
     3  C    0.490534
     4  N   -0.495956
     5  C    0.922301
     6  O   -0.671876
     7  O   -0.675262
 Electronic spatial extent (au):  <R**2>=            849.4827
 Charge=             -0.0000 electrons
 Dipole moment (field-independent basis, Debye):
    X=             -0.0527    Y=              3.1137    Z=             -0.6908  Tot=              3.1899
 NROrb=    224 NOA=    27 NOB=    27 NVA=   197 NVB=   197

 **** Warning!!: The largest alpha MO coefficient is  0.43178671D+02

    12 initial guesses have been made.
 Iteration     1 Dimension    12 NMult     0 NNew     12
 Iteration     2 Dimension    24 NMult    12 NNew     12
 Iteration     3 Dimension    27 NMult    24 NNew      3
 Iteration     4 Dimension    30 NMult    27 NNew      3
 Iteration     5 Dimension    33 NMult    30 NNew      3
 Iteration     6 Dimension    36 NMult    33 NNew      3
 Iteration     7 Dimension    39 NMult    36 NNew      3
 Iteration     8 Dimension    42 NMult    39 NNew      3
 Iteration     9 Dimension    45 NMult    42 NNew      3
 ***********************************************************************
 Stability analysis using <AA,BB:AA,BB> singles matrix:
 ***********************************************************************
 Ground to excited state transition densities written to RWF  633

 Eigenvectors of the stability matrix:
 
 Excited state symmetry could not be determined.
 Eigenvector   1:      Singlet-?Sym  Eigenvalue= 0.2543312  <S**2>=0.000
      27 -> 28         0.34003
      27 -> 29         0.48157
      27 -> 30         0.22012
      27 -> 40        -0.13674
      27 -> 45        -0.17815
 The wavefunction is stable under the perturbations considered.
 The wavefunction is already stable.

 **********************************************************************

            Population analysis using the SCF Density.

 **********************************************************************

 Alpha  occ. eigenvalues --  -20.62778 -20.53880 -15.59786 -11.41742 -11.30717
 Alpha  occ. eigenvalues --  -11.28005 -11.22493  -1.48402  -1.37634  -1.24811
 Alpha  occ. eigenvalues --   -1.04622  -0.96758  -0.89752  -0.76783  -0.71868
 Alpha  occ. eigenvalues --   -0.68591  -0.67594  -0.66145  -0.62631  -0.60232
 Alpha  occ. eigenvalues --   -0.56807  -0.55870  -0.54564  -0.52180  -0.44982
 Alpha  occ. eigenvalues --   -0.40410  -0.35985
 Alpha virt. eigenvalues --    0.02988   0.03992   0.04838   0.05701   0.05837
 Alpha virt. eigenvalues --    0.06446   0.08195   0.10614   0.11208   0.12432
 Alpha virt. eigenvalues --    0.12905   0.13116   0.13824   0.14973   0.15339
 Alpha virt. eigenvalues --    0.15623   0.15911   0.16865   0.18138   0.18706
 Alpha virt. eigenvalues --    0.18999   0.19985   0.20927   0.22966   0.23831
 Alpha virt. eigenvalues --    0.25452   0.26168   0.27455   0.27831   0.28839
 Alpha virt. eigenvalues --    0.30301   0.31032   0.31415   0.33093   0.34441
 Alpha virt. eigenvalues --    0.35011   0.35610   0.37526   0.37778   0.38537
 Alpha virt. eigenvalues --    0.39376   0.40610   0.41161   0.41987   0.42814
 Alpha virt. eigenvalues --    0.43634   0.44372   0.45188   0.45667   0.46457
 Alpha virt. eigenvalues --    0.49642   0.50497   0.50884   0.52736   0.53241
 Alpha virt. eigenvalues --    0.53791   0.55036   0.56703   0.57360   0.57962
 Alpha virt. eigenvalues --    0.59007   0.60314   0.61196   0.61820   0.62132
 Alpha virt. eigenvalues --    0.62872   0.63355   0.64546   0.65813   0.66949
 Alpha virt. eigenvalues --    0.67473   0.70108   0.70677   0.71587   0.72540
 Alpha virt. eigenvalues --    0.73181   0.74242   0.74412   0.75806   0.79615
 Alpha virt. eigenvalues --    0.80089   0.81525   0.82044   0.83291   0.85352
 Alpha virt. eigenvalues --    0.86304   0.88746   0.89161   0.89521   0.90373
 Alpha virt. eigenvalues --    0.92150   0.92457   0.94993   0.96060   0.99825
 Alpha virt. eigenvalues --    1.01374   1.02022   1.05246   1.07380   1.08220
 Alpha virt. eigenvalues --    1.09953   1.11576   1.15017   1.18453   1.18906
 Alpha virt. eigenvalues --    1.23339   1.25952   1.28148   1.29287   1.32007
 Alpha virt. eigenvalues --    1.36934   1.38538   1.41322   1.41498   1.45099
 Alpha virt. eigenvalues --    1.46093   1.48464   1.50141   1.53281   1.56780
 Alpha virt. eigenvalues --    1.58803   1.60988   1.61580   1.65246   1.67891
 Alpha virt. eigenvalues --    1.68173   1.69763   1.75315   1.76633   1.79623
 Alpha virt. eigenvalues --    1.79943   1.81583   1.82253   1.86985   1.89557
 Alpha virt. eigenvalues --    1.90017   1.95720   1.97542   1.98054   1.98614
 Alpha virt. eigenvalues --    2.03849   2.07040   2.08832   2.09626   2.12103
 Alpha virt. eigenvalues --    2.12729   2.13451   2.15045   2.16397   2.17366
 Alpha virt. eigenvalues --    2.20859   2.21809   2.22075   2.28558   2.33519
 Alpha virt. eigenvalues --    2.34818   2.35916   2.41236   2.44475   2.44697
 Alpha virt. eigenvalues --    2.46075   2.49600   2.53172   2.56517   2.58855
 Alpha virt. eigenvalues --    2.59241   2.69357   2.70545   2.73962   2.74735
 Alpha virt. eigenvalues --    2.80270   2.82811   2.88734   2.89893   2.93026
 Alpha virt. eigenvalues --    2.95754   2.99123   3.01650   3.10050   3.12409
 Alpha virt. eigenvalues --    3.24794   3.26328   3.35411   3.39518   3.50548
 Alpha virt. eigenvalues --    3.58625   3.73344   3.74903   3.75675   3.81383
 Alpha virt. eigenvalues --    3.84229   3.90534   3.95511   4.01956   4.17742
 Alpha virt. eigenvalues --    4.24431   4.35753
          Condensed to atoms (all electrons):
 Mulliken charges:
               1
     1  C    0.548189
     2  C    0.798737
     3  C    0.845258
     4  N   -0.351555
     5  C    0.922301
     6  O   -0.671876
     7  O   -0.675262
     8  H   -0.253598
     9  H   -0.065162
    10  H   -0.255516
    11  H   -0.407554
    12  H   -0.222052
    13  H   -0.067510
    14  H   -0.144401
 Sum of Mulliken charges =  -0.00000
 Mulliken charges with hydrogens summed into heavy atoms:
               1
     1  C    0.039075
     2  C    0.391184
     3  C    0.490534
     4  N   -0.495956
     5  C    0.922301
     6  O   -0.671876
     7  O   -0.675262
 Electronic spatial extent (au):  <R**2>=            849.4827
 Charge=             -0.0000 electrons
 Dipole moment (field-independent basis, Debye):
    X=             -0.0527    Y=              3.1137    Z=             -0.6908  Tot=              3.1899
 Unable to Open any file for archive entry.
 1\1\GINC-SE162\Stability\RHF\Aug-CC-pVDZ\C4H7N1O2\OHZDE\09-Apr-2025\0\
 \#t hf aug-cc-pvdz symm=none int=(grid=ultrafine) guess=(read,tcheck) 
 stable=(opt,rrhf)\\title\\0,1\C,0,-1.24914204,-2.28750927,-0.66889633\
 C,0,-1.21700419,-0.98765468,-0.90381986\C,0,0.86543873,2.20518997,0.36
 115502\N,0,1.16394164,0.8963415,0.89839621\C,0,0.53956041,-0.25862428,
 0.57109035\O,0,0.80095508,-1.33543431,1.04198553\O,0,-0.41591588,-0.00
 954386,-0.36273456\H,0,-1.97508797,-2.86575597,-1.22469081\H,0,-0.1535
 1006,2.51536314,0.599397\H,0,-0.60086853,-2.78533801,0.03211331\H,0,-1
 .88227147,-0.51490408,-1.61523475\H,0,1.55662667,2.92086299,0.80286866
 \H,0,0.99011775,2.22986701,-0.72235263\H,0,1.87881186,0.79089385,1.593
 58185\\Version=ES64L-G16RevC.01\HF=-359.764127\RMSD=7.259e-09\Dipole=-
 0.0207336,1.2250297,-0.2717947\Quadrupole=0.8378702,0.2097423,-1.04761
 25,3.9980612,2.3274811,3.1950415\PG=Unknown\\@
 The archive entry for this job was punched.


 NOBODY LOSES ALL THE TIME
 I HAD AN UNCLE NAMED
 SOL WHO WAS A BORN FAILURE AND
 NEARLY EVERYBODY SAID HE SHOULD HAVE GONE
 INTO VAUDEVILLE PERHAPS BECAUSE MY UNCLE SOL COULD
 SING MCCANN HE WAS A DIVER ON XMAS EVE LIKE HELL ITSELF WHICH
 MAY OR MAY NOT ACCOUNT FOR THE FACT THAT MY UNCLE
 SOL INDULGED IN THAT POSSIBLY MOST INEXCUSABLE
 OF ALL TO USE A HIGHFALOOTIN PHRASE
 LUXURIES THAT IS OR TO
 WIT FARMING AND BE
 IT NEEDLESSLY
 ADDED
 MY UNCLE SOL'S FARM     
 FAILED BECAUSE THE CHICKENS
 ATE THE VEGETABLES SO
 MY UNCLE SOL HAD A
 CHICKEN FARM TILL THE
 SKUNKS ATE THE CHICKENS WHEN 
 MY UNCLE SOL
 HAD A SKUNK FARM BUT
 THE SKUNKS CAUGHT COLD AND
 DIED AND SO
 MY UNCLE SOL IMITATED THE
 SKUNKS IN A SUBTLE MANNER
 OR BY DROWNING HIMSELF IN THE WATERTANK
 BUT SOMEBODY WHO'D GIVEN MY UNCLE SOL A VICTOR     
 VICTROLA AND RECORDS WHILE HE LIVED PRESENTED TO
 HIM UPON THE AUSPICIOUS OCCASION OF HIS DECEASE A
 SCRUMPTIOUS NOT TO MENTION SPLENDIFEROUS FUNERAL WITH
 TALL BOYS IN BLACK GLOVES AND FLOWERS AND EVERYTHING AND
 I REMEMBER WE ALL CRIED LIKE THE MISSOURI
 WHEN MY UNCLE SOL'S COFFIN LURCHED BECAUSE     
 SOMEBODY PRESSED A BUTTON
 (AND DOWN WENT
 MY UNCLE
 SOL
 AND STARTED A WORM FARM)
           E. E. CUMMINGS
 Job cpu time:       0 days  0 hours  6 minutes 31.6 seconds.
 Elapsed time:       0 days  0 hours  0 minutes 28.5 seconds.
 File lengths (MBytes):  RWF=    241 Int=      0 D2E=      0 Chk=      7 Scr=      1
 Normal termination of Gaussian 16 at Wed Apr  9 19:11:55 2025.
 Initial command:
 /arc/software/Gaussian/g16.c01/l1.exe "/tmp/slurm/4882749/Gau-1819950.inp" -scrdir="/tmp/slurm/4882749/"
 Entering Link 1 = /arc/software/Gaussian/g16.c01/l1.exe PID=   1820168.
  
 Copyright (c) 1988-2019, Gaussian, Inc.  All Rights Reserved.
  
 This is part of the Gaussian(R) 16 program.  It is based on
 the Gaussian(R) 09 system (copyright 2009, Gaussian, Inc.),
 the Gaussian(R) 03 system (copyright 2003, Gaussian, Inc.),
 the Gaussian(R) 98 system (copyright 1998, Gaussian, Inc.),
 the Gaussian(R) 94 system (copyright 1995, Gaussian, Inc.),
 the Gaussian 92(TM) system (copyright 1992, Gaussian, Inc.),
 the Gaussian 90(TM) system (copyright 1990, Gaussian, Inc.),
 the Gaussian 88(TM) system (copyright 1988, Gaussian, Inc.),
 the Gaussian 86(TM) system (copyright 1986, Carnegie Mellon
 University), and the Gaussian 82(TM) system (copyright 1983,
 Carnegie Mellon University). Gaussian is a federally registered
 trademark of Gaussian, Inc.
  
 This software contains proprietary and confidential information,
 including trade secrets, belonging to Gaussian, Inc.
  
 This software is provided under written license and may be
 used, copied, transmitted, or stored only in accord with that
 written license.
  
 The following legend is applicable only to US Government
 contracts under FAR:
  
                    RESTRICTED RIGHTS LEGEND
  
 Use, reproduction and disclosure by the US Government is
 subject to restrictions as set forth in subparagraphs (a)
 and (c) of the Commercial Computer Software - Restricted
 Rights clause in FAR 52.227-19.
  
 Gaussian, Inc.
 340 Quinnipiac St., Bldg. 40, Wallingford CT 06492
  
  
 ---------------------------------------------------------------
 Warning -- This program may not be used in any manner that
 competes with the business of Gaussian, Inc. or will provide
 assistance to any competitor of Gaussian, Inc.  The licensee
 of this program is prohibited from giving any competitor of
 Gaussian, Inc. access to this program.  By using this program,
 the user acknowledges that Gaussian, Inc. is engaged in the
 business of creating and licensing software in the field of
 computational chemistry and represents and warrants to the
 licensee that it is not a competitor of Gaussian, Inc. and that
 it will not use this program in any manner prohibited above.
 ---------------------------------------------------------------
  

 Cite this work as:
 Gaussian 16, Revision C.01,
 M. J. Frisch, G. W. Trucks, H. B. Schlegel, G. E. Scuseria, 
 M. A. Robb, J. R. Cheeseman, G. Scalmani, V. Barone, 
 G. A. Petersson, H. Nakatsuji, X. Li, M. Caricato, A. V. Marenich, 
 J. Bloino, B. G. Janesko, R. Gomperts, B. Mennucci, H. P. Hratchian, 
 J. V. Ortiz, A. F. Izmaylov, J. L. Sonnenberg, D. Williams-Young, 
 F. Ding, F. Lipparini, F. Egidi, J. Goings, B. Peng, A. Petrone, 
 T. Henderson, D. Ranasinghe, V. G. Zakrzewski, J. Gao, N. Rega, 
 G. Zheng, W. Liang, M. Hada, M. Ehara, K. Toyota, R. Fukuda, 
 J. Hasegawa, M. Ishida, T. Nakajima, Y. Honda, O. Kitao, H. Nakai, 
 T. Vreven, K. Throssell, J. A. Montgomery, Jr., J. E. Peralta, 
 F. Ogliaro, M. J. Bearpark, J. J. Heyd, E. N. Brothers, K. N. Kudin, 
 V. N. Staroverov, T. A. Keith, R. Kobayashi, J. Normand, 
 K. Raghavachari, A. P. Rendell, J. C. Burant, S. S. Iyengar, 
 J. Tomasi, M. Cossi, J. M. Millam, M. Klene, C. Adamo, R. Cammi, 
 J. W. Ochterski, R. L. Martin, K. Morokuma, O. Farkas, 
 J. B. Foresman, and D. J. Fox, Gaussian, Inc., Wallingford CT, 2019.
 
 ******************************************
 Gaussian 16:  ES64L-G16RevC.01  3-Jul-2019
                 9-Apr-2025 
 ******************************************
 %nprocs=16
 Will use up to   16 processors via shared memory.
 %mem=30GB
 %chk=Grambow2020_wb97xd3_008282_reverse_mol2.chk
 ----------------------------------------------------------------------
 #t hf aug-cc-pvdz iop(5/13=1,5/36=2,99/5=2) pseudo=read geom=check gue
 ss=(read,tcheck) scf=(maxcycle=1)
 ----------------------------------------------------------------------
 -----
 title
 -----
 Structure from the checkpoint file:  "Grambow2020_wb97xd3_008282_reverse_mol2.chk"
 Charge =  0 Multiplicity = 1
 Z-Matrix found in chk file.
 C,0,-1.24914204,-2.28750927,-0.66889633
 C,0,-1.21700419,-0.98765468,-0.90381986
 C,0,0.86543873,2.20518997,0.36115502
 N,0,1.16394164,0.8963415,0.89839621
 C,0,0.53956041,-0.25862428,0.57109035
 O,0,0.80095508,-1.33543431,1.04198553
 O,0,-0.41591588,-0.00954386,-0.36273456
 H,0,-1.97508797,-2.86575597,-1.22469081
 H,0,-0.15351006,2.51536314,0.599397
 H,0,-0.60086853,-2.78533801,0.03211331
 H,0,-1.88227147,-0.51490408,-1.61523475
 H,0,1.55662667,2.92086299,0.80286866
 H,0,0.99011775,2.22986701,-0.72235263
 H,0,1.87881186,0.79089385,1.59358185
 Recover connectivity data from disk.
                    Distance matrix (angstroms):
                    1          2          3          4          5
     1  C    0.000000
     2  C    1.321304   0.000000
     3  C    5.071174   4.016340   0.000000
     4  N    4.291420   3.530769   1.445966   0.000000
     5  C    2.975466   2.406733   2.494123   1.353118   0.000000
     6  O    2.834865   2.824760   3.606066   2.265657   1.203989
     7  O    2.444816   1.375215   2.659122   2.215181   1.359046
     8  H    1.081792   2.050589   6.024781   5.339886   4.042947
     9  H    5.086901   3.957501   1.091432   2.108628   2.859398
    10  H    1.076804   2.118315   5.211880   4.173699   2.824067
    11  H    2.106784   1.082675   4.342227   4.193968   3.272761
    12  H    6.096357   5.087467   1.088595   2.064465   3.346234
    13  H    5.042205   3.905991   1.090937   2.106023   2.840526
    14  H    4.937557   4.357101   2.132143   1.002717   1.985087
                    6          7          8          9         10
     6  O    0.000000
     7  O    2.282980   0.000000
     8  H    3.896937   3.366294   0.000000
     9  H    3.991933   2.714721   5.966732   0.000000
    10  H    2.255476   2.809830   1.864002   5.349708   0.000000
    11  H    3.864427   1.993576   2.384878   4.132279   3.083929
    12  H    4.329467   3.719790   7.075943   1.769293   6.148949
    13  H    3.982467   2.668561   5.916939   1.770993   5.315330
    14  H    2.446897   3.119880   6.013842   2.844737   4.623465
                   11         12         13         14
    11  H    0.000000
    12  H    5.429341   0.000000
    13  H    4.072054   1.767684   0.000000
    14  H    5.113449   2.294733   2.867747   0.000000
 Framework group  C1[X(C4H7NO2)]
 Deg. of freedom    36
                         Standard orientation:                         
 ---------------------------------------------------------------------
 Center     Atomic      Atomic             Coordinates (Angstroms)
 Number     Number       Type             X           Y           Z
 ---------------------------------------------------------------------
      1          6           0        2.614453   -0.059257   -0.003167
      2          6           0        1.607276   -0.914490    0.000858
      3          6           0       -2.406505   -0.771137    0.001027
      4          7           0       -1.645627    0.458421   -0.007172
      5          6           0       -0.296222    0.558283    0.000670
      6          8           0        0.313406    1.596517    0.004265
      7          8           0        0.251242   -0.685616    0.002710
      8          1           0        3.611217   -0.479647   -0.005866
      9          1           0       -2.220436   -1.353703    0.905028
     10          1           0        2.491399    1.010491   -0.005231
     11          1           0        1.762312   -1.986005    0.003008
     12          1           0       -3.464564   -0.517648   -0.034949
     13          1           0       -2.171546   -1.391734   -0.864881
     14          1           0       -2.120184    1.341694    0.000974
 ---------------------------------------------------------------------
 Rotational constants (GHZ):           5.9634554           1.8409588           1.4191989
 ======================================================================================================
                                       Pseudopotential Parameters
 ======================================================================================================
  Center     Atomic      Valence      Angular      Power
  Number     Number     Electrons     Momentum     of R      Exponent        Coefficient   SO-Coeffient
 ======================================================================================================
    1          6            6
                                      G and up 
                                                     0        0.0000010       -0.00286759    0.00000000
                                                     2        0.1200000        0.03193960    0.00000000
                                                     2        0.1600000       -0.04027782    0.00000000
                                                     2        0.2600000        0.24782456    0.00000000
                                                     2        0.4000000       -0.62266671    0.00000000
                                                     2        0.7000000        0.35695227    0.00000000
                                      S - G
                                                     0        0.0000010       -0.06602313    0.00000000
                                                     2        0.1200000        1.47277455    0.00000000
                                                     2        0.1600000       -4.06924166    0.00000000
                                                     2        0.3000000        5.02952802    0.00000000
                                                     2        0.7000000       -5.65856978    0.00000000
                                                     2        1.7000000        8.57604414    0.00000000
                                      P - G
                                                     0        0.0000010        0.49434425    0.00000000
                                                     2        0.1200000       -1.37391547    0.00000000
                                                     2        0.1600000        3.65411806    0.00000000
                                                     2        0.2800000       -7.36479843    0.00000000
                                                     2        0.6000000       17.22091285    0.00000000
                                                     2        1.1000000      -23.50107827    0.00000000
                                                     2        3.0000000       16.29464063    0.00000000
                                      D - G
                                                     0        0.0000010       -0.28693103    0.00000000
                                                     2        0.1200000        0.12273044    0.00000000
                                                     2        0.3000000       -0.43416384    0.00000000
                                                     2        0.7000000        2.23358493    0.00000000
                                      F - G
                                                     0        0.0000010        0.07263570    0.00000000
                                                     2        0.1400000       -0.76152861    0.00000000
                                                     2        0.2200000        1.98045593    0.00000000
                                                     2        0.4000000       -2.42426427    0.00000000
                                                     2        0.7000000        0.52335237    0.00000000
    2          6            6
                                      G and up 
                                                     0        0.0000010       -0.00286759    0.00000000
                                                     2        0.1200000        0.03193960    0.00000000
                                                     2        0.1600000       -0.04027782    0.00000000
                                                     2        0.2600000        0.24782456    0.00000000
                                                     2        0.4000000       -0.62266671    0.00000000
                                                     2        0.7000000        0.35695227    0.00000000
                                      S - G
                                                     0        0.0000010       -0.06602313    0.00000000
                                                     2        0.1200000        1.47277455    0.00000000
                                                     2        0.1600000       -4.06924166    0.00000000
                                                     2        0.3000000        5.02952802    0.00000000
                                                     2        0.7000000       -5.65856978    0.00000000
                                                     2        1.7000000        8.57604414    0.00000000
                                      P - G
                                                     0        0.0000010        0.49434425    0.00000000
                                                     2        0.1200000       -1.37391547    0.00000000
                                                     2        0.1600000        3.65411806    0.00000000
                                                     2        0.2800000       -7.36479843    0.00000000
                                                     2        0.6000000       17.22091285    0.00000000
                                                     2        1.1000000      -23.50107827    0.00000000
                                                     2        3.0000000       16.29464063    0.00000000
                                      D - G
                                                     0        0.0000010       -0.28693103    0.00000000
                                                     2        0.1200000        0.12273044    0.00000000
                                                     2        0.3000000       -0.43416384    0.00000000
                                                     2        0.7000000        2.23358493    0.00000000
                                      F - G
                                                     0        0.0000010        0.07263570    0.00000000
                                                     2        0.1400000       -0.76152861    0.00000000
                                                     2        0.2200000        1.98045593    0.00000000
                                                     2        0.4000000       -2.42426427    0.00000000
                                                     2        0.7000000        0.52335237    0.00000000
    3          6            6
                                      G and up 
                                                     0        0.0000010       -0.00286759    0.00000000
                                                     2        0.1200000        0.03193960    0.00000000
                                                     2        0.1600000       -0.04027782    0.00000000
                                                     2        0.2600000        0.24782456    0.00000000
                                                     2        0.4000000       -0.62266671    0.00000000
                                                     2        0.7000000        0.35695227    0.00000000
                                      S - G
                                                     0        0.0000010       -0.06602313    0.00000000
                                                     2        0.1200000        1.47277455    0.00000000
                                                     2        0.1600000       -4.06924166    0.00000000
                                                     2        0.3000000        5.02952802    0.00000000
                                                     2        0.7000000       -5.65856978    0.00000000
                                                     2        1.7000000        8.57604414    0.00000000
                                      P - G
                                                     0        0.0000010        0.49434425    0.00000000
                                                     2        0.1200000       -1.37391547    0.00000000
                                                     2        0.1600000        3.65411806    0.00000000
                                                     2        0.2800000       -7.36479843    0.00000000
                                                     2        0.6000000       17.22091285    0.00000000
                                                     2        1.1000000      -23.50107827    0.00000000
                                                     2        3.0000000       16.29464063    0.00000000
                                      D - G
                                                     0        0.0000010       -0.28693103    0.00000000
                                                     2        0.1200000        0.12273044    0.00000000
                                                     2        0.3000000       -0.43416384    0.00000000
                                                     2        0.7000000        2.23358493    0.00000000
                                      F - G
                                                     0        0.0000010        0.07263570    0.00000000
                                                     2        0.1400000       -0.76152861    0.00000000
                                                     2        0.2200000        1.98045593    0.00000000
                                                     2        0.4000000       -2.42426427    0.00000000
                                                     2        0.7000000        0.52335237    0.00000000
    4          7            7
                                      G and up 
                                                     0        0.0000010        0.00420138    0.00000000
                                                     2        0.1200000        0.05872431    0.00000000
                                                     2        0.1400000       -0.08436978    0.00000000
                                                     2        0.2000000        0.05409159    0.00000000
                                                     2        0.2600000        0.14199713    0.00000000
                                                     2        0.6000000       -0.79062770    0.00000000
                                                     2        0.7000000       -0.14441060    0.00000000
                                                     2        1.5000000        0.73772979    0.00000000
                                      S - G
                                                     0        0.0000010       -0.03094411    0.00000000
                                                     2        0.1200000        0.65332522    0.00000000
                                                     2        0.1800000       -1.38149133    0.00000000
                                                     2        1.3000000        3.29267299    0.00000000
                                      P - G
                                                     0        0.0000010        0.07303105    0.00000000
                                                     2        0.1200000        0.23145115    0.00000000
                                                     2        0.2000000       -1.20679699    0.00000000
                                                     2        0.4000000        1.75088447    0.00000000
                                                     2        1.2000000       -0.67486559    0.00000000
                                      D - G
                                                     0        0.0000010        0.07560739    0.00000000
                                                     2        0.3000000       -0.68679114    0.00000000
                                                     2        0.9000000        3.60133241    0.00000000
                                      F - G
                                                     0        0.0000010       -0.18221184    0.00000000
                                                     2        0.1200000       -0.39369067    0.00000000
                                                     2        0.1800000        0.72091725    0.00000000
                                                     2        0.6000000        0.15946111    0.00000000
    5          6            6
                                      G and up 
                                                     0        0.0000010       -0.00286759    0.00000000
                                                     2        0.1200000        0.03193960    0.00000000
                                                     2        0.1600000       -0.04027782    0.00000000
                                                     2        0.2600000        0.24782456    0.00000000
                                                     2        0.4000000       -0.62266671    0.00000000
                                                     2        0.7000000        0.35695227    0.00000000
                                      S - G
                                                     0        0.0000010       -0.06602313    0.00000000
                                                     2        0.1200000        1.47277455    0.00000000
                                                     2        0.1600000       -4.06924166    0.00000000
                                                     2        0.3000000        5.02952802    0.00000000
                                                     2        0.7000000       -5.65856978    0.00000000
                                                     2        1.7000000        8.57604414    0.00000000
                                      P - G
                                                     0        0.0000010        0.49434425    0.00000000
                                                     2        0.1200000       -1.37391547    0.00000000
                                                     2        0.1600000        3.65411806    0.00000000
                                                     2        0.2800000       -7.36479843    0.00000000
                                                     2        0.6000000       17.22091285    0.00000000
                                                     2        1.1000000      -23.50107827    0.00000000
                                                     2        3.0000000       16.29464063    0.00000000
                                      D - G
                                                     0        0.0000010       -0.28693103    0.00000000
                                                     2        0.1200000        0.12273044    0.00000000
                                                     2        0.3000000       -0.43416384    0.00000000
                                                     2        0.7000000        2.23358493    0.00000000
                                      F - G
                                                     0        0.0000010        0.07263570    0.00000000
                                                     2        0.1400000       -0.76152861    0.00000000
                                                     2        0.2200000        1.98045593    0.00000000
                                                     2        0.4000000       -2.42426427    0.00000000
                                                     2        0.7000000        0.52335237    0.00000000
    6          8            8
                                      G and up 
                                                     0        0.0000010       -0.00165251    0.00000000
                                                     2        0.1200000       -0.10937202    0.00000000
                                                     2        0.1400000        0.35668905    0.00000000
                                                     2        0.1800000       -0.51696033    0.00000000
                                                     2        0.2400000        0.52446472    0.00000000
                                                     2        0.4000000       -0.07754493    0.00000000
                                                     2        0.8000000       -1.90560988    0.00000000
                                                     2        1.7000000        0.19857963    0.00000000
                                      S - G
                                                     0        0.0000010       -0.03845181    0.00000000
                                                     2        0.1400000        0.42024558    0.00000000
                                                     2        0.4000000       -4.10467779    0.00000000
                                                     2        1.3000000        9.99571838    0.00000000
                                      P - G
                                                     0        0.0000010        0.33206183    0.00000000
                                                     2        0.1200000       -0.18708141    0.00000000
                                                     2        0.2800000       -0.18179081    0.00000000
                                                     2        0.7000000        1.18820394    0.00000000
                                      D - G
                                                     0        0.0000010       -0.57891674    0.00000000
                                                     2        0.1200000        0.60487490    0.00000000
                                                     2        0.2400000       -0.24931464    0.00000000
                                                     2        0.3000000       -2.75054612    0.00000000
                                                     2        1.0000000       15.96776040    0.00000000
                                      F - G
                                                     0        0.0000010        0.37449041    0.00000000
                                                     2        0.1200000       -0.63373642    0.00000000
                                                     2        0.1400000       -0.08412804    0.00000000
                                                     2        0.2800000        2.62321406    0.00000000
                                                     2        0.6000000       -2.68223623    0.00000000
    7          8            8
                                      G and up 
                                                     0        0.0000010       -0.00165251    0.00000000
                                                     2        0.1200000       -0.10937202    0.00000000
                                                     2        0.1400000        0.35668905    0.00000000
                                                     2        0.1800000       -0.51696033    0.00000000
                                                     2        0.2400000        0.52446472    0.00000000
                                                     2        0.4000000       -0.07754493    0.00000000
                                                     2        0.8000000       -1.90560988    0.00000000
                                                     2        1.7000000        0.19857963    0.00000000
                                      S - G
                                                     0        0.0000010       -0.03845181    0.00000000
                                                     2        0.1400000        0.42024558    0.00000000
                                                     2        0.4000000       -4.10467779    0.00000000
                                                     2        1.3000000        9.99571838    0.00000000
                                      P - G
                                                     0        0.0000010        0.33206183    0.00000000
                                                     2        0.1200000       -0.18708141    0.00000000
                                                     2        0.2800000       -0.18179081    0.00000000
                                                     2        0.7000000        1.18820394    0.00000000
                                      D - G
                                                     0        0.0000010       -0.57891674    0.00000000
                                                     2        0.1200000        0.60487490    0.00000000
                                                     2        0.2400000       -0.24931464    0.00000000
                                                     2        0.3000000       -2.75054612    0.00000000
                                                     2        1.0000000       15.96776040    0.00000000
                                      F - G
                                                     0        0.0000010        0.37449041    0.00000000
                                                     2        0.1200000       -0.63373642    0.00000000
                                                     2        0.1400000       -0.08412804    0.00000000
                                                     2        0.2800000        2.62321406    0.00000000
                                                     2        0.6000000       -2.68223623    0.00000000
    8          1            1
                                      F and up 
                                                     0        0.0000010        0.00072061    0.00000000
                                                     2        0.1200000        0.03832357    0.00000000
                                                     2        0.1400000       -0.08683256    0.00000000
                                                     2        0.1800000        0.09312970    0.00000000
                                                     2        0.2800000       -0.02532572    0.00000000
                                                     2        0.4000000       -0.09430787    0.00000000
                                                     2        0.7000000        0.42710831    0.00000000
                                                     2        1.2000000       -2.11746981    0.00000000
                                      S - F
                                                     0        0.0000010        0.14449603    0.00000000
                                                     2        0.1200000       -0.56378993    0.00000000
                                                     2        0.1400000        0.63941249    0.00000000
                                                     2        0.2600000       -0.58461015    0.00000000
                                                     2        0.5000000        1.00157293    0.00000000
                                                     2        1.8000000       -0.14135838    0.00000000
                                      P - F
                                                     0        0.0000010       -0.09353646    0.00000000
                                                     2        0.1200000        0.31768975    0.00000000
                                                     2        0.2000000       -0.71747951    0.00000000
                                                     2        0.4000000        0.65752308    0.00000000
                                                     2        1.7000000        2.94052587    0.00000000
                                      D - F
                                                     0        0.0000010       -0.04491202    0.00000000
                                                     2        0.1200000       -0.02862031    0.00000000
                                                     2        0.1800000       -0.21515263    0.00000000
                                                     2        0.3000000        0.80560647    0.00000000
                                                     2        0.4000000        0.47351754    0.00000000
                                                     2        0.7000000       -4.57051794    0.00000000
                                                     2        1.6000000       18.53737826    0.00000000
    9          1            1
                                      F and up 
                                                     0        0.0000010        0.00072061    0.00000000
                                                     2        0.1200000        0.03832357    0.00000000
                                                     2        0.1400000       -0.08683256    0.00000000
                                                     2        0.1800000        0.09312970    0.00000000
                                                     2        0.2800000       -0.02532572    0.00000000
                                                     2        0.4000000       -0.09430787    0.00000000
                                                     2        0.7000000        0.42710831    0.00000000
                                                     2        1.2000000       -2.11746981    0.00000000
                                      S - F
                                                     0        0.0000010        0.14449603    0.00000000
                                                     2        0.1200000       -0.56378993    0.00000000
                                                     2        0.1400000        0.63941249    0.00000000
                                                     2        0.2600000       -0.58461015    0.00000000
                                                     2        0.5000000        1.00157293    0.00000000
                                                     2        1.8000000       -0.14135838    0.00000000
                                      P - F
                                                     0        0.0000010       -0.09353646    0.00000000
                                                     2        0.1200000        0.31768975    0.00000000
                                                     2        0.2000000       -0.71747951    0.00000000
                                                     2        0.4000000        0.65752308    0.00000000
                                                     2        1.7000000        2.94052587    0.00000000
                                      D - F
                                                     0        0.0000010       -0.04491202    0.00000000
                                                     2        0.1200000       -0.02862031    0.00000000
                                                     2        0.1800000       -0.21515263    0.00000000
                                                     2        0.3000000        0.80560647    0.00000000
                                                     2        0.4000000        0.47351754    0.00000000
                                                     2        0.7000000       -4.57051794    0.00000000
                                                     2        1.6000000       18.53737826    0.00000000
   10          1            1
                                      F and up 
                                                     0        0.0000010        0.00072061    0.00000000
                                                     2        0.1200000        0.03832357    0.00000000
                                                     2        0.1400000       -0.08683256    0.00000000
                                                     2        0.1800000        0.09312970    0.00000000
                                                     2        0.2800000       -0.02532572    0.00000000
                                                     2        0.4000000       -0.09430787    0.00000000
                                                     2        0.7000000        0.42710831    0.00000000
                                                     2        1.2000000       -2.11746981    0.00000000
                                      S - F
                                                     0        0.0000010        0.14449603    0.00000000
                                                     2        0.1200000       -0.56378993    0.00000000
                                                     2        0.1400000        0.63941249    0.00000000
                                                     2        0.2600000       -0.58461015    0.00000000
                                                     2        0.5000000        1.00157293    0.00000000
                                                     2        1.8000000       -0.14135838    0.00000000
                                      P - F
                                                     0        0.0000010       -0.09353646    0.00000000
                                                     2        0.1200000        0.31768975    0.00000000
                                                     2        0.2000000       -0.71747951    0.00000000
                                                     2        0.4000000        0.65752308    0.00000000
                                                     2        1.7000000        2.94052587    0.00000000
                                      D - F
                                                     0        0.0000010       -0.04491202    0.00000000
                                                     2        0.1200000       -0.02862031    0.00000000
                                                     2        0.1800000       -0.21515263    0.00000000
                                                     2        0.3000000        0.80560647    0.00000000
                                                     2        0.4000000        0.47351754    0.00000000
                                                     2        0.7000000       -4.57051794    0.00000000
                                                     2        1.6000000       18.53737826    0.00000000
   11          1            1
                                      F and up 
                                                     0        0.0000010        0.00072061    0.00000000
                                                     2        0.1200000        0.03832357    0.00000000
                                                     2        0.1400000       -0.08683256    0.00000000
                                                     2        0.1800000        0.09312970    0.00000000
                                                     2        0.2800000       -0.02532572    0.00000000
                                                     2        0.4000000       -0.09430787    0.00000000
                                                     2        0.7000000        0.42710831    0.00000000
                                                     2        1.2000000       -2.11746981    0.00000000
                                      S - F
                                                     0        0.0000010        0.14449603    0.00000000
                                                     2        0.1200000       -0.56378993    0.00000000
                                                     2        0.1400000        0.63941249    0.00000000
                                                     2        0.2600000       -0.58461015    0.00000000
                                                     2        0.5000000        1.00157293    0.00000000
                                                     2        1.8000000       -0.14135838    0.00000000
                                      P - F
                                                     0        0.0000010       -0.09353646    0.00000000
                                                     2        0.1200000        0.31768975    0.00000000
                                                     2        0.2000000       -0.71747951    0.00000000
                                                     2        0.4000000        0.65752308    0.00000000
                                                     2        1.7000000        2.94052587    0.00000000
                                      D - F
                                                     0        0.0000010       -0.04491202    0.00000000
                                                     2        0.1200000       -0.02862031    0.00000000
                                                     2        0.1800000       -0.21515263    0.00000000
                                                     2        0.3000000        0.80560647    0.00000000
                                                     2        0.4000000        0.47351754    0.00000000
                                                     2        0.7000000       -4.57051794    0.00000000
                                                     2        1.6000000       18.53737826    0.00000000
   12          1            1
                                      F and up 
                                                     0        0.0000010        0.00072061    0.00000000
                                                     2        0.1200000        0.03832357    0.00000000
                                                     2        0.1400000       -0.08683256    0.00000000
                                                     2        0.1800000        0.09312970    0.00000000
                                                     2        0.2800000       -0.02532572    0.00000000
                                                     2        0.4000000       -0.09430787    0.00000000
                                                     2        0.7000000        0.42710831    0.00000000
                                                     2        1.2000000       -2.11746981    0.00000000
                                      S - F
                                                     0        0.0000010        0.14449603    0.00000000
                                                     2        0.1200000       -0.56378993    0.00000000
                                                     2        0.1400000        0.63941249    0.00000000
                                                     2        0.2600000       -0.58461015    0.00000000
                                                     2        0.5000000        1.00157293    0.00000000
                                                     2        1.8000000       -0.14135838    0.00000000
                                      P - F
                                                     0        0.0000010       -0.09353646    0.00000000
                                                     2        0.1200000        0.31768975    0.00000000
                                                     2        0.2000000       -0.71747951    0.00000000
                                                     2        0.4000000        0.65752308    0.00000000
                                                     2        1.7000000        2.94052587    0.00000000
                                      D - F
                                                     0        0.0000010       -0.04491202    0.00000000
                                                     2        0.1200000       -0.02862031    0.00000000
                                                     2        0.1800000       -0.21515263    0.00000000
                                                     2        0.3000000        0.80560647    0.00000000
                                                     2        0.4000000        0.47351754    0.00000000
                                                     2        0.7000000       -4.57051794    0.00000000
                                                     2        1.6000000       18.53737826    0.00000000
   13          1            1
                                      F and up 
                                                     0        0.0000010        0.00072061    0.00000000
                                                     2        0.1200000        0.03832357    0.00000000
                                                     2        0.1400000       -0.08683256    0.00000000
                                                     2        0.1800000        0.09312970    0.00000000
                                                     2        0.2800000       -0.02532572    0.00000000
                                                     2        0.4000000       -0.09430787    0.00000000
                                                     2        0.7000000        0.42710831    0.00000000
                                                     2        1.2000000       -2.11746981    0.00000000
                                      S - F
                                                     0        0.0000010        0.14449603    0.00000000
                                                     2        0.1200000       -0.56378993    0.00000000
                                                     2        0.1400000        0.63941249    0.00000000
                                                     2        0.2600000       -0.58461015    0.00000000
                                                     2        0.5000000        1.00157293    0.00000000
                                                     2        1.8000000       -0.14135838    0.00000000
                                      P - F
                                                     0        0.0000010       -0.09353646    0.00000000
                                                     2        0.1200000        0.31768975    0.00000000
                                                     2        0.2000000       -0.71747951    0.00000000
                                                     2        0.4000000        0.65752308    0.00000000
                                                     2        1.7000000        2.94052587    0.00000000
                                      D - F
                                                     0        0.0000010       -0.04491202    0.00000000
                                                     2        0.1200000       -0.02862031    0.00000000
                                                     2        0.1800000       -0.21515263    0.00000000
                                                     2        0.3000000        0.80560647    0.00000000
                                                     2        0.4000000        0.47351754    0.00000000
                                                     2        0.7000000       -4.57051794    0.00000000
                                                     2        1.6000000       18.53737826    0.00000000
   14          1            1
                                      F and up 
                                                     0        0.0000010        0.00072061    0.00000000
                                                     2        0.1200000        0.03832357    0.00000000
                                                     2        0.1400000       -0.08683256    0.00000000
                                                     2        0.1800000        0.09312970    0.00000000
                                                     2        0.2800000       -0.02532572    0.00000000
                                                     2        0.4000000       -0.09430787    0.00000000
                                                     2        0.7000000        0.42710831    0.00000000
                                                     2        1.2000000       -2.11746981    0.00000000
                                      S - F
                                                     0        0.0000010        0.14449603    0.00000000
                                                     2        0.1200000       -0.56378993    0.00000000
                                                     2        0.1400000        0.63941249    0.00000000
                                                     2        0.2600000       -0.58461015    0.00000000
                                                     2        0.5000000        1.00157293    0.00000000
                                                     2        1.8000000       -0.14135838    0.00000000
                                      P - F
                                                     0        0.0000010       -0.09353646    0.00000000
                                                     2        0.1200000        0.31768975    0.00000000
                                                     2        0.2000000       -0.71747951    0.00000000
                                                     2        0.4000000        0.65752308    0.00000000
                                                     2        1.7000000        2.94052587    0.00000000
                                      D - F
                                                     0        0.0000010       -0.04491202    0.00000000
                                                     2        0.1200000       -0.02862031    0.00000000
                                                     2        0.1800000       -0.21515263    0.00000000
                                                     2        0.3000000        0.80560647    0.00000000
                                                     2        0.4000000        0.47351754    0.00000000
                                                     2        0.7000000       -4.57051794    0.00000000
                                                     2        1.6000000       18.53737826    0.00000000
 ======================================================================================================
   224 basis functions,   378 primitive gaussians,   238 cartesian basis functions
    27 alpha electrons       27 beta electrons
       nuclear repulsion energy       305.3974817250 Hartrees.
 NAtoms=   14 NActive=   14 NUniq=   14 SFac= 1.00D+00 NAtFMM=   60 NAOKFM=F Big=F
   1 Symmetry operations used in ECPInt.
 ECPInt:  NShTT=    4851 NPrTT=   22491 LenC2=    4843 LenP2D=   17353.
 LDataN:  DoStor=T MaxTD1= 6 Len=  172
 Initial guess from the checkpoint file:  "Grambow2020_wb97xd3_008282_reverse_mol2.chk"
 B after Tr=    -0.133124   -0.448510   -0.022916
         Rot=   -0.408390   -0.289076    0.231902    0.834191 Ang=-228.21 deg.
 >>>>>>>>>> Convergence criterion not met.
 SCF Done:  E(RHF) =  -361.361197232     A.U. after    2 cycles
            NFock=  1  Conv=0.29D+00     -V/T= 2.0313

 **********************************************************************

            Population analysis using the SCF Density.

 **********************************************************************

 Orbital symmetries:
       Occupied  (A) (A) (A) (A) (A) (A) (A) (A) (A) (A) (A) (A)
                 (A) (A) (A) (A) (A) (A) (A) (A) (A) (A) (A) (A)
                 (A) (A) (A)
       Virtual   (A) (A) (A) (A) (A) (A) (A) (A) (A) (A) (A) (A)
                 (A) (A) (A) (A) (A) (A) (A) (A) (A) (A) (A) (A)
                 (A) (A) (A) (A) (A) (A) (A) (A) (A) (A) (A) (A)
                 (A) (A) (A) (A) (A) (A) (A) (A) (A) (A) (A) (A)
                 (A) (A) (A) (A) (A) (A) (A) (A) (A) (A) (A) (A)
                 (A) (A) (A) (A) (A) (A) (A) (A) (A) (A) (A) (A)
                 (A) (A) (A) (A) (A) (A) (A) (A) (A) (A) (A) (A)
                 (A) (A) (A) (A) (A) (A) (A) (A) (A) (A) (A) (A)
                 (A) (A) (A) (A) (A) (A) (A) (A) (A) (A) (A) (A)
                 (A) (A) (A) (A) (A) (A) (A) (A) (A) (A) (A) (A)
                 (A) (A) (A) (A) (A) (A) (A) (A) (A) (A) (A) (A)
                 (A) (A) (A) (A) (A) (A) (A) (A) (A) (A) (A) (A)
                 (A) (A) (A) (A) (A) (A) (A) (A) (A) (A) (A) (A)
                 (A) (A) (A) (A) (A) (A) (A) (A) (A) (A) (A) (A)
                 (A) (A) (A) (A) (A) (A) (A) (A) (A) (A) (A) (A)
                 (A) (A) (A) (A) (A) (A) (A) (A) (A) (A) (A) (A)
                 (A) (A) (A) (A) (A)
 The electronic state is 1-A.
 Alpha  occ. eigenvalues --  -21.10611 -21.02933 -15.76617 -11.52341 -11.45408
 Alpha  occ. eigenvalues --  -11.40981 -11.37407  -1.86519  -1.67609  -1.39792
 Alpha  occ. eigenvalues --   -1.12016  -1.02263  -0.89066  -0.76857  -0.67025
 Alpha  occ. eigenvalues --   -0.64662  -0.64574  -0.63339  -0.56514  -0.55949
 Alpha  occ. eigenvalues --   -0.53494  -0.52388  -0.45555  -0.43160  -0.32020
 Alpha  occ. eigenvalues --   -0.29891  -0.29227
 Alpha virt. eigenvalues --    0.03155   0.04822   0.05138   0.05731   0.06058
 Alpha virt. eigenvalues --    0.06879   0.08178   0.10304   0.11689   0.12584
 Alpha virt. eigenvalues --    0.12702   0.13387   0.13567   0.14382   0.14852
 Alpha virt. eigenvalues --    0.15256   0.16404   0.16872   0.18253   0.18743
 Alpha virt. eigenvalues --    0.19018   0.19358   0.21412   0.22723   0.24001
 Alpha virt. eigenvalues --    0.25416   0.26641   0.27217   0.27410   0.28451
 Alpha virt. eigenvalues --    0.30024   0.30918   0.32266   0.32330   0.34018
 Alpha virt. eigenvalues --    0.35124   0.36301   0.36698   0.37656   0.37857
 Alpha virt. eigenvalues --    0.39207   0.39658   0.41499   0.42306   0.42808
 Alpha virt. eigenvalues --    0.43556   0.44354   0.44635   0.44929   0.46449
 Alpha virt. eigenvalues --    0.48867   0.49449   0.50238   0.51467   0.52335
 Alpha virt. eigenvalues --    0.54202   0.55065   0.55925   0.57667   0.59146
 Alpha virt. eigenvalues --    0.60066   0.60311   0.61412   0.61690   0.62798
 Alpha virt. eigenvalues --    0.63305   0.63759   0.64696   0.66125   0.67997
 Alpha virt. eigenvalues --    0.68403   0.71095   0.71916   0.73532   0.73712
 Alpha virt. eigenvalues --    0.75073   0.75391   0.77466   0.79370   0.80918
 Alpha virt. eigenvalues --    0.81150   0.82604   0.84316   0.84779   0.85437
 Alpha virt. eigenvalues --    0.88055   0.90324   0.92045   0.93244   0.93698
 Alpha virt. eigenvalues --    0.95225   0.95799   0.98507   0.98819   1.01430
 Alpha virt. eigenvalues --    1.06257   1.08586   1.08956   1.13320   1.16814
 Alpha virt. eigenvalues --    1.17913   1.18502   1.21690   1.21905   1.25456
 Alpha virt. eigenvalues --    1.30383   1.32070   1.36815   1.38897   1.40699
 Alpha virt. eigenvalues --    1.48953   1.49731   1.53336   1.56875   1.60116
 Alpha virt. eigenvalues --    1.60804   1.64239   1.71328   1.73204   1.74880
 Alpha virt. eigenvalues --    1.75883   1.78464   1.80502   1.83852   1.87186
 Alpha virt. eigenvalues --    1.89651   1.94561   1.95087   1.96316   2.00022
 Alpha virt. eigenvalues --    2.01412   2.03506   2.08070   2.10675   2.14891
 Alpha virt. eigenvalues --    2.15611   2.18698   2.19958   2.21612   2.26062
 Alpha virt. eigenvalues --    2.26973   2.28726   2.29039   2.29648   2.32128
 Alpha virt. eigenvalues --    2.35700   2.36603   2.39804   2.42594   2.44929
 Alpha virt. eigenvalues --    2.50750   2.52867   2.55011   2.57381   2.59868
 Alpha virt. eigenvalues --    2.61187   2.66337   2.67119   2.67977   2.72568
 Alpha virt. eigenvalues --    2.74919   2.86595   2.89029   2.89538   2.92635
 Alpha virt. eigenvalues --    2.98183   3.03290   3.09722   3.12267   3.14793
 Alpha virt. eigenvalues --    3.20567   3.26117   3.30837   3.32994   3.37861
 Alpha virt. eigenvalues --    3.43682   3.52098   3.60740   3.65609   3.69382
 Alpha virt. eigenvalues --    3.81271   3.85519   3.92654   3.99018   4.01001
 Alpha virt. eigenvalues --    4.22053   4.41964   6.01801   6.04484   6.08433
 Alpha virt. eigenvalues --    6.12981   6.17650   6.18712   6.27316   6.46905
 Alpha virt. eigenvalues --    6.48687   6.56682
          Condensed to atoms (all electrons):
 Mulliken charges:
               1
     1  C   -2.916255
     2  C    0.302914
     3  C   -3.325995
     4  N   -2.594139
     5  C    5.645262
     6  O   -2.910542
     7  O   -3.368898
     8  H    1.335578
     9  H    1.378572
    10  H    1.501699
    11  H    1.749277
    12  H    1.320802
    13  H    1.385406
    14  H    0.496318
 Sum of Mulliken charges =   0.00000
 Mulliken charges with hydrogens summed into heavy atoms:
               1
     1  C   -0.078978
     2  C    2.052191
     3  C    0.758786
     4  N   -2.097821
     5  C    5.645262
     6  O   -2.910542
     7  O   -3.368898
 Electronic spatial extent (au):  <R**2>=            858.8486
 Charge=             -0.0000 electrons
 Dipole moment (field-independent basis, Debye):
    X=             -1.9464    Y=             -1.6002    Z=              0.0047  Tot=              2.5198

 Test job not archived.
 1\1\GINC-SE162\SP\RHF\Aug-CC-pVDZ\C4H7N1O2\OHZDE\09-Apr-2025\0\\#t hf 
 aug-cc-pvdz iop(5/13=1,5/36=2,99/5=2) pseudo=read geom=check guess=(re
 ad,tcheck) scf=(maxcycle=1)\\title\\0,1\C,0,-1.24914204,-2.28750927,-0
 .66889633\C,0,-1.21700419,-0.98765468,-0.90381986\C,0,0.86543873,2.205
 18997,0.36115502\N,0,1.16394164,0.8963415,0.89839621\C,0,0.53956041,-0
 .25862428,0.57109035\O,0,0.80095508,-1.33543431,1.04198553\O,0,-0.4159
 1588,-0.00954386,-0.36273456\H,0,-1.97508797,-2.86575597,-1.22469081\H
 ,0,-0.15351006,2.51536314,0.599397\H,0,-0.60086853,-2.78533801,0.03211
 331\H,0,-1.88227147,-0.51490408,-1.61523475\H,0,1.55662667,2.92086299,
 0.80286866\H,0,0.99011775,2.22986701,-0.72235263\H,0,1.87881186,0.7908
 9385,1.59358185\\Version=ES64L-G16RevC.01\State=1-A\HF=-361.3611972\RM
 SD=2.940e-01\Dipole=0.0365712,0.9765748,-0.1666287\Quadrupole=0.377130
 1,0.4842469,-0.861377,2.5912003,2.1511098,1.7886582\PG=C01 [X(C4H7N1O2
 )]\\@


 QUANTUM MECHANICS IS BOHRING -- M.S. GORDON
 Job cpu time:       0 days  0 hours  0 minutes 50.9 seconds.
 Elapsed time:       0 days  0 hours  0 minutes  4.1 seconds.
 File lengths (MBytes):  RWF=     10 Int=      0 D2E=      0 Chk=      7 Scr=      1
 Normal termination of Gaussian 16 at Wed Apr  9 19:11:59 2025.
