 Entering Gaussian System, Link 0=g16
 Input=Grambow2020_wb97xd3_006730_reverse_mol1.gjf
 Output=Grambow2020_wb97xd3_006730_reverse_mol1.log
 Initial command:
 /arc/software/Gaussian/g16.c01/l1.exe "/tmp/slurm/4864113/Gau-300671.inp" -scrdir="/tmp/slurm/4864113/"
 Entering Link 1 = /arc/software/Gaussian/g16.c01/l1.exe PID=    300672.
  
 Copyright (c) 1988-2019, Gaussian, Inc.  All Rights Reserved.
  
 This is part of the Gaussian(R) 16 program.  It is based on
 the Gaussian(R) 09 system (copyright 2009, Gaussian, Inc.),
 the Gaussian(R) 03 system (copyright 2003, Gaussian, Inc.),
 the Gaussian(R) 98 system (copyright 1998, Gaussian, Inc.),
 the Gaussian(R) 94 system (copyright 1995, Gaussian, Inc.),
 the Gaussian 92(TM) system (copyright 1992, Gaussian, Inc.),
 the Gaussian 90(TM) system (copyright 1990, Gaussian, Inc.),
 the Gaussian 88(TM) system (copyright 1988, Gaussian, Inc.),
 the Gaussian 86(TM) system (copyright 1986, Carnegie Mellon
 University), and the Gaussian 82(TM) system (copyright 1983,
 Carnegie Mellon University). Gaussian is a federally registered
 trademark of Gaussian, Inc.
  
 This software contains proprietary and confidential information,
 including trade secrets, belonging to Gaussian, Inc.
  
 This software is provided under written license and may be
 used, copied, transmitted, or stored only in accord with that
 written license.
  
 The following legend is applicable only to US Government
 contracts under FAR:
  
                    RESTRICTED RIGHTS LEGEND
  
 Use, reproduction and disclosure by the US Government is
 subject to restrictions as set forth in subparagraphs (a)
 and (c) of the Commercial Computer Software - Restricted
 Rights clause in FAR 52.227-19.
  
 Gaussian, Inc.
 340 Quinnipiac St., Bldg. 40, Wallingford CT 06492
  
  
 ---------------------------------------------------------------
 Warning -- This program may not be used in any manner that
 competes with the business of Gaussian, Inc. or will provide
 assistance to any competitor of Gaussian, Inc.  The licensee
 of this program is prohibited from giving any competitor of
 Gaussian, Inc. access to this program.  By using this program,
 the user acknowledges that Gaussian, Inc. is engaged in the
 business of creating and licensing software in the field of
 computational chemistry and represents and warrants to the
 licensee that it is not a competitor of Gaussian, Inc. and that
 it will not use this program in any manner prohibited above.
 ---------------------------------------------------------------
  

 Cite this work as:
 Gaussian 16, Revision C.01,
 M. J. Frisch, G. W. Trucks, H. B. Schlegel, G. E. Scuseria, 
 M. A. Robb, J. R. Cheeseman, G. Scalmani, V. Barone, 
 G. A. Petersson, H. Nakatsuji, X. Li, M. Caricato, A. V. Marenich, 
 J. Bloino, B. G. Janesko, R. Gomperts, B. Mennucci, H. P. Hratchian, 
 J. V. Ortiz, A. F. Izmaylov, J. L. Sonnenberg, D. Williams-Young, 
 F. Ding, F. Lipparini, F. Egidi, J. Goings, B. Peng, A. Petrone, 
 T. Henderson, D. Ranasinghe, V. G. Zakrzewski, J. Gao, N. Rega, 
 G. Zheng, W. Liang, M. Hada, M. Ehara, K. Toyota, R. Fukuda, 
 J. Hasegawa, M. Ishida, T. Nakajima, Y. Honda, O. Kitao, H. Nakai, 
 T. Vreven, K. Throssell, J. A. Montgomery, Jr., J. E. Peralta, 
 F. Ogliaro, M. J. Bearpark, J. J. Heyd, E. N. Brothers, K. N. Kudin, 
 V. N. Staroverov, T. A. Keith, R. Kobayashi, J. Normand, 
 K. Raghavachari, A. P. Rendell, J. C. Burant, S. S. Iyengar, 
 J. Tomasi, M. Cossi, J. M. Millam, M. Klene, C. Adamo, R. Cammi, 
 J. W. Ochterski, R. L. Martin, K. Morokuma, O. Farkas, 
 J. B. Foresman, and D. J. Fox, Gaussian, Inc., Wallingford CT, 2019.
 
 ******************************************
 Gaussian 16:  ES64L-G16RevC.01  3-Jul-2019
                 9-Apr-2025 
 ******************************************
 %nprocs=16
 Will use up to   16 processors via shared memory.
 %mem=30GB
 %chk=Grambow2020_wb97xd3_006730_reverse_mol1.chk
 ----------------------------------------------------------------------
 #t hf aug-cc-pvdz symm=none int=(grid=ultrafine) guess=(read,tcheck) s
 table=(opt,rrhf)
 ----------------------------------------------------------------------
 -----
 title
 -----
 Symbolic Z-matrix:
 Charge =  0 Multiplicity = 1
 C                    -1.00558  -1.58936  -0.6322 
 C                    -0.82265  -0.10711  -0.44315 
 C                    -0.94051   0.52167   0.90852 
 C                    -0.78866   1.87468   1.08163 
 O                     1.21307   1.70876  -0.22172 
 C                     1.23615   0.56557  -0.69471 
 C                     1.98833  -0.53974   0.01124 
 H                    -2.03432  -1.89333  -0.84511 
 H                    -0.40143  -1.91442  -1.48204 
 H                    -0.66109  -2.14312   0.24349 
 H                    -1.14297   0.53013  -1.26286 
 H                    -0.75417  -0.14906   1.74128 
 H                    -1.97998   0.25573   0.40143 
 H                    -0.56211   2.28254   2.05556 
 H                    -1.02229   2.56769   0.28735 
 H                     1.07791   0.42213  -1.77862 
 H                     1.73678  -0.54472   1.07383 
 H                     1.79556  -1.52319  -0.42013 
 H                     3.05947  -0.33726  -0.06856 
 
                    Distance matrix (angstroms):
                    1          2          3          4          5
     1  C    0.000000
     2  C    1.505406   0.000000
     3  C    2.614284   1.495412   0.000000
     4  C    3.870892   2.500721   1.372463   0.000000
     5  O    3.996057   2.736891   2.706385   2.394407   0.000000
     6  C    3.110137   2.180463   2.703716   2.994827   1.237389
     7  C    3.237166   2.880149   3.241884   3.832340   2.389778
     8  H    1.093631   2.195514   3.178657   4.411563   4.889701
     9  H    1.092196   2.126754   3.455417   4.591256   4.162024
    10  H    1.091865   2.154741   2.760697   4.106271   4.308816
    11  H    2.215590   1.086562   2.180813   2.725802   2.832675
    12  H    2.787661   2.185902   1.085402   2.128813   3.342889
    13  H    2.328560   1.477968   1.186743   2.122007   3.563032
    14  H    4.734168   3.467260   2.135315   1.079915   2.943897
    15  H    4.257573   2.779943   2.139802   1.079697   2.448216
    16  H    3.114692   2.382377   3.362238   3.711474   2.024257
    17  H    3.394463   3.007226   2.886588   3.497338   2.651580
    18  H    2.809937   2.976714   3.665085   4.525373   3.290008
    19  H    4.290698   3.906935   4.206220   4.585163   2.760225
                    6          7          8          9         10
     6  C    0.000000
     7  C    1.511903   0.000000
     8  H    4.094475   4.329812   0.000000
     9  H    3.074393   3.135379   1.752838   0.000000
    10  H    3.437548   3.105518   1.770087   1.759882   0.000000
    11  H    2.446270   3.545843   2.615756   2.563935   3.106058
    12  H    3.225846   3.266035   3.372041   3.691976   2.495655
    13  H    3.411891   4.066021   2.485011   3.278543   2.742059
    14  H    3.707523   4.318484   5.293318   5.491353   4.783295
    15  H    3.173874   4.335462   4.712473   4.858557   4.724848
    16  H    1.104755   2.226582   3.989832   2.781347   3.700487
    17  H    2.147347   1.091973   4.440980   3.602848   2.999028
    18  H    2.179736   1.091066   3.871120   2.471328   2.619133
    19  H    2.128772   1.093024   5.382478   4.057485   4.147422
                   11         12         13         14         15
    11  H    0.000000
    12  H    3.104405   0.000000
    13  H    1.883023   1.860550   0.000000
    14  H    3.797405   2.459344   2.975646   0.000000
    15  H    2.563081   3.092988   2.505071   1.849230   0.000000
    16  H    2.282537   4.009050   3.759128   4.566376   3.644521
    17  H    3.861139   2.608997   3.860977   3.773872   4.232981
    18  H    3.682563   3.614008   4.253732   5.115791   5.017585
    19  H    4.454123   4.225495   5.095940   4.948854   5.022570
                   16         17         18         19
    16  H    0.000000
    17  H    3.083083   0.000000
    18  H    2.478867   1.786843   0.000000
    19  H    2.725353   1.760004   1.768476   0.000000
 Symmetry turned off by external request.
 Rotational constants (GHZ):           2.7162657           2.5106908           1.5703612
   269 basis functions,   433 primitive gaussians,   283 cartesian basis functions
    28 alpha electrons       28 beta electrons
       nuclear repulsion energy       317.3488565928 Hartrees.
 NAtoms=   19 NActive=   19 NUniq=   19 SFac= 1.00D+00 NAtFMM=   60 NAOKFM=F Big=F
 ExpMin= 2.97D-02 ExpMax= 1.17D+04 ExpMxC= 4.01D+02 IAcc=3 IRadAn=         5 AccDes= 0.00D+00
 Harris functional with IExCor=  205 and IRadAn=       5 diagonalized for initial guess.
 HarFok:  IExCor=  205 AccDes= 0.00D+00 IRadAn=         5 IDoV= 1 UseB2=F ITyADJ=14
 ICtDFT=  3500011 ScaDFX=  1.000000  1.000000  1.000000  1.000000
 FoFCou: FMM=F IPFlag=           0 FMFlag=      100000 FMFlg1=           0
         NFxFlg=           0 DoJE=T BraDBF=F KetDBF=T FulRan=T
         wScrn=  0.000000 ICntrl=       500 IOpCl=  0 I1Cent=   200000004 NGrid=           0
         NMat0=    1 NMatS0=      1 NMatT0=    0 NMatD0=    1 NMtDS0=    0 NMtDT0=    0
 Symmetry not used in FoFCou.
 SCF Done:  E(RHF) =  -308.888518227     A.U. after   16 cycles
            NFock= 16  Conv=0.82D-08     -V/T= 2.0009

 **********************************************************************

            Population analysis using the SCF Density.

 **********************************************************************

 Alpha  occ. eigenvalues --  -20.51803 -11.30018 -11.26676 -11.26410 -11.24841
 Alpha  occ. eigenvalues --  -11.24422 -11.21902  -1.34078  -1.12677  -1.01163
 Alpha  occ. eigenvalues --   -0.98207  -0.88516  -0.78972  -0.75874  -0.65217
 Alpha  occ. eigenvalues --   -0.63455  -0.63090  -0.62358  -0.57891  -0.56133
 Alpha  occ. eigenvalues --   -0.55265  -0.54242  -0.53180  -0.52099  -0.50694
 Alpha  occ. eigenvalues --   -0.42942  -0.38443  -0.25791
 Alpha virt. eigenvalues --    0.03150   0.04163   0.04399   0.04682   0.05953
 Alpha virt. eigenvalues --    0.06347   0.06378   0.06719   0.07239   0.08688
 Alpha virt. eigenvalues --    0.08790   0.09343   0.09679   0.11938   0.13177
 Alpha virt. eigenvalues --    0.13997   0.14537   0.14899   0.15615   0.15811
 Alpha virt. eigenvalues --    0.16617   0.16716   0.17268   0.17945   0.18148
 Alpha virt. eigenvalues --    0.18513   0.19008   0.19348   0.20160   0.20395
 Alpha virt. eigenvalues --    0.21054   0.21284   0.22775   0.23238   0.23940
 Alpha virt. eigenvalues --    0.25391   0.26960   0.28140   0.29368   0.29441
 Alpha virt. eigenvalues --    0.31575   0.32911   0.34093   0.34513   0.35841
 Alpha virt. eigenvalues --    0.36764   0.37807   0.38030   0.39013   0.40050
 Alpha virt. eigenvalues --    0.40223   0.41726   0.42623   0.43269   0.43942
 Alpha virt. eigenvalues --    0.44764   0.44866   0.45218   0.45929   0.46309
 Alpha virt. eigenvalues --    0.47082   0.47641   0.48203   0.49000   0.49266
 Alpha virt. eigenvalues --    0.49719   0.51095   0.51886   0.52795   0.53279
 Alpha virt. eigenvalues --    0.54826   0.55728   0.55922   0.57243   0.57863
 Alpha virt. eigenvalues --    0.60148   0.60683   0.61191   0.62228   0.62791
 Alpha virt. eigenvalues --    0.63159   0.64278   0.64600   0.65761   0.66573
 Alpha virt. eigenvalues --    0.67510   0.68181   0.68576   0.69154   0.69616
 Alpha virt. eigenvalues --    0.70558   0.71745   0.72068   0.72959   0.74635
 Alpha virt. eigenvalues --    0.74830   0.75423   0.76376   0.76790   0.77623
 Alpha virt. eigenvalues --    0.78840   0.79503   0.79581   0.80468   0.81483
 Alpha virt. eigenvalues --    0.82484   0.83575   0.85318   0.86846   0.87628
 Alpha virt. eigenvalues --    0.88260   0.89892   0.90505   0.92501   0.93207
 Alpha virt. eigenvalues --    0.93871   0.94079   0.94967   0.96612   0.97347
 Alpha virt. eigenvalues --    0.99265   1.00163   1.01440   1.04435   1.06798
 Alpha virt. eigenvalues --    1.10358   1.10607   1.13769   1.16169   1.17604
 Alpha virt. eigenvalues --    1.19497   1.22377   1.23289   1.24270   1.25312
 Alpha virt. eigenvalues --    1.26137   1.28719   1.31119   1.33607   1.36853
 Alpha virt. eigenvalues --    1.37099   1.38573   1.43479   1.43940   1.47174
 Alpha virt. eigenvalues --    1.48699   1.50534   1.53023   1.53705   1.56774
 Alpha virt. eigenvalues --    1.60230   1.61579   1.62135   1.65224   1.66981
 Alpha virt. eigenvalues --    1.71184   1.72963   1.75163   1.76040   1.77737
 Alpha virt. eigenvalues --    1.80148   1.81246   1.83051   1.85041   1.87182
 Alpha virt. eigenvalues --    1.89018   1.91512   1.93427   1.94007   1.94556
 Alpha virt. eigenvalues --    1.96082   1.97723   1.99268   2.00833   2.01398
 Alpha virt. eigenvalues --    2.03145   2.03432   2.07139   2.08926   2.09544
 Alpha virt. eigenvalues --    2.10808   2.12533   2.13082   2.15549   2.17742
 Alpha virt. eigenvalues --    2.19602   2.23740   2.24709   2.25475   2.28013
 Alpha virt. eigenvalues --    2.29146   2.30383   2.31929   2.32647   2.34432
 Alpha virt. eigenvalues --    2.37792   2.40284   2.41610   2.41944   2.42803
 Alpha virt. eigenvalues --    2.43252   2.44906   2.45755   2.51072   2.52325
 Alpha virt. eigenvalues --    2.54964   2.56908   2.58960   2.64754   2.67541
 Alpha virt. eigenvalues --    2.69305   2.70285   2.71903   2.75032   2.76435
 Alpha virt. eigenvalues --    2.78122   2.81398   2.83112   2.84043   2.89955
 Alpha virt. eigenvalues --    2.91603   2.92299   2.96123   3.00963   3.02805
 Alpha virt. eigenvalues --    3.04811   3.09553   3.10697   3.13436   3.15582
 Alpha virt. eigenvalues --    3.21563   3.26119   3.41271   3.56920   3.58696
 Alpha virt. eigenvalues --    3.77474   3.92567   3.94998   4.01152   4.09809
 Alpha virt. eigenvalues --    4.21754
          Condensed to atoms (all electrons):
 Mulliken charges:
               1
     1  C    0.619422
     2  C   -1.062854
     3  C    0.699511
     4  C    0.881747
     5  O   -0.899266
     6  C    0.907729
     7  C    0.290894
     8  H   -0.092968
     9  H   -0.029118
    10  H   -0.040841
    11  H   -0.408650
    12  H   -0.368213
    13  H    0.465571
    14  H   -0.322878
    15  H   -0.281839
    16  H   -0.130847
    17  H   -0.046795
    18  H   -0.102178
    19  H   -0.078427
 Sum of Mulliken charges =  -0.00000
 Mulliken charges with hydrogens summed into heavy atoms:
               1
     1  C    0.456495
     2  C   -1.471505
     3  C    0.796870
     4  C    0.277029
     5  O   -0.899266
     6  C    0.776882
     7  C    0.063495
 Electronic spatial extent (au):  <R**2>=            889.7578
 Charge=             -0.0000 electrons
 Dipole moment (field-independent basis, Debye):
    X=             -2.3199    Y=             -2.8892    Z=             -0.0546  Tot=              3.7057
 NROrb=    269 NOA=    28 NOB=    28 NVA=   241 NVB=   241

 **** Warning!!: The largest alpha MO coefficient is  0.69669756D+02

    12 initial guesses have been made.
 Iteration     1 Dimension    12 NMult     0 NNew     12
 New state      1 was old state      2
 Iteration     2 Dimension    24 NMult    12 NNew     12
 New state      1 was old state     11
 Iteration     3 Dimension    27 NMult    24 NNew      3
 Iteration     4 Dimension    30 NMult    27 NNew      3
 Iteration     5 Dimension    33 NMult    30 NNew      3
 Iteration     6 Dimension    36 NMult    33 NNew      3
 Iteration     7 Dimension    39 NMult    36 NNew      3
 Iteration     8 Dimension    42 NMult    39 NNew      3
 ***********************************************************************
 Stability analysis using <AA,BB:AA,BB> singles matrix:
 ***********************************************************************
 Ground to excited state transition densities written to RWF  633

 Eigenvectors of the stability matrix:
 
 Excited state symmetry could not be determined.
 Eigenvector   1:      Singlet-?Sym  Eigenvalue= 0.1405653  <S**2>=0.000
      28 -> 29        -0.17948
      28 -> 31        -0.12875
      28 -> 32         0.11712
      28 -> 33         0.26737
      28 -> 38         0.48085
      28 -> 39        -0.10281
      28 -> 45         0.14039
 The wavefunction is stable under the perturbations considered.
 The wavefunction is already stable.

 **********************************************************************

            Population analysis using the SCF Density.

 **********************************************************************

 Alpha  occ. eigenvalues --  -20.51803 -11.30018 -11.26676 -11.26410 -11.24841
 Alpha  occ. eigenvalues --  -11.24422 -11.21902  -1.34078  -1.12677  -1.01163
 Alpha  occ. eigenvalues --   -0.98207  -0.88516  -0.78972  -0.75874  -0.65217
 Alpha  occ. eigenvalues --   -0.63455  -0.63090  -0.62358  -0.57891  -0.56133
 Alpha  occ. eigenvalues --   -0.55265  -0.54242  -0.53180  -0.52099  -0.50694
 Alpha  occ. eigenvalues --   -0.42942  -0.38443  -0.25791
 Alpha virt. eigenvalues --    0.03150   0.04163   0.04399   0.04682   0.05953
 Alpha virt. eigenvalues --    0.06347   0.06378   0.06719   0.07239   0.08688
 Alpha virt. eigenvalues --    0.08790   0.09343   0.09679   0.11938   0.13177
 Alpha virt. eigenvalues --    0.13997   0.14537   0.14899   0.15615   0.15811
 Alpha virt. eigenvalues --    0.16617   0.16716   0.17268   0.17945   0.18148
 Alpha virt. eigenvalues --    0.18513   0.19008   0.19348   0.20160   0.20395
 Alpha virt. eigenvalues --    0.21054   0.21284   0.22775   0.23238   0.23940
 Alpha virt. eigenvalues --    0.25391   0.26960   0.28140   0.29368   0.29441
 Alpha virt. eigenvalues --    0.31575   0.32911   0.34093   0.34513   0.35841
 Alpha virt. eigenvalues --    0.36764   0.37807   0.38030   0.39013   0.40050
 Alpha virt. eigenvalues --    0.40223   0.41726   0.42623   0.43269   0.43942
 Alpha virt. eigenvalues --    0.44764   0.44866   0.45218   0.45929   0.46309
 Alpha virt. eigenvalues --    0.47082   0.47641   0.48203   0.49000   0.49266
 Alpha virt. eigenvalues --    0.49719   0.51095   0.51886   0.52795   0.53279
 Alpha virt. eigenvalues --    0.54826   0.55728   0.55922   0.57243   0.57863
 Alpha virt. eigenvalues --    0.60148   0.60683   0.61191   0.62228   0.62791
 Alpha virt. eigenvalues --    0.63159   0.64278   0.64600   0.65761   0.66573
 Alpha virt. eigenvalues --    0.67510   0.68181   0.68576   0.69154   0.69616
 Alpha virt. eigenvalues --    0.70558   0.71745   0.72068   0.72959   0.74635
 Alpha virt. eigenvalues --    0.74830   0.75423   0.76376   0.76790   0.77623
 Alpha virt. eigenvalues --    0.78840   0.79503   0.79581   0.80468   0.81483
 Alpha virt. eigenvalues --    0.82484   0.83575   0.85318   0.86846   0.87628
 Alpha virt. eigenvalues --    0.88260   0.89892   0.90505   0.92501   0.93207
 Alpha virt. eigenvalues --    0.93871   0.94079   0.94967   0.96612   0.97347
 Alpha virt. eigenvalues --    0.99265   1.00163   1.01440   1.04435   1.06798
 Alpha virt. eigenvalues --    1.10358   1.10607   1.13769   1.16169   1.17604
 Alpha virt. eigenvalues --    1.19497   1.22377   1.23289   1.24270   1.25312
 Alpha virt. eigenvalues --    1.26137   1.28719   1.31119   1.33607   1.36853
 Alpha virt. eigenvalues --    1.37099   1.38573   1.43479   1.43940   1.47174
 Alpha virt. eigenvalues --    1.48699   1.50534   1.53023   1.53705   1.56774
 Alpha virt. eigenvalues --    1.60230   1.61579   1.62135   1.65224   1.66981
 Alpha virt. eigenvalues --    1.71184   1.72963   1.75163   1.76040   1.77737
 Alpha virt. eigenvalues --    1.80148   1.81246   1.83051   1.85041   1.87182
 Alpha virt. eigenvalues --    1.89018   1.91512   1.93427   1.94007   1.94556
 Alpha virt. eigenvalues --    1.96082   1.97723   1.99268   2.00833   2.01398
 Alpha virt. eigenvalues --    2.03145   2.03432   2.07139   2.08926   2.09544
 Alpha virt. eigenvalues --    2.10808   2.12533   2.13082   2.15549   2.17742
 Alpha virt. eigenvalues --    2.19602   2.23740   2.24709   2.25475   2.28013
 Alpha virt. eigenvalues --    2.29146   2.30383   2.31929   2.32647   2.34432
 Alpha virt. eigenvalues --    2.37792   2.40284   2.41610   2.41944   2.42803
 Alpha virt. eigenvalues --    2.43252   2.44906   2.45755   2.51072   2.52325
 Alpha virt. eigenvalues --    2.54964   2.56908   2.58960   2.64754   2.67541
 Alpha virt. eigenvalues --    2.69305   2.70285   2.71903   2.75032   2.76435
 Alpha virt. eigenvalues --    2.78122   2.81398   2.83112   2.84043   2.89955
 Alpha virt. eigenvalues --    2.91603   2.92299   2.96123   3.00963   3.02805
 Alpha virt. eigenvalues --    3.04811   3.09553   3.10697   3.13436   3.15582
 Alpha virt. eigenvalues --    3.21563   3.26119   3.41271   3.56920   3.58696
 Alpha virt. eigenvalues --    3.77474   3.92567   3.94998   4.01152   4.09809
 Alpha virt. eigenvalues --    4.21754
          Condensed to atoms (all electrons):
 Mulliken charges:
               1
     1  C    0.619422
     2  C   -1.062854
     3  C    0.699511
     4  C    0.881747
     5  O   -0.899266
     6  C    0.907729
     7  C    0.290894
     8  H   -0.092968
     9  H   -0.029118
    10  H   -0.040841
    11  H   -0.408650
    12  H   -0.368213
    13  H    0.465571
    14  H   -0.322878
    15  H   -0.281839
    16  H   -0.130847
    17  H   -0.046795
    18  H   -0.102178
    19  H   -0.078427
 Sum of Mulliken charges =  -0.00000
 Mulliken charges with hydrogens summed into heavy atoms:
               1
     1  C    0.456495
     2  C   -1.471505
     3  C    0.796870
     4  C    0.277029
     5  O   -0.899266
     6  C    0.776882
     7  C    0.063495
 Electronic spatial extent (au):  <R**2>=            889.7578
 Charge=             -0.0000 electrons
 Dipole moment (field-independent basis, Debye):
    X=             -2.3199    Y=             -2.8892    Z=             -0.0546  Tot=              3.7057
 Unable to Open any file for archive entry.
 1\1\GINC-SE179\Stability\RHF\Aug-CC-pVDZ\C6H12O1\OHZDE\09-Apr-2025\0\\
 #t hf aug-cc-pvdz symm=none int=(grid=ultrafine) guess=(read,tcheck) s
 table=(opt,rrhf)\\title\\0,1\C,0,-1.00558285,-1.58935713,-0.63220117\C
 ,0,-0.82264965,-0.10711446,-0.44314869\C,0,-0.94050945,0.52167035,0.90
 851524\C,0,-0.78865914,1.87467644,1.08163197\O,0,1.21307077,1.70875619
 ,-0.22172263\C,0,1.2361457,0.56556634,-0.69470784\C,0,1.98833258,-0.53
 973997,0.01124088\H,0,-2.03431882,-1.89332902,-0.84511438\H,0,-0.40142
 991,-1.91442417,-1.48203754\H,0,-0.66109407,-2.14312287,0.2434929\H,0,
 -1.14296714,0.53013081,-1.2628637\H,0,-0.75417121,-0.14906331,1.741277
 51\H,0,-1.97998087,0.25572722,0.40143413\H,0,-0.56211354,2.28254385,2.
 05556072\H,0,-1.02228911,2.56769449,0.28734716\H,0,1.07791201,0.422127
 61,-1.77862246\H,0,1.7367803,-0.54471731,1.07383293\H,0,1.79555887,-1.
 52319296,-0.42013411\H,0,3.05947054,-0.33726209,-0.06856292\\Version=E
 S64L-G16RevC.01\HF=-308.8885182\RMSD=8.249e-09\Dipole=-0.9127074,-1.13
 66996,-0.0214834\Quadrupole=0.224468,-2.8452967,2.6208287,-3.3417413,0
 .3164611,0.484141\PG=Unknown\\@
 The archive entry for this job was punched.


 IF YOU DON'T HAVE THE LAW - ARGUE THE FACTS.
 IF YOU DON'T HAVE THE FACTS - ARGUE THE LAW.
 IF YOU DON'T HAVE EITHER - POUND THE TABLE.
 Job cpu time:       0 days  0 hours 14 minutes 54.6 seconds.
 Elapsed time:       0 days  0 hours  1 minutes  2.8 seconds.
 File lengths (MBytes):  RWF=    294 Int=      0 D2E=      0 Chk=     10 Scr=      1
 Normal termination of Gaussian 16 at Wed Apr  9 03:29:22 2025.
 Initial command:
 /arc/software/Gaussian/g16.c01/l1.exe "/tmp/slurm/4864113/Gau-300671.inp" -scrdir="/tmp/slurm/4864113/"
 Entering Link 1 = /arc/software/Gaussian/g16.c01/l1.exe PID=    300982.
  
 Copyright (c) 1988-2019, Gaussian, Inc.  All Rights Reserved.
  
 This is part of the Gaussian(R) 16 program.  It is based on
 the Gaussian(R) 09 system (copyright 2009, Gaussian, Inc.),
 the Gaussian(R) 03 system (copyright 2003, Gaussian, Inc.),
 the Gaussian(R) 98 system (copyright 1998, Gaussian, Inc.),
 the Gaussian(R) 94 system (copyright 1995, Gaussian, Inc.),
 the Gaussian 92(TM) system (copyright 1992, Gaussian, Inc.),
 the Gaussian 90(TM) system (copyright 1990, Gaussian, Inc.),
 the Gaussian 88(TM) system (copyright 1988, Gaussian, Inc.),
 the Gaussian 86(TM) system (copyright 1986, Carnegie Mellon
 University), and the Gaussian 82(TM) system (copyright 1983,
 Carnegie Mellon University). Gaussian is a federally registered
 trademark of Gaussian, Inc.
  
 This software contains proprietary and confidential information,
 including trade secrets, belonging to Gaussian, Inc.
  
 This software is provided under written license and may be
 used, copied, transmitted, or stored only in accord with that
 written license.
  
 The following legend is applicable only to US Government
 contracts under FAR:
  
                    RESTRICTED RIGHTS LEGEND
  
 Use, reproduction and disclosure by the US Government is
 subject to restrictions as set forth in subparagraphs (a)
 and (c) of the Commercial Computer Software - Restricted
 Rights clause in FAR 52.227-19.
  
 Gaussian, Inc.
 340 Quinnipiac St., Bldg. 40, Wallingford CT 06492
  
  
 ---------------------------------------------------------------
 Warning -- This program may not be used in any manner that
 competes with the business of Gaussian, Inc. or will provide
 assistance to any competitor of Gaussian, Inc.  The licensee
 of this program is prohibited from giving any competitor of
 Gaussian, Inc. access to this program.  By using this program,
 the user acknowledges that Gaussian, Inc. is engaged in the
 business of creating and licensing software in the field of
 computational chemistry and represents and warrants to the
 licensee that it is not a competitor of Gaussian, Inc. and that
 it will not use this program in any manner prohibited above.
 ---------------------------------------------------------------
  

 Cite this work as:
 Gaussian 16, Revision C.01,
 M. J. Frisch, G. W. Trucks, H. B. Schlegel, G. E. Scuseria, 
 M. A. Robb, J. R. Cheeseman, G. Scalmani, V. Barone, 
 G. A. Petersson, H. Nakatsuji, X. Li, M. Caricato, A. V. Marenich, 
 J. Bloino, B. G. Janesko, R. Gomperts, B. Mennucci, H. P. Hratchian, 
 J. V. Ortiz, A. F. Izmaylov, J. L. Sonnenberg, D. Williams-Young, 
 F. Ding, F. Lipparini, F. Egidi, J. Goings, B. Peng, A. Petrone, 
 T. Henderson, D. Ranasinghe, V. G. Zakrzewski, J. Gao, N. Rega, 
 G. Zheng, W. Liang, M. Hada, M. Ehara, K. Toyota, R. Fukuda, 
 J. Hasegawa, M. Ishida, T. Nakajima, Y. Honda, O. Kitao, H. Nakai, 
 T. Vreven, K. Throssell, J. A. Montgomery, Jr., J. E. Peralta, 
 F. Ogliaro, M. J. Bearpark, J. J. Heyd, E. N. Brothers, K. N. Kudin, 
 V. N. Staroverov, T. A. Keith, R. Kobayashi, J. Normand, 
 K. Raghavachari, A. P. Rendell, J. C. Burant, S. S. Iyengar, 
 J. Tomasi, M. Cossi, J. M. Millam, M. Klene, C. Adamo, R. Cammi, 
 J. W. Ochterski, R. L. Martin, K. Morokuma, O. Farkas, 
 J. B. Foresman, and D. J. Fox, Gaussian, Inc., Wallingford CT, 2019.
 
 ******************************************
 Gaussian 16:  ES64L-G16RevC.01  3-Jul-2019
                 9-Apr-2025 
 ******************************************
 %nprocs=16
 Will use up to   16 processors via shared memory.
 %mem=30GB
 %chk=Grambow2020_wb97xd3_006730_reverse_mol1.chk
 ----------------------------------------------------------------------
 #t hf aug-cc-pvdz iop(5/13=1,5/36=2,99/5=2) pseudo=read geom=check gue
 ss=(read,tcheck) scf=(maxcycle=1)
 ----------------------------------------------------------------------
 -----
 title
 -----
 Structure from the checkpoint file:  "Grambow2020_wb97xd3_006730_reverse_mol1.chk"
 Charge =  0 Multiplicity = 1
 Z-Matrix found in chk file.
 C,0,-1.00558285,-1.58935713,-0.63220117
 C,0,-0.82264965,-0.10711446,-0.44314869
 C,0,-0.94050945,0.52167035,0.90851524
 C,0,-0.78865914,1.87467644,1.08163197
 O,0,1.21307077,1.70875619,-0.22172263
 C,0,1.2361457,0.56556634,-0.69470784
 C,0,1.98833258,-0.53973997,0.01124088
 H,0,-2.03431882,-1.89332902,-0.84511438
 H,0,-0.40142991,-1.91442417,-1.48203754
 H,0,-0.66109407,-2.14312287,0.2434929
 H,0,-1.14296714,0.53013081,-1.2628637
 H,0,-0.75417121,-0.14906331,1.74127751
 H,0,-1.97998087,0.25572722,0.40143413
 H,0,-0.56211354,2.28254385,2.05556072
 H,0,-1.02228911,2.56769449,0.28734716
 H,0,1.07791201,0.42212761,-1.77862246
 H,0,1.7367803,-0.54471731,1.07383293
 H,0,1.79555887,-1.52319296,-0.42013411
 H,0,3.05947054,-0.33726209,-0.06856292
 Recover connectivity data from disk.
                    Distance matrix (angstroms):
                    1          2          3          4          5
     1  C    0.000000
     2  C    1.505406   0.000000
     3  C    2.614284   1.495412   0.000000
     4  C    3.870892   2.500721   1.372463   0.000000
     5  O    3.996057   2.736891   2.706385   2.394407   0.000000
     6  C    3.110137   2.180463   2.703716   2.994827   1.237389
     7  C    3.237166   2.880149   3.241884   3.832340   2.389778
     8  H    1.093631   2.195514   3.178657   4.411563   4.889701
     9  H    1.092196   2.126754   3.455417   4.591256   4.162024
    10  H    1.091865   2.154741   2.760697   4.106271   4.308816
    11  H    2.215590   1.086562   2.180813   2.725802   2.832675
    12  H    2.787661   2.185902   1.085402   2.128813   3.342889
    13  H    2.328560   1.477968   1.186743   2.122007   3.563032
    14  H    4.734168   3.467260   2.135315   1.079915   2.943897
    15  H    4.257573   2.779943   2.139802   1.079697   2.448216
    16  H    3.114692   2.382377   3.362238   3.711474   2.024257
    17  H    3.394463   3.007226   2.886588   3.497338   2.651580
    18  H    2.809937   2.976714   3.665085   4.525373   3.290008
    19  H    4.290698   3.906935   4.206220   4.585163   2.760225
                    6          7          8          9         10
     6  C    0.000000
     7  C    1.511903   0.000000
     8  H    4.094475   4.329812   0.000000
     9  H    3.074393   3.135379   1.752838   0.000000
    10  H    3.437548   3.105518   1.770087   1.759882   0.000000
    11  H    2.446270   3.545843   2.615756   2.563935   3.106058
    12  H    3.225846   3.266035   3.372041   3.691976   2.495655
    13  H    3.411891   4.066021   2.485011   3.278543   2.742059
    14  H    3.707523   4.318484   5.293318   5.491353   4.783295
    15  H    3.173874   4.335462   4.712473   4.858557   4.724848
    16  H    1.104755   2.226582   3.989832   2.781347   3.700487
    17  H    2.147347   1.091973   4.440980   3.602848   2.999028
    18  H    2.179736   1.091066   3.871120   2.471328   2.619133
    19  H    2.128772   1.093024   5.382478   4.057485   4.147422
                   11         12         13         14         15
    11  H    0.000000
    12  H    3.104405   0.000000
    13  H    1.883023   1.860550   0.000000
    14  H    3.797405   2.459344   2.975646   0.000000
    15  H    2.563081   3.092988   2.505071   1.849230   0.000000
    16  H    2.282537   4.009050   3.759128   4.566376   3.644521
    17  H    3.861139   2.608997   3.860977   3.773872   4.232981
    18  H    3.682563   3.614008   4.253732   5.115791   5.017585
    19  H    4.454123   4.225495   5.095940   4.948854   5.022570
                   16         17         18         19
    16  H    0.000000
    17  H    3.083083   0.000000
    18  H    2.478867   1.786843   0.000000
    19  H    2.725353   1.760004   1.768476   0.000000
 Framework group  C1[X(C6H12O)]
 Deg. of freedom    51
                         Standard orientation:                         
 ---------------------------------------------------------------------
 Center     Atomic      Atomic             Coordinates (Angstroms)
 Number     Number       Type             X           Y           Z
 ---------------------------------------------------------------------
      1          6           0        2.261019    0.144649   -0.123347
      2          6           0        0.912975   -0.440693   -0.449541
      3          6           0        0.188051   -1.308508    0.529049
      4          6           0       -1.034400   -1.855371    0.228706
      5          8           0       -1.714181    0.325522   -0.488782
      6          6           0       -0.696561    1.029384   -0.501390
      7          6           0       -0.343150    1.885316    0.693738
      8          1           0        3.107863   -0.481902   -0.417143
      9          1           0        2.373319    1.091598   -0.655858
     10          1           0        2.349392    0.358246    0.943769
     11          1           0        0.731978   -0.692324   -1.490953
     12          1           0        0.466064   -1.155967    1.567094
     13          1           0        1.069445   -1.854529   -0.048327
     14          1           0       -1.687920   -2.205957    1.013701
     15          1           0       -1.312918   -2.070472   -0.792032
     16          1           0       -0.273559    1.356663   -1.468055
     17          1           0       -0.419403    1.297782    1.611013
     18          1           0        0.652014    2.326022    0.617235
     19          1           0       -1.070441    2.697998    0.766526
 ---------------------------------------------------------------------
 Rotational constants (GHZ):           2.7162657           2.5106908           1.5703612
 ======================================================================================================
                                       Pseudopotential Parameters
 ======================================================================================================
  Center     Atomic      Valence      Angular      Power
  Number     Number     Electrons     Momentum     of R      Exponent        Coefficient   SO-Coeffient
 ======================================================================================================
    1          6            6
                                      G and up 
                                                     0        0.0000010       -0.00286759    0.00000000
                                                     2        0.1200000        0.03193960    0.00000000
                                                     2        0.1600000       -0.04027782    0.00000000
                                                     2        0.2600000        0.24782456    0.00000000
                                                     2        0.4000000       -0.62266671    0.00000000
                                                     2        0.7000000        0.35695227    0.00000000
                                      S - G
                                                     0        0.0000010       -0.06602313    0.00000000
                                                     2        0.1200000        1.47277455    0.00000000
                                                     2        0.1600000       -4.06924166    0.00000000
                                                     2        0.3000000        5.02952802    0.00000000
                                                     2        0.7000000       -5.65856978    0.00000000
                                                     2        1.7000000        8.57604414    0.00000000
                                      P - G
                                                     0        0.0000010        0.49434425    0.00000000
                                                     2        0.1200000       -1.37391547    0.00000000
                                                     2        0.1600000        3.65411806    0.00000000
                                                     2        0.2800000       -7.36479843    0.00000000
                                                     2        0.6000000       17.22091285    0.00000000
                                                     2        1.1000000      -23.50107827    0.00000000
                                                     2        3.0000000       16.29464063    0.00000000
                                      D - G
                                                     0        0.0000010       -0.28693103    0.00000000
                                                     2        0.1200000        0.12273044    0.00000000
                                                     2        0.3000000       -0.43416384    0.00000000
                                                     2        0.7000000        2.23358493    0.00000000
                                      F - G
                                                     0        0.0000010        0.07263570    0.00000000
                                                     2        0.1400000       -0.76152861    0.00000000
                                                     2        0.2200000        1.98045593    0.00000000
                                                     2        0.4000000       -2.42426427    0.00000000
                                                     2        0.7000000        0.52335237    0.00000000
    2          6            6
                                      G and up 
                                                     0        0.0000010       -0.00286759    0.00000000
                                                     2        0.1200000        0.03193960    0.00000000
                                                     2        0.1600000       -0.04027782    0.00000000
                                                     2        0.2600000        0.24782456    0.00000000
                                                     2        0.4000000       -0.62266671    0.00000000
                                                     2        0.7000000        0.35695227    0.00000000
                                      S - G
                                                     0        0.0000010       -0.06602313    0.00000000
                                                     2        0.1200000        1.47277455    0.00000000
                                                     2        0.1600000       -4.06924166    0.00000000
                                                     2        0.3000000        5.02952802    0.00000000
                                                     2        0.7000000       -5.65856978    0.00000000
                                                     2        1.7000000        8.57604414    0.00000000
                                      P - G
                                                     0        0.0000010        0.49434425    0.00000000
                                                     2        0.1200000       -1.37391547    0.00000000
                                                     2        0.1600000        3.65411806    0.00000000
                                                     2        0.2800000       -7.36479843    0.00000000
                                                     2        0.6000000       17.22091285    0.00000000
                                                     2        1.1000000      -23.50107827    0.00000000
                                                     2        3.0000000       16.29464063    0.00000000
                                      D - G
                                                     0        0.0000010       -0.28693103    0.00000000
                                                     2        0.1200000        0.12273044    0.00000000
                                                     2        0.3000000       -0.43416384    0.00000000
                                                     2        0.7000000        2.23358493    0.00000000
                                      F - G
                                                     0        0.0000010        0.07263570    0.00000000
                                                     2        0.1400000       -0.76152861    0.00000000
                                                     2        0.2200000        1.98045593    0.00000000
                                                     2        0.4000000       -2.42426427    0.00000000
                                                     2        0.7000000        0.52335237    0.00000000
    3          6            6
                                      G and up 
                                                     0        0.0000010       -0.00286759    0.00000000
                                                     2        0.1200000        0.03193960    0.00000000
                                                     2        0.1600000       -0.04027782    0.00000000
                                                     2        0.2600000        0.24782456    0.00000000
                                                     2        0.4000000       -0.62266671    0.00000000
                                                     2        0.7000000        0.35695227    0.00000000
                                      S - G
                                                     0        0.0000010       -0.06602313    0.00000000
                                                     2        0.1200000        1.47277455    0.00000000
                                                     2        0.1600000       -4.06924166    0.00000000
                                                     2        0.3000000        5.02952802    0.00000000
                                                     2        0.7000000       -5.65856978    0.00000000
                                                     2        1.7000000        8.57604414    0.00000000
                                      P - G
                                                     0        0.0000010        0.49434425    0.00000000
                                                     2        0.1200000       -1.37391547    0.00000000
                                                     2        0.1600000        3.65411806    0.00000000
                                                     2        0.2800000       -7.36479843    0.00000000
                                                     2        0.6000000       17.22091285    0.00000000
                                                     2        1.1000000      -23.50107827    0.00000000
                                                     2        3.0000000       16.29464063    0.00000000
                                      D - G
                                                     0        0.0000010       -0.28693103    0.00000000
                                                     2        0.1200000        0.12273044    0.00000000
                                                     2        0.3000000       -0.43416384    0.00000000
                                                     2        0.7000000        2.23358493    0.00000000
                                      F - G
                                                     0        0.0000010        0.07263570    0.00000000
                                                     2        0.1400000       -0.76152861    0.00000000
                                                     2        0.2200000        1.98045593    0.00000000
                                                     2        0.4000000       -2.42426427    0.00000000
                                                     2        0.7000000        0.52335237    0.00000000
    4          6            6
                                      G and up 
                                                     0        0.0000010       -0.00286759    0.00000000
                                                     2        0.1200000        0.03193960    0.00000000
                                                     2        0.1600000       -0.04027782    0.00000000
                                                     2        0.2600000        0.24782456    0.00000000
                                                     2        0.4000000       -0.62266671    0.00000000
                                                     2        0.7000000        0.35695227    0.00000000
                                      S - G
                                                     0        0.0000010       -0.06602313    0.00000000
                                                     2        0.1200000        1.47277455    0.00000000
                                                     2        0.1600000       -4.06924166    0.00000000
                                                     2        0.3000000        5.02952802    0.00000000
                                                     2        0.7000000       -5.65856978    0.00000000
                                                     2        1.7000000        8.57604414    0.00000000
                                      P - G
                                                     0        0.0000010        0.49434425    0.00000000
                                                     2        0.1200000       -1.37391547    0.00000000
                                                     2        0.1600000        3.65411806    0.00000000
                                                     2        0.2800000       -7.36479843    0.00000000
                                                     2        0.6000000       17.22091285    0.00000000
                                                     2        1.1000000      -23.50107827    0.00000000
                                                     2        3.0000000       16.29464063    0.00000000
                                      D - G
                                                     0        0.0000010       -0.28693103    0.00000000
                                                     2        0.1200000        0.12273044    0.00000000
                                                     2        0.3000000       -0.43416384    0.00000000
                                                     2        0.7000000        2.23358493    0.00000000
                                      F - G
                                                     0        0.0000010        0.07263570    0.00000000
                                                     2        0.1400000       -0.76152861    0.00000000
                                                     2        0.2200000        1.98045593    0.00000000
                                                     2        0.4000000       -2.42426427    0.00000000
                                                     2        0.7000000        0.52335237    0.00000000
    5          8            8
                                      G and up 
                                                     0        0.0000010       -0.00165251    0.00000000
                                                     2        0.1200000       -0.10937202    0.00000000
                                                     2        0.1400000        0.35668905    0.00000000
                                                     2        0.1800000       -0.51696033    0.00000000
                                                     2        0.2400000        0.52446472    0.00000000
                                                     2        0.4000000       -0.07754493    0.00000000
                                                     2        0.8000000       -1.90560988    0.00000000
                                                     2        1.7000000        0.19857963    0.00000000
                                      S - G
                                                     0        0.0000010       -0.03845181    0.00000000
                                                     2        0.1400000        0.42024558    0.00000000
                                                     2        0.4000000       -4.10467779    0.00000000
                                                     2        1.3000000        9.99571838    0.00000000
                                      P - G
                                                     0        0.0000010        0.33206183    0.00000000
                                                     2        0.1200000       -0.18708141    0.00000000
                                                     2        0.2800000       -0.18179081    0.00000000
                                                     2        0.7000000        1.18820394    0.00000000
                                      D - G
                                                     0        0.0000010       -0.57891674    0.00000000
                                                     2        0.1200000        0.60487490    0.00000000
                                                     2        0.2400000       -0.24931464    0.00000000
                                                     2        0.3000000       -2.75054612    0.00000000
                                                     2        1.0000000       15.96776040    0.00000000
                                      F - G
                                                     0        0.0000010        0.37449041    0.00000000
                                                     2        0.1200000       -0.63373642    0.00000000
                                                     2        0.1400000       -0.08412804    0.00000000
                                                     2        0.2800000        2.62321406    0.00000000
                                                     2        0.6000000       -2.68223623    0.00000000
    6          6            6
                                      G and up 
                                                     0        0.0000010       -0.00286759    0.00000000
                                                     2        0.1200000        0.03193960    0.00000000
                                                     2        0.1600000       -0.04027782    0.00000000
                                                     2        0.2600000        0.24782456    0.00000000
                                                     2        0.4000000       -0.62266671    0.00000000
                                                     2        0.7000000        0.35695227    0.00000000
                                      S - G
                                                     0        0.0000010       -0.06602313    0.00000000
                                                     2        0.1200000        1.47277455    0.00000000
                                                     2        0.1600000       -4.06924166    0.00000000
                                                     2        0.3000000        5.02952802    0.00000000
                                                     2        0.7000000       -5.65856978    0.00000000
                                                     2        1.7000000        8.57604414    0.00000000
                                      P - G
                                                     0        0.0000010        0.49434425    0.00000000
                                                     2        0.1200000       -1.37391547    0.00000000
                                                     2        0.1600000        3.65411806    0.00000000
                                                     2        0.2800000       -7.36479843    0.00000000
                                                     2        0.6000000       17.22091285    0.00000000
                                                     2        1.1000000      -23.50107827    0.00000000
                                                     2        3.0000000       16.29464063    0.00000000
                                      D - G
                                                     0        0.0000010       -0.28693103    0.00000000
                                                     2        0.1200000        0.12273044    0.00000000
                                                     2        0.3000000       -0.43416384    0.00000000
                                                     2        0.7000000        2.23358493    0.00000000
                                      F - G
                                                     0        0.0000010        0.07263570    0.00000000
                                                     2        0.1400000       -0.76152861    0.00000000
                                                     2        0.2200000        1.98045593    0.00000000
                                                     2        0.4000000       -2.42426427    0.00000000
                                                     2        0.7000000        0.52335237    0.00000000
    7          6            6
                                      G and up 
                                                     0        0.0000010       -0.00286759    0.00000000
                                                     2        0.1200000        0.03193960    0.00000000
                                                     2        0.1600000       -0.04027782    0.00000000
                                                     2        0.2600000        0.24782456    0.00000000
                                                     2        0.4000000       -0.62266671    0.00000000
                                                     2        0.7000000        0.35695227    0.00000000
                                      S - G
                                                     0        0.0000010       -0.06602313    0.00000000
                                                     2        0.1200000        1.47277455    0.00000000
                                                     2        0.1600000       -4.06924166    0.00000000
                                                     2        0.3000000        5.02952802    0.00000000
                                                     2        0.7000000       -5.65856978    0.00000000
                                                     2        1.7000000        8.57604414    0.00000000
                                      P - G
                                                     0        0.0000010        0.49434425    0.00000000
                                                     2        0.1200000       -1.37391547    0.00000000
                                                     2        0.1600000        3.65411806    0.00000000
                                                     2        0.2800000       -7.36479843    0.00000000
                                                     2        0.6000000       17.22091285    0.00000000
                                                     2        1.1000000      -23.50107827    0.00000000
                                                     2        3.0000000       16.29464063    0.00000000
                                      D - G
                                                     0        0.0000010       -0.28693103    0.00000000
                                                     2        0.1200000        0.12273044    0.00000000
                                                     2        0.3000000       -0.43416384    0.00000000
                                                     2        0.7000000        2.23358493    0.00000000
                                      F - G
                                                     0        0.0000010        0.07263570    0.00000000
                                                     2        0.1400000       -0.76152861    0.00000000
                                                     2        0.2200000        1.98045593    0.00000000
                                                     2        0.4000000       -2.42426427    0.00000000
                                                     2        0.7000000        0.52335237    0.00000000
    8          1            1
                                      F and up 
                                                     0        0.0000010        0.00072061    0.00000000
                                                     2        0.1200000        0.03832357    0.00000000
                                                     2        0.1400000       -0.08683256    0.00000000
                                                     2        0.1800000        0.09312970    0.00000000
                                                     2        0.2800000       -0.02532572    0.00000000
                                                     2        0.4000000       -0.09430787    0.00000000
                                                     2        0.7000000        0.42710831    0.00000000
                                                     2        1.2000000       -2.11746981    0.00000000
                                      S - F
                                                     0        0.0000010        0.14449603    0.00000000
                                                     2        0.1200000       -0.56378993    0.00000000
                                                     2        0.1400000        0.63941249    0.00000000
                                                     2        0.2600000       -0.58461015    0.00000000
                                                     2        0.5000000        1.00157293    0.00000000
                                                     2        1.8000000       -0.14135838    0.00000000
                                      P - F
                                                     0        0.0000010       -0.09353646    0.00000000
                                                     2        0.1200000        0.31768975    0.00000000
                                                     2        0.2000000       -0.71747951    0.00000000
                                                     2        0.4000000        0.65752308    0.00000000
                                                     2        1.7000000        2.94052587    0.00000000
                                      D - F
                                                     0        0.0000010       -0.04491202    0.00000000
                                                     2        0.1200000       -0.02862031    0.00000000
                                                     2        0.1800000       -0.21515263    0.00000000
                                                     2        0.3000000        0.80560647    0.00000000
                                                     2        0.4000000        0.47351754    0.00000000
                                                     2        0.7000000       -4.57051794    0.00000000
                                                     2        1.6000000       18.53737826    0.00000000
    9          1            1
                                      F and up 
                                                     0        0.0000010        0.00072061    0.00000000
                                                     2        0.1200000        0.03832357    0.00000000
                                                     2        0.1400000       -0.08683256    0.00000000
                                                     2        0.1800000        0.09312970    0.00000000
                                                     2        0.2800000       -0.02532572    0.00000000
                                                     2        0.4000000       -0.09430787    0.00000000
                                                     2        0.7000000        0.42710831    0.00000000
                                                     2        1.2000000       -2.11746981    0.00000000
                                      S - F
                                                     0        0.0000010        0.14449603    0.00000000
                                                     2        0.1200000       -0.56378993    0.00000000
                                                     2        0.1400000        0.63941249    0.00000000
                                                     2        0.2600000       -0.58461015    0.00000000
                                                     2        0.5000000        1.00157293    0.00000000
                                                     2        1.8000000       -0.14135838    0.00000000
                                      P - F
                                                     0        0.0000010       -0.09353646    0.00000000
                                                     2        0.1200000        0.31768975    0.00000000
                                                     2        0.2000000       -0.71747951    0.00000000
                                                     2        0.4000000        0.65752308    0.00000000
                                                     2        1.7000000        2.94052587    0.00000000
                                      D - F
                                                     0        0.0000010       -0.04491202    0.00000000
                                                     2        0.1200000       -0.02862031    0.00000000
                                                     2        0.1800000       -0.21515263    0.00000000
                                                     2        0.3000000        0.80560647    0.00000000
                                                     2        0.4000000        0.47351754    0.00000000
                                                     2        0.7000000       -4.57051794    0.00000000
                                                     2        1.6000000       18.53737826    0.00000000
   10          1            1
                                      F and up 
                                                     0        0.0000010        0.00072061    0.00000000
                                                     2        0.1200000        0.03832357    0.00000000
                                                     2        0.1400000       -0.08683256    0.00000000
                                                     2        0.1800000        0.09312970    0.00000000
                                                     2        0.2800000       -0.02532572    0.00000000
                                                     2        0.4000000       -0.09430787    0.00000000
                                                     2        0.7000000        0.42710831    0.00000000
                                                     2        1.2000000       -2.11746981    0.00000000
                                      S - F
                                                     0        0.0000010        0.14449603    0.00000000
                                                     2        0.1200000       -0.56378993    0.00000000
                                                     2        0.1400000        0.63941249    0.00000000
                                                     2        0.2600000       -0.58461015    0.00000000
                                                     2        0.5000000        1.00157293    0.00000000
                                                     2        1.8000000       -0.14135838    0.00000000
                                      P - F
                                                     0        0.0000010       -0.09353646    0.00000000
                                                     2        0.1200000        0.31768975    0.00000000
                                                     2        0.2000000       -0.71747951    0.00000000
                                                     2        0.4000000        0.65752308    0.00000000
                                                     2        1.7000000        2.94052587    0.00000000
                                      D - F
                                                     0        0.0000010       -0.04491202    0.00000000
                                                     2        0.1200000       -0.02862031    0.00000000
                                                     2        0.1800000       -0.21515263    0.00000000
                                                     2        0.3000000        0.80560647    0.00000000
                                                     2        0.4000000        0.47351754    0.00000000
                                                     2        0.7000000       -4.57051794    0.00000000
                                                     2        1.6000000       18.53737826    0.00000000
   11          1            1
                                      F and up 
                                                     0        0.0000010        0.00072061    0.00000000
                                                     2        0.1200000        0.03832357    0.00000000
                                                     2        0.1400000       -0.08683256    0.00000000
                                                     2        0.1800000        0.09312970    0.00000000
                                                     2        0.2800000       -0.02532572    0.00000000
                                                     2        0.4000000       -0.09430787    0.00000000
                                                     2        0.7000000        0.42710831    0.00000000
                                                     2        1.2000000       -2.11746981    0.00000000
                                      S - F
                                                     0        0.0000010        0.14449603    0.00000000
                                                     2        0.1200000       -0.56378993    0.00000000
                                                     2        0.1400000        0.63941249    0.00000000
                                                     2        0.2600000       -0.58461015    0.00000000
                                                     2        0.5000000        1.00157293    0.00000000
                                                     2        1.8000000       -0.14135838    0.00000000
                                      P - F
                                                     0        0.0000010       -0.09353646    0.00000000
                                                     2        0.1200000        0.31768975    0.00000000
                                                     2        0.2000000       -0.71747951    0.00000000
                                                     2        0.4000000        0.65752308    0.00000000
                                                     2        1.7000000        2.94052587    0.00000000
                                      D - F
                                                     0        0.0000010       -0.04491202    0.00000000
                                                     2        0.1200000       -0.02862031    0.00000000
                                                     2        0.1800000       -0.21515263    0.00000000
                                                     2        0.3000000        0.80560647    0.00000000
                                                     2        0.4000000        0.47351754    0.00000000
                                                     2        0.7000000       -4.57051794    0.00000000
                                                     2        1.6000000       18.53737826    0.00000000
   12          1            1
                                      F and up 
                                                     0        0.0000010        0.00072061    0.00000000
                                                     2        0.1200000        0.03832357    0.00000000
                                                     2        0.1400000       -0.08683256    0.00000000
                                                     2        0.1800000        0.09312970    0.00000000
                                                     2        0.2800000       -0.02532572    0.00000000
                                                     2        0.4000000       -0.09430787    0.00000000
                                                     2        0.7000000        0.42710831    0.00000000
                                                     2        1.2000000       -2.11746981    0.00000000
                                      S - F
                                                     0        0.0000010        0.14449603    0.00000000
                                                     2        0.1200000       -0.56378993    0.00000000
                                                     2        0.1400000        0.63941249    0.00000000
                                                     2        0.2600000       -0.58461015    0.00000000
                                                     2        0.5000000        1.00157293    0.00000000
                                                     2        1.8000000       -0.14135838    0.00000000
                                      P - F
                                                     0        0.0000010       -0.09353646    0.00000000
                                                     2        0.1200000        0.31768975    0.00000000
                                                     2        0.2000000       -0.71747951    0.00000000
                                                     2        0.4000000        0.65752308    0.00000000
                                                     2        1.7000000        2.94052587    0.00000000
                                      D - F
                                                     0        0.0000010       -0.04491202    0.00000000
                                                     2        0.1200000       -0.02862031    0.00000000
                                                     2        0.1800000       -0.21515263    0.00000000
                                                     2        0.3000000        0.80560647    0.00000000
                                                     2        0.4000000        0.47351754    0.00000000
                                                     2        0.7000000       -4.57051794    0.00000000
                                                     2        1.6000000       18.53737826    0.00000000
   13          1            1
                                      F and up 
                                                     0        0.0000010        0.00072061    0.00000000
                                                     2        0.1200000        0.03832357    0.00000000
                                                     2        0.1400000       -0.08683256    0.00000000
                                                     2        0.1800000        0.09312970    0.00000000
                                                     2        0.2800000       -0.02532572    0.00000000
                                                     2        0.4000000       -0.09430787    0.00000000
                                                     2        0.7000000        0.42710831    0.00000000
                                                     2        1.2000000       -2.11746981    0.00000000
                                      S - F
                                                     0        0.0000010        0.14449603    0.00000000
                                                     2        0.1200000       -0.56378993    0.00000000
                                                     2        0.1400000        0.63941249    0.00000000
                                                     2        0.2600000       -0.58461015    0.00000000
                                                     2        0.5000000        1.00157293    0.00000000
                                                     2        1.8000000       -0.14135838    0.00000000
                                      P - F
                                                     0        0.0000010       -0.09353646    0.00000000
                                                     2        0.1200000        0.31768975    0.00000000
                                                     2        0.2000000       -0.71747951    0.00000000
                                                     2        0.4000000        0.65752308    0.00000000
                                                     2        1.7000000        2.94052587    0.00000000
                                      D - F
                                                     0        0.0000010       -0.04491202    0.00000000
                                                     2        0.1200000       -0.02862031    0.00000000
                                                     2        0.1800000       -0.21515263    0.00000000
                                                     2        0.3000000        0.80560647    0.00000000
                                                     2        0.4000000        0.47351754    0.00000000
                                                     2        0.7000000       -4.57051794    0.00000000
                                                     2        1.6000000       18.53737826    0.00000000
   14          1            1
                                      F and up 
                                                     0        0.0000010        0.00072061    0.00000000
                                                     2        0.1200000        0.03832357    0.00000000
                                                     2        0.1400000       -0.08683256    0.00000000
                                                     2        0.1800000        0.09312970    0.00000000
                                                     2        0.2800000       -0.02532572    0.00000000
                                                     2        0.4000000       -0.09430787    0.00000000
                                                     2        0.7000000        0.42710831    0.00000000
                                                     2        1.2000000       -2.11746981    0.00000000
                                      S - F
                                                     0        0.0000010        0.14449603    0.00000000
                                                     2        0.1200000       -0.56378993    0.00000000
                                                     2        0.1400000        0.63941249    0.00000000
                                                     2        0.2600000       -0.58461015    0.00000000
                                                     2        0.5000000        1.00157293    0.00000000
                                                     2        1.8000000       -0.14135838    0.00000000
                                      P - F
                                                     0        0.0000010       -0.09353646    0.00000000
                                                     2        0.1200000        0.31768975    0.00000000
                                                     2        0.2000000       -0.71747951    0.00000000
                                                     2        0.4000000        0.65752308    0.00000000
                                                     2        1.7000000        2.94052587    0.00000000
                                      D - F
                                                     0        0.0000010       -0.04491202    0.00000000
                                                     2        0.1200000       -0.02862031    0.00000000
                                                     2        0.1800000       -0.21515263    0.00000000
                                                     2        0.3000000        0.80560647    0.00000000
                                                     2        0.4000000        0.47351754    0.00000000
                                                     2        0.7000000       -4.57051794    0.00000000
                                                     2        1.6000000       18.53737826    0.00000000
   15          1            1
                                      F and up 
                                                     0        0.0000010        0.00072061    0.00000000
                                                     2        0.1200000        0.03832357    0.00000000
                                                     2        0.1400000       -0.08683256    0.00000000
                                                     2        0.1800000        0.09312970    0.00000000
                                                     2        0.2800000       -0.02532572    0.00000000
                                                     2        0.4000000       -0.09430787    0.00000000
                                                     2        0.7000000        0.42710831    0.00000000
                                                     2        1.2000000       -2.11746981    0.00000000
                                      S - F
                                                     0        0.0000010        0.14449603    0.00000000
                                                     2        0.1200000       -0.56378993    0.00000000
                                                     2        0.1400000        0.63941249    0.00000000
                                                     2        0.2600000       -0.58461015    0.00000000
                                                     2        0.5000000        1.00157293    0.00000000
                                                     2        1.8000000       -0.14135838    0.00000000
                                      P - F
                                                     0        0.0000010       -0.09353646    0.00000000
                                                     2        0.1200000        0.31768975    0.00000000
                                                     2        0.2000000       -0.71747951    0.00000000
                                                     2        0.4000000        0.65752308    0.00000000
                                                     2        1.7000000        2.94052587    0.00000000
                                      D - F
                                                     0        0.0000010       -0.04491202    0.00000000
                                                     2        0.1200000       -0.02862031    0.00000000
                                                     2        0.1800000       -0.21515263    0.00000000
                                                     2        0.3000000        0.80560647    0.00000000
                                                     2        0.4000000        0.47351754    0.00000000
                                                     2        0.7000000       -4.57051794    0.00000000
                                                     2        1.6000000       18.53737826    0.00000000
   16          1            1
                                      F and up 
                                                     0        0.0000010        0.00072061    0.00000000
                                                     2        0.1200000        0.03832357    0.00000000
                                                     2        0.1400000       -0.08683256    0.00000000
                                                     2        0.1800000        0.09312970    0.00000000
                                                     2        0.2800000       -0.02532572    0.00000000
                                                     2        0.4000000       -0.09430787    0.00000000
                                                     2        0.7000000        0.42710831    0.00000000
                                                     2        1.2000000       -2.11746981    0.00000000
                                      S - F
[...]
                                                     2        0.1400000        0.63941249    0.00000000
                                                     2        0.2600000       -0.58461015    0.00000000
                                                     2        0.5000000        1.00157293    0.00000000
                                                     2        1.8000000       -0.14135838    0.00000000
                                      P - F
                                                     0        0.0000010       -0.09353646    0.00000000
                                                     2        0.1200000        0.31768975    0.00000000
                                                     2        0.2000000       -0.71747951    0.00000000
                                                     2        0.4000000        0.65752308    0.00000000
                                                     2        1.7000000        2.94052587    0.00000000
                                      D - F
                                                     0        0.0000010       -0.04491202    0.00000000
                                                     2        0.1200000       -0.02862031    0.00000000
                                                     2        0.1800000       -0.21515263    0.00000000
                                                     2        0.3000000        0.80560647    0.00000000
                                                     2        0.4000000        0.47351754    0.00000000
                                                     2        0.7000000       -4.57051794    0.00000000
                                                     2        1.6000000       18.53737826    0.00000000
   17          1            1
                                      F and up 
                                                     0        0.0000010        0.00072061    0.00000000
                                                     2        0.1200000        0.03832357    0.00000000
                                                     2        0.1400000       -0.08683256    0.00000000
                                                     2        0.1800000        0.09312970    0.00000000
                                                     2        0.2800000       -0.02532572    0.00000000
                                                     2        0.4000000       -0.09430787    0.00000000
                                                     2        0.7000000        0.42710831    0.00000000
                                                     2        1.2000000       -2.11746981    0.00000000
                                      S - F
                                                     0        0.0000010        0.14449603    0.00000000
                                                     2        0.1200000       -0.56378993    0.00000000
                                                     2        0.1400000        0.63941249    0.00000000
                                                     2        0.2600000       -0.58461015    0.00000000
                                                     2        0.5000000        1.00157293    0.00000000
                                                     2        1.8000000       -0.14135838    0.00000000
                                      P - F
                                                     0        0.0000010       -0.09353646    0.00000000
                                                     2        0.1200000        0.31768975    0.00000000
                                                     2        0.2000000       -0.71747951    0.00000000
                                                     2        0.4000000        0.65752308    0.00000000
                                                     2        1.7000000        2.94052587    0.00000000
                                      D - F
                                                     0        0.0000010       -0.04491202    0.00000000
                                                     2        0.1200000       -0.02862031    0.00000000
                                                     2        0.1800000       -0.21515263    0.00000000
                                                     2        0.3000000        0.80560647    0.00000000
                                                     2        0.4000000        0.47351754    0.00000000
                                                     2        0.7000000       -4.57051794    0.00000000
                                                     2        1.6000000       18.53737826    0.00000000
   18          1            1
                                      F and up 
                                                     0        0.0000010        0.00072061    0.00000000
                                                     2        0.1200000        0.03832357    0.00000000
                                                     2        0.1400000       -0.08683256    0.00000000
                                                     2        0.1800000        0.09312970    0.00000000
                                                     2        0.2800000       -0.02532572    0.00000000
                                                     2        0.4000000       -0.09430787    0.00000000
                                                     2        0.7000000        0.42710831    0.00000000
                                                     2        1.2000000       -2.11746981    0.00000000
                                      S - F
                                                     0        0.0000010        0.14449603    0.00000000
                                                     2        0.1200000       -0.56378993    0.00000000
                                                     2        0.1400000        0.63941249    0.00000000
                                                     2        0.2600000       -0.58461015    0.00000000
                                                     2        0.5000000        1.00157293    0.00000000
                                                     2        1.8000000       -0.14135838    0.00000000
                                      P - F
                                                     0        0.0000010       -0.09353646    0.00000000
                                                     2        0.1200000        0.31768975    0.00000000
                                                     2        0.2000000       -0.71747951    0.00000000
                                                     2        0.4000000        0.65752308    0.00000000
                                                     2        1.7000000        2.94052587    0.00000000
                                      D - F
                                                     0        0.0000010       -0.04491202    0.00000000
                                                     2        0.1200000       -0.02862031    0.00000000
                                                     2        0.1800000       -0.21515263    0.00000000
                                                     2        0.3000000        0.80560647    0.00000000
                                                     2        0.4000000        0.47351754    0.00000000
                                                     2        0.7000000       -4.57051794    0.00000000
                                                     2        1.6000000       18.53737826    0.00000000
   19          1            1
                                      F and up 
                                                     0        0.0000010        0.00072061    0.00000000
                                                     2        0.1200000        0.03832357    0.00000000
                                                     2        0.1400000       -0.08683256    0.00000000
                                                     2        0.1800000        0.09312970    0.00000000
                                                     2        0.2800000       -0.02532572    0.00000000
                                                     2        0.4000000       -0.09430787    0.00000000
                                                     2        0.7000000        0.42710831    0.00000000
                                                     2        1.2000000       -2.11746981    0.00000000
                                      S - F
                                                     0        0.0000010        0.14449603    0.00000000
                                                     2        0.1200000       -0.56378993    0.00000000
                                                     2        0.1400000        0.63941249    0.00000000
                                                     2        0.2600000       -0.58461015    0.00000000
                                                     2        0.5000000        1.00157293    0.00000000
                                                     2        1.8000000       -0.14135838    0.00000000
                                      P - F
                                                     0        0.0000010       -0.09353646    0.00000000
                                                     2        0.1200000        0.31768975    0.00000000
                                                     2        0.2000000       -0.71747951    0.00000000
                                                     2        0.4000000        0.65752308    0.00000000
                                                     2        1.7000000        2.94052587    0.00000000
                                      D - F
                                                     0        0.0000010       -0.04491202    0.00000000
                                                     2        0.1200000       -0.02862031    0.00000000
                                                     2        0.1800000       -0.21515263    0.00000000
                                                     2        0.3000000        0.80560647    0.00000000
                                                     2        0.4000000        0.47351754    0.00000000
                                                     2        0.7000000       -4.57051794    0.00000000
                                                     2        1.6000000       18.53737826    0.00000000
 ======================================================================================================
   269 basis functions,   433 primitive gaussians,   283 cartesian basis functions
    28 alpha electrons       28 beta electrons
       nuclear repulsion energy       317.3488565928 Hartrees.
 NAtoms=   19 NActive=   19 NUniq=   19 SFac= 1.00D+00 NAtFMM=   60 NAOKFM=F Big=F
   1 Symmetry operations used in ECPInt.
 ECPInt:  NShTT=    7626 NPrTT=   30486 LenC2=    7624 LenP2D=   24673.
 LDataN:  DoStor=T MaxTD1= 6 Len=  172
 Initial guess from the checkpoint file:  "Grambow2020_wb97xd3_006730_reverse_mol1.chk"
 B after Tr=     0.550581    0.043027    0.156488
         Rot=   -0.479730    0.000199   -0.212305    0.851344 Ang= 237.34 deg.
 >>>>>>>>>> Convergence criterion not met.
 SCF Done:  E(RHF) =  -310.416860449     A.U. after    2 cycles
            NFock=  1  Conv=0.43D+00     -V/T= 2.0171

 **********************************************************************

            Population analysis using the SCF Density.

 **********************************************************************

 Orbital symmetries:
       Occupied  (A) (A) (A) (A) (A) (A) (A) (A) (A) (A) (A) (A)
                 (A) (A) (A) (A) (A) (A) (A) (A) (A) (A) (A) (A)
                 (A) (A) (A) (A)
       Virtual   (A) (A) (A) (A) (A) (A) (A) (A) (A) (A) (A) (A)
                 (A) (A) (A) (A) (A) (A) (A) (A) (A) (A) (A) (A)
                 (A) (A) (A) (A) (A) (A) (A) (A) (A) (A) (A) (A)
                 (A) (A) (A) (A) (A) (A) (A) (A) (A) (A) (A) (A)
                 (A) (A) (A) (A) (A) (A) (A) (A) (A) (A) (A) (A)
                 (A) (A) (A) (A) (A) (A) (A) (A) (A) (A) (A) (A)
                 (A) (A) (A) (A) (A) (A) (A) (A) (A) (A) (A) (A)
                 (A) (A) (A) (A) (A) (A) (A) (A) (A) (A) (A) (A)
                 (A) (A) (A) (A) (A) (A) (A) (A) (A) (A) (A) (A)
                 (A) (A) (A) (A) (A) (A) (A) (A) (A) (A) (A) (A)
                 (A) (A) (A) (A) (A) (A) (A) (A) (A) (A) (A) (A)
                 (A) (A) (A) (A) (A) (A) (A) (A) (A) (A) (A) (A)
                 (A) (A) (A) (A) (A) (A) (A) (A) (A) (A) (A) (A)
                 (A) (A) (A) (A) (A) (A) (A) (A) (A) (A) (A) (A)
                 (A) (A) (A) (A) (A) (A) (A) (A) (A) (A) (A) (A)
                 (A) (A) (A) (A) (A) (A) (A) (A) (A) (A) (A) (A)
                 (A) (A) (A) (A) (A) (A) (A) (A) (A) (A) (A) (A)
                 (A) (A) (A) (A) (A) (A) (A) (A) (A) (A) (A) (A)
                 (A) (A) (A) (A) (A) (A) (A) (A) (A) (A) (A) (A)
                 (A) (A) (A) (A) (A) (A) (A) (A) (A) (A) (A) (A)
                 (A)
 The electronic state is 1-A.
 Alpha  occ. eigenvalues --  -21.00548 -11.46233 -11.44250 -11.43291 -11.39859
 Alpha  occ. eigenvalues --  -11.38161 -11.36508  -1.65982  -1.28015  -1.09901
 Alpha  occ. eigenvalues --   -1.07065  -0.93260  -0.81767  -0.78386  -0.65650
 Alpha  occ. eigenvalues --   -0.62452  -0.62256  -0.60793  -0.55794  -0.54717
 Alpha  occ. eigenvalues --   -0.53344  -0.52612  -0.49601  -0.48386  -0.45301
 Alpha  occ. eigenvalues --   -0.35228  -0.26267  -0.23246
 Alpha virt. eigenvalues --    0.03715   0.04827   0.04898   0.05243   0.05297
 Alpha virt. eigenvalues --    0.05533   0.06242   0.06629   0.07392   0.08494
 Alpha virt. eigenvalues --    0.09034   0.09195   0.10284   0.11819   0.12820
 Alpha virt. eigenvalues --    0.13723   0.14175   0.14958   0.15506   0.16290
 Alpha virt. eigenvalues --    0.16581   0.16927   0.17188   0.17944   0.18303
 Alpha virt. eigenvalues --    0.18695   0.19281   0.19609   0.20083   0.20625
 Alpha virt. eigenvalues --    0.20770   0.21361   0.22641   0.22705   0.24158
 Alpha virt. eigenvalues --    0.25215   0.26815   0.28317   0.29071   0.29970
 Alpha virt. eigenvalues --    0.31814   0.33206   0.33758   0.34572   0.36292
 Alpha virt. eigenvalues --    0.37296   0.37834   0.38678   0.39260   0.40128
 Alpha virt. eigenvalues --    0.40519   0.42224   0.42654   0.43633   0.44166
 Alpha virt. eigenvalues --    0.44897   0.45598   0.45954   0.46589   0.46799
 Alpha virt. eigenvalues --    0.47580   0.47787   0.48592   0.49056   0.49577
 Alpha virt. eigenvalues --    0.49971   0.51497   0.51878   0.52571   0.53406
 Alpha virt. eigenvalues --    0.54404   0.55155   0.56578   0.57374   0.58801
 Alpha virt. eigenvalues --    0.59845   0.59960   0.61782   0.62763   0.63508
 Alpha virt. eigenvalues --    0.63748   0.64519   0.66182   0.66459   0.67640
 Alpha virt. eigenvalues --    0.68459   0.68891   0.69954   0.70452   0.71303
 Alpha virt. eigenvalues --    0.72378   0.73409   0.74159   0.74701   0.75512
 Alpha virt. eigenvalues --    0.76369   0.76870   0.78048   0.78978   0.79535
 Alpha virt. eigenvalues --    0.80861   0.81568   0.81978   0.82656   0.83607
 Alpha virt. eigenvalues --    0.84580   0.85333   0.87378   0.87694   0.88915
 Alpha virt. eigenvalues --    0.90002   0.91904   0.93143   0.94190   0.95104
 Alpha virt. eigenvalues --    0.96518   0.96596   0.97856   0.99535   1.00130
 Alpha virt. eigenvalues --    1.02258   1.03442   1.03731   1.05854   1.09823
 Alpha virt. eigenvalues --    1.14424   1.20829   1.21748   1.24680   1.27128
 Alpha virt. eigenvalues --    1.31032   1.31511   1.34552   1.36909   1.37152
 Alpha virt. eigenvalues --    1.39109   1.40628   1.42301   1.47735   1.50018
 Alpha virt. eigenvalues --    1.54972   1.55699   1.58122   1.64845   1.65678
 Alpha virt. eigenvalues --    1.67638   1.71971   1.73808   1.75813   1.79204
 Alpha virt. eigenvalues --    1.80707   1.82660   1.85707   1.86749   1.88978
 Alpha virt. eigenvalues --    1.92165   1.93570   1.96420   1.97794   1.98413
 Alpha virt. eigenvalues --    1.99144   2.01405   2.02192   2.04513   2.06102
 Alpha virt. eigenvalues --    2.06943   2.08134   2.10616   2.11174   2.12471
 Alpha virt. eigenvalues --    2.14767   2.17289   2.17855   2.21771   2.22194
 Alpha virt. eigenvalues --    2.23151   2.23573   2.25889   2.26993   2.30702
 Alpha virt. eigenvalues --    2.32548   2.34519   2.37451   2.38308   2.40016
 Alpha virt. eigenvalues --    2.42829   2.44262   2.48444   2.50141   2.52717
 Alpha virt. eigenvalues --    2.54912   2.56195   2.57583   2.61995   2.62662
 Alpha virt. eigenvalues --    2.65065   2.66368   2.68312   2.70360   2.71338
 Alpha virt. eigenvalues --    2.73868   2.77341   2.77568   2.81052   2.83406
 Alpha virt. eigenvalues --    2.84960   2.87230   2.89768   2.95453   2.98007
 Alpha virt. eigenvalues --    2.98806   3.02140   3.03302   3.06416   3.08514
 Alpha virt. eigenvalues --    3.11044   3.13326   3.15800   3.22258   3.24075
 Alpha virt. eigenvalues --    3.31702   3.35463   3.38837   3.39779   3.51627
 Alpha virt. eigenvalues --    3.57798   3.65495   3.68438   3.76453   3.77887
 Alpha virt. eigenvalues --    3.80875   3.85015   3.87448   3.98868   4.02374
 Alpha virt. eigenvalues --    4.22475   6.19388   6.21754   6.26923   6.35487
 Alpha virt. eigenvalues --    6.50311
          Condensed to atoms (all electrons):
 Mulliken charges:
               1
     1  C   -4.344640
     2  C   -0.816885
     3  C   -2.887755
     4  C   -3.188250
     5  O   -3.036843
     6  C    1.694158
     7  C   -4.148170
     8  H    0.995739
     9  H    1.314220
    10  H    1.397886
    11  H    1.649340
    12  H    1.432160
    13  H    1.823647
    14  H    1.373441
    15  H    1.412726
    16  H    1.453519
    17  H    1.320344
    18  H    1.495883
    19  H    1.059481
 Sum of Mulliken charges =  -0.00000
 Mulliken charges with hydrogens summed into heavy atoms:
               1
     1  C   -0.636795
     2  C    0.832454
     3  C    0.368053
     4  C   -0.402083
     5  O   -3.036843
     6  C    3.147676
     7  C   -0.272462
 Electronic spatial extent (au):  <R**2>=            892.7372
 Charge=              0.0000 electrons
 Dipole moment (field-independent basis, Debye):
    X=              1.9838    Y=             -0.5943    Z=              0.2287  Tot=              2.0835

 Test job not archived.
 1\1\GINC-SE179\SP\RHF\Aug-CC-pVDZ\C6H12O1\OHZDE\09-Apr-2025\0\\#t hf a
 ug-cc-pvdz iop(5/13=1,5/36=2,99/5=2) pseudo=read geom=check guess=(rea
 d,tcheck) scf=(maxcycle=1)\\title\\0,1\C,0,-1.00558285,-1.58935713,-0.
 63220117\C,0,-0.82264965,-0.10711446,-0.44314869\C,0,-0.94050945,0.521
 67035,0.90851524\C,0,-0.78865914,1.87467644,1.08163197\O,0,1.21307077,
 1.70875619,-0.22172263\C,0,1.2361457,0.56556634,-0.69470784\C,0,1.9883
 3258,-0.53973997,0.01124088\H,0,-2.03431882,-1.89332902,-0.84511438\H,
 0,-0.40142991,-1.91442417,-1.48203754\H,0,-0.66109407,-2.14312287,0.24
 34929\H,0,-1.14296714,0.53013081,-1.2628637\H,0,-0.75417121,-0.1490633
 1,1.74127751\H,0,-1.97998087,0.25572722,0.40143413\H,0,-0.56211354,2.2
 8254385,2.05556072\H,0,-1.02228911,2.56769449,0.28734716\H,0,1.0779120
 1,0.42212761,-1.77862246\H,0,1.7367803,-0.54471731,1.07383293\H,0,1.79
 555887,-1.52319296,-0.42013411\H,0,3.05947054,-0.33726209,-0.06856292\
 \Version=ES64L-G16RevC.01\State=1-A\HF=-310.4168604\RMSD=4.314e-01\Dip
 ole=-0.5938591,-0.5649874,0.0077351\Quadrupole=-0.4469262,-1.041303,1.
 4882292,-0.6734845,0.5305975,0.0364437\PG=C01 [X(C6H12O1)]\\@


 QUANTUM MECHANICS IS BOHRING -- M.S. GORDON
 Job cpu time:       0 days  0 hours  1 minutes 40.6 seconds.
 Elapsed time:       0 days  0 hours  0 minutes  7.4 seconds.
 File lengths (MBytes):  RWF=     14 Int=      0 D2E=      0 Chk=     10 Scr=      1
 Normal termination of Gaussian 16 at Wed Apr  9 03:29:30 2025.
