 Entering Gaussian System, Link 0=g16
 Input=HB300SPXx10_1481_5.11_0.80_thioacetone_phosphineF2_dimer_mol1.gjf
 Output=HB300SPXx10_1481_5.11_0.80_thioacetone_phosphineF2_dimer_mol1.log
 Initial command:
 /arc/software/Gaussian/g16.c01/l1.exe "/tmp/slurm/4884083/Gau-3709332.inp" -scrdir="/tmp/slurm/4884083/"
 Entering Link 1 = /arc/software/Gaussian/g16.c01/l1.exe PID=   3709333.
  
 Copyright (c) 1988-2019, Gaussian, Inc.  All Rights Reserved.
  
 This is part of the Gaussian(R) 16 program.  It is based on
 the Gaussian(R) 09 system (copyright 2009, Gaussian, Inc.),
 the Gaussian(R) 03 system (copyright 2003, Gaussian, Inc.),
 the Gaussian(R) 98 system (copyright 1998, Gaussian, Inc.),
 the Gaussian(R) 94 system (copyright 1995, Gaussian, Inc.),
 the Gaussian 92(TM) system (copyright 1992, Gaussian, Inc.),
 the Gaussian 90(TM) system (copyright 1990, Gaussian, Inc.),
 the Gaussian 88(TM) system (copyright 1988, Gaussian, Inc.),
 the Gaussian 86(TM) system (copyright 1986, Carnegie Mellon
 University), and the Gaussian 82(TM) system (copyright 1983,
 Carnegie Mellon University). Gaussian is a federally registered
 trademark of Gaussian, Inc.
  
 This software contains proprietary and confidential information,
 including trade secrets, belonging to Gaussian, Inc.
  
 This software is provided under written license and may be
 used, copied, transmitted, or stored only in accord with that
 written license.
  
 The following legend is applicable only to US Government
 contracts under FAR:
  
                    RESTRICTED RIGHTS LEGEND
  
 Use, reproduction and disclosure by the US Government is
 subject to restrictions as set forth in subparagraphs (a)
 and (c) of the Commercial Computer Software - Restricted
 Rights clause in FAR 52.227-19.
  
 Gaussian, Inc.
 340 Quinnipiac St., Bldg. 40, Wallingford CT 06492
  
  
 ---------------------------------------------------------------
 Warning -- This program may not be used in any manner that
 competes with the business of Gaussian, Inc. or will provide
 assistance to any competitor of Gaussian, Inc.  The licensee
 of this program is prohibited from giving any competitor of
 Gaussian, Inc. access to this program.  By using this program,
 the user acknowledges that Gaussian, Inc. is engaged in the
 business of creating and licensing software in the field of
 computational chemistry and represents and warrants to the
 licensee that it is not a competitor of Gaussian, Inc. and that
 it will not use this program in any manner prohibited above.
 ---------------------------------------------------------------
  

 Cite this work as:
 Gaussian 16, Revision C.01,
 M. J. Frisch, G. W. Trucks, H. B. Schlegel, G. E. Scuseria, 
 M. A. Robb, J. R. Cheeseman, G. Scalmani, V. Barone, 
 G. A. Petersson, H. Nakatsuji, X. Li, M. Caricato, A. V. Marenich, 
 J. Bloino, B. G. Janesko, R. Gomperts, B. Mennucci, H. P. Hratchian, 
 J. V. Ortiz, A. F. Izmaylov, J. L. Sonnenberg, D. Williams-Young, 
 F. Ding, F. Lipparini, F. Egidi, J. Goings, B. Peng, A. Petrone, 
 T. Henderson, D. Ranasinghe, V. G. Zakrzewski, J. Gao, N. Rega, 
 G. Zheng, W. Liang, M. Hada, M. Ehara, K. Toyota, R. Fukuda, 
 J. Hasegawa, M. Ishida, T. Nakajima, Y. Honda, O. Kitao, H. Nakai, 
 T. Vreven, K. Throssell, J. A. Montgomery, Jr., J. E. Peralta, 
 F. Ogliaro, M. J. Bearpark, J. J. Heyd, E. N. Brothers, K. N. Kudin, 
 V. N. Staroverov, T. A. Keith, R. Kobayashi, J. Normand, 
 K. Raghavachari, A. P. Rendell, J. C. Burant, S. S. Iyengar, 
 J. Tomasi, M. Cossi, J. M. Millam, M. Klene, C. Adamo, R. Cammi, 
 J. W. Ochterski, R. L. Martin, K. Morokuma, O. Farkas, 
 J. B. Foresman, and D. J. Fox, Gaussian, Inc., Wallingford CT, 2019.
 
 ******************************************
 Gaussian 16:  ES64L-G16RevC.01  3-Jul-2019
                 9-Apr-2025 
 ******************************************
 %nprocs=16
 Will use up to   16 processors via shared memory.
 %mem=30GB
 %chk=HB300SPXx10_1481_5.11_0.80_thioacetone_phosphineF2_dimer_mol1.chk
 ----------------------------------------------------------------------
 #t hf aug-cc-pvdz symm=none int=(grid=ultrafine) guess=(read,tcheck) s
 table=(opt,rrhf)
 ----------------------------------------------------------------------
 -----
 title
 -----
 Symbolic Z-matrix:
 Charge =  0 Multiplicity = 1
 H                    -0.82524  -0.11851  -2.18151 
 H                    -1.69819   1.21809  -2.9592 
 H                    -0.71897   0.14764  -3.93512 
 H                     1.4176    3.22176  -3.6833 
 H                     0.73525   2.04679  -4.82844 
 C                    -0.77358   0.63436  -2.95836 
 C                     0.39254   1.55582  -2.78348 
 S                     1.39272   1.48659  -1.50157 
 C                     0.57892   2.56211  -3.87736 
 H                    -0.33203   3.15446  -3.99493 
 P                    -0.0347    0.08149   0.52907 
 F                    -0.32998  -0.79557   1.84536 
 F                    -0.37296  -1.05644  -0.54984 
 H                     1.37454  -0.13328   0.54324 
 
                    Distance matrix (angstroms):
                    1          2          3          4          5
     1  H    0.000000
     2  H    1.775766   0.000000
     3  H    1.776878   1.748472   0.000000
     4  H    4.294547   3.774541   3.752135   0.000000
     5  H    3.758979   3.178434   2.553336   1.776935   0.000000
     6  C    1.083045   1.093459   1.092674   3.467192   2.787241
     7  C    2.156099   2.125117   2.131833   2.153084   2.130816
     8  S    2.820997   3.427902   3.489153   2.787723   3.437175
     9  C    3.468905   2.799043   2.741807   1.084515   1.092960
    10  H    3.774140   2.586249   3.032204   1.778438   1.749504
    11  P    2.830579   4.028284   4.516811   5.451100   5.758307
    12  F    4.113317   5.386152   5.869836   7.054015   7.331671
    13  F    1.935619   3.568579   3.609667   5.597115   5.400427
    14  H    3.501926   4.851281   4.951503   5.396462   5.832352
                    6          7          8          9         10
     6  C    0.000000
     7  C    1.496501   0.000000
     8  S    2.746157   1.627400   0.000000
     9  C    2.527849   1.497973   2.731918   0.000000
    10  H    2.760500   2.132673   3.460266   1.092950   0.000000
    11  P    3.607459   3.650908   2.852244   5.093775   5.477056
    12  F    5.031624   5.241875   4.402035   6.696986   7.050661
    13  F    2.969898   3.521229   3.238891   5.007231   5.440779
    14  H    4.179098   3.858031   2.608744   5.238299   5.858040
                   11         12         13         14
    11  P    0.000000
    12  F    1.609058   0.000000
    13  F    1.604165   2.409749   0.000000
    14  H    1.425574   2.244894   2.258489   0.000000
 Symmetry turned off by external request.
 Rotational constants (GHZ):           4.0076287           0.7901468           0.6936008
   232 basis functions,   454 primitive gaussians,   246 cartesian basis functions
    37 alpha electrons       37 beta electrons
       nuclear repulsion energy       458.9679661651 Hartrees.
 NAtoms=   14 NActive=   14 NUniq=   14 SFac= 1.00D+00 NAtFMM=   60 NAOKFM=F Big=F
 ExpMin= 2.97D-02 ExpMax= 1.11D+05 ExpMxC= 3.24D+03 IAcc=3 IRadAn=         5 AccDes= 0.00D+00
 Harris functional with IExCor=  205 and IRadAn=       5 diagonalized for initial guess.
 HarFok:  IExCor=  205 AccDes= 0.00D+00 IRadAn=         5 IDoV= 1 UseB2=F ITyADJ=14
 ICtDFT=  3500011 ScaDFX=  1.000000  1.000000  1.000000  1.000000
 FoFCou: FMM=F IPFlag=           0 FMFlag=      100000 FMFlg1=           0
         NFxFlg=           0 DoJE=T BraDBF=F KetDBF=T FulRan=T
         wScrn=  0.000000 ICntrl=       500 IOpCl=  0 I1Cent=   200000004 NGrid=           0
         NMat0=    1 NMatS0=      1 NMatT0=    0 NMatD0=    1 NMtDS0=    0 NMtDT0=    0
 Symmetry not used in FoFCou.
 SCF Done:  E(RHF) =  -1054.87855838     A.U. after   15 cycles
            NFock= 15  Conv=0.67D-08     -V/T= 2.0003

 **********************************************************************

            Population analysis using the SCF Density.

 **********************************************************************

 Alpha  occ. eigenvalues --  -91.94434 -80.07097 -26.31671 -26.29967 -11.34482
 Alpha  occ. eigenvalues --  -11.25898 -11.25016  -8.94943  -7.59416  -6.63116
 Alpha  occ. eigenvalues --   -6.62945  -6.62771  -5.48848  -5.48718  -5.48422
 Alpha  occ. eigenvalues --   -1.62849  -1.59034  -1.13694  -0.97957  -0.96850
 Alpha  occ. eigenvalues --   -0.87844  -0.74370  -0.72480  -0.71384  -0.70328
 Alpha  occ. eigenvalues --   -0.65919  -0.64027  -0.62650  -0.62470  -0.61132
 Alpha  occ. eigenvalues --   -0.58525  -0.56613  -0.53451  -0.50297  -0.41848
 Alpha  occ. eigenvalues --   -0.38216  -0.34713
 Alpha virt. eigenvalues --    0.02891   0.03787   0.04618   0.05184   0.06050
 Alpha virt. eigenvalues --    0.06527   0.07261   0.07858   0.09090   0.09401
 Alpha virt. eigenvalues --    0.10382   0.11865   0.12336   0.14101   0.14554
 Alpha virt. eigenvalues --    0.14975   0.16153   0.16523   0.16896   0.17538
 Alpha virt. eigenvalues --    0.17708   0.18033   0.19213   0.19898   0.20364
 Alpha virt. eigenvalues --    0.20636   0.23688   0.24034   0.24857   0.26241
 Alpha virt. eigenvalues --    0.26978   0.28118   0.28655   0.31243   0.32003
 Alpha virt. eigenvalues --    0.32926   0.33683   0.34768   0.35184   0.35980
 Alpha virt. eigenvalues --    0.37098   0.38121   0.38739   0.39000   0.39695
 Alpha virt. eigenvalues --    0.40024   0.41730   0.42676   0.43023   0.43678
 Alpha virt. eigenvalues --    0.44597   0.45242   0.47105   0.48068   0.48431
 Alpha virt. eigenvalues --    0.48777   0.49708   0.50362   0.51629   0.52453
 Alpha virt. eigenvalues --    0.53689   0.54836   0.54954   0.55666   0.57350
 Alpha virt. eigenvalues --    0.58334   0.59421   0.59753   0.60351   0.60989
 Alpha virt. eigenvalues --    0.62645   0.63782   0.63876   0.65081   0.65689
 Alpha virt. eigenvalues --    0.66723   0.68542   0.70347   0.72762   0.73469
 Alpha virt. eigenvalues --    0.74526   0.75101   0.76813   0.78230   0.78446
 Alpha virt. eigenvalues --    0.79737   0.81391   0.84293   0.85090   0.87308
 Alpha virt. eigenvalues --    0.88042   0.89540   0.92085   0.93287   0.94434
 Alpha virt. eigenvalues --    0.95445   0.96924   0.98321   0.99847   1.02371
 Alpha virt. eigenvalues --    1.02711   1.05355   1.05823   1.10275   1.11724
 Alpha virt. eigenvalues --    1.12844   1.14247   1.15419   1.16382   1.18302
 Alpha virt. eigenvalues --    1.20519   1.22692   1.25513   1.27397   1.28842
 Alpha virt. eigenvalues --    1.32167   1.32430   1.36125   1.38613   1.39529
 Alpha virt. eigenvalues --    1.42965   1.43536   1.44816   1.49176   1.51898
 Alpha virt. eigenvalues --    1.53414   1.54052   1.55709   1.56699   1.59832
 Alpha virt. eigenvalues --    1.62329   1.65044   1.66102   1.68501   1.71472
 Alpha virt. eigenvalues --    1.73531   1.75856   1.77007   1.79911   1.83623
 Alpha virt. eigenvalues --    1.84950   1.87829   1.88163   1.88846   1.90466
 Alpha virt. eigenvalues --    1.91321   1.92196   1.94372   1.95759   1.98592
 Alpha virt. eigenvalues --    2.03814   2.05522   2.08705   2.14236   2.16426
 Alpha virt. eigenvalues --    2.17671   2.19569   2.22002   2.23022   2.24754
 Alpha virt. eigenvalues --    2.29109   2.29344   2.30032   2.34077   2.36416
 Alpha virt. eigenvalues --    2.41560   2.44428   2.46220   2.47455   2.52766
 Alpha virt. eigenvalues --    2.58306   2.59512   2.68454   2.72198   2.79512
 Alpha virt. eigenvalues --    2.83840   2.87022   2.92053   2.93318   2.95793
 Alpha virt. eigenvalues --    3.04791   3.12082   3.23835   3.24560   3.28828
 Alpha virt. eigenvalues --    4.88499   4.90561   4.95794   4.99095   5.00267
 Alpha virt. eigenvalues --    5.01731   5.07209   5.10150   5.13556   5.23709
          Condensed to atoms (all electrons):
 Mulliken charges:
               1
     1  H   -0.279112
     2  H    0.111391
     3  H    0.086542
     4  H   -0.064737
     5  H    0.055951
     6  C    0.485103
     7  C   -0.858588
     8  S    0.023329
     9  C    0.421142
    10  H    0.052519
    11  P    1.311962
    12  F   -0.734251
    13  F   -0.745349
    14  H    0.134097
 Sum of Mulliken charges =  -0.00000
 Mulliken charges with hydrogens summed into heavy atoms:
               1
     6  C    0.403924
     7  C   -0.858588
     8  S    0.023329
     9  C    0.464876
    11  P    1.446059
    12  F   -0.734251
    13  F   -0.745349
 Electronic spatial extent (au):  <R**2>=           1999.9995
 Charge=             -0.0000 electrons
 Dipole moment (field-independent basis, Debye):
    X=             -0.5628    Y=              1.9315    Z=             -3.9402  Tot=              4.4241
 NROrb=    232 NOA=    37 NOB=    37 NVA=   195 NVB=   195

 **** Warning!!: The largest alpha MO coefficient is  0.41948956D+02

    12 initial guesses have been made.
 Iteration     1 Dimension    12 NMult     0 NNew     12
 Iteration     2 Dimension    24 NMult    12 NNew     12
 Iteration     3 Dimension    27 NMult    24 NNew      3
 Iteration     4 Dimension    30 NMult    27 NNew      3
 Iteration     5 Dimension    33 NMult    30 NNew      3
 Iteration     6 Dimension    36 NMult    33 NNew      3
 ***********************************************************************
 Stability analysis using <AA,BB:AA,BB> singles matrix:
 ***********************************************************************
 Ground to excited state transition densities written to RWF  633

 Eigenvectors of the stability matrix:
 
 Excited state symmetry could not be determined.
 Eigenvector   1:      Singlet-?Sym  Eigenvalue= 0.1305252  <S**2>=0.000
      36 -> 39        -0.11093
      36 -> 42         0.10450
      37 -> 39         0.45841
      37 -> 41         0.15030
      37 -> 42        -0.40923
      37 -> 46         0.11171
 The wavefunction is stable under the perturbations considered.
 The wavefunction is already stable.

 **********************************************************************

            Population analysis using the SCF Density.

 **********************************************************************

 Alpha  occ. eigenvalues --  -91.94434 -80.07097 -26.31671 -26.29967 -11.34482
 Alpha  occ. eigenvalues --  -11.25898 -11.25016  -8.94943  -7.59416  -6.63116
 Alpha  occ. eigenvalues --   -6.62945  -6.62771  -5.48848  -5.48718  -5.48422
 Alpha  occ. eigenvalues --   -1.62849  -1.59034  -1.13694  -0.97957  -0.96850
 Alpha  occ. eigenvalues --   -0.87844  -0.74370  -0.72480  -0.71384  -0.70328
 Alpha  occ. eigenvalues --   -0.65919  -0.64027  -0.62650  -0.62470  -0.61132
 Alpha  occ. eigenvalues --   -0.58525  -0.56613  -0.53451  -0.50297  -0.41848
 Alpha  occ. eigenvalues --   -0.38216  -0.34713
 Alpha virt. eigenvalues --    0.02891   0.03787   0.04618   0.05184   0.06050
 Alpha virt. eigenvalues --    0.06527   0.07261   0.07858   0.09090   0.09401
 Alpha virt. eigenvalues --    0.10382   0.11865   0.12336   0.14101   0.14554
 Alpha virt. eigenvalues --    0.14975   0.16153   0.16523   0.16896   0.17538
 Alpha virt. eigenvalues --    0.17708   0.18033   0.19213   0.19898   0.20364
 Alpha virt. eigenvalues --    0.20636   0.23688   0.24034   0.24857   0.26241
 Alpha virt. eigenvalues --    0.26978   0.28118   0.28655   0.31243   0.32003
 Alpha virt. eigenvalues --    0.32926   0.33683   0.34768   0.35184   0.35980
 Alpha virt. eigenvalues --    0.37098   0.38121   0.38739   0.39000   0.39695
 Alpha virt. eigenvalues --    0.40024   0.41730   0.42676   0.43023   0.43678
 Alpha virt. eigenvalues --    0.44597   0.45242   0.47105   0.48068   0.48431
 Alpha virt. eigenvalues --    0.48777   0.49708   0.50362   0.51629   0.52453
 Alpha virt. eigenvalues --    0.53689   0.54836   0.54954   0.55666   0.57350
 Alpha virt. eigenvalues --    0.58334   0.59421   0.59753   0.60351   0.60989
 Alpha virt. eigenvalues --    0.62645   0.63782   0.63876   0.65081   0.65689
 Alpha virt. eigenvalues --    0.66723   0.68542   0.70347   0.72762   0.73469
 Alpha virt. eigenvalues --    0.74526   0.75101   0.76813   0.78230   0.78446
 Alpha virt. eigenvalues --    0.79737   0.81391   0.84293   0.85090   0.87308
 Alpha virt. eigenvalues --    0.88042   0.89540   0.92085   0.93287   0.94434
 Alpha virt. eigenvalues --    0.95445   0.96924   0.98321   0.99847   1.02371
 Alpha virt. eigenvalues --    1.02711   1.05355   1.05823   1.10275   1.11724
 Alpha virt. eigenvalues --    1.12844   1.14247   1.15419   1.16382   1.18302
 Alpha virt. eigenvalues --    1.20519   1.22692   1.25513   1.27397   1.28842
 Alpha virt. eigenvalues --    1.32167   1.32430   1.36125   1.38613   1.39529
 Alpha virt. eigenvalues --    1.42965   1.43536   1.44816   1.49176   1.51898
 Alpha virt. eigenvalues --    1.53414   1.54052   1.55709   1.56699   1.59832
 Alpha virt. eigenvalues --    1.62329   1.65044   1.66102   1.68501   1.71472
 Alpha virt. eigenvalues --    1.73531   1.75856   1.77007   1.79911   1.83623
 Alpha virt. eigenvalues --    1.84950   1.87829   1.88163   1.88846   1.90466
 Alpha virt. eigenvalues --    1.91321   1.92196   1.94372   1.95759   1.98592
 Alpha virt. eigenvalues --    2.03814   2.05522   2.08705   2.14236   2.16426
 Alpha virt. eigenvalues --    2.17671   2.19569   2.22002   2.23022   2.24754
 Alpha virt. eigenvalues --    2.29109   2.29344   2.30032   2.34077   2.36416
 Alpha virt. eigenvalues --    2.41560   2.44428   2.46220   2.47455   2.52766
 Alpha virt. eigenvalues --    2.58306   2.59512   2.68454   2.72198   2.79512
 Alpha virt. eigenvalues --    2.83840   2.87022   2.92053   2.93318   2.95793
 Alpha virt. eigenvalues --    3.04791   3.12082   3.23835   3.24560   3.28828
 Alpha virt. eigenvalues --    4.88499   4.90561   4.95794   4.99095   5.00267
 Alpha virt. eigenvalues --    5.01731   5.07209   5.10150   5.13556   5.23709
          Condensed to atoms (all electrons):
 Mulliken charges:
               1
     1  H   -0.279112
     2  H    0.111391
     3  H    0.086542
     4  H   -0.064737
     5  H    0.055951
     6  C    0.485103
     7  C   -0.858588
     8  S    0.023329
     9  C    0.421142
    10  H    0.052519
    11  P    1.311962
    12  F   -0.734251
    13  F   -0.745349
    14  H    0.134097
 Sum of Mulliken charges =  -0.00000
 Mulliken charges with hydrogens summed into heavy atoms:
               1
     6  C    0.403924
     7  C   -0.858588
     8  S    0.023329
     9  C    0.464876
    11  P    1.446059
    12  F   -0.734251
    13  F   -0.745349
 Electronic spatial extent (au):  <R**2>=           1999.9995
 Charge=             -0.0000 electrons
 Dipole moment (field-independent basis, Debye):
    X=             -0.5628    Y=              1.9315    Z=             -3.9402  Tot=              4.4241
 Unable to Open any file for archive entry.
 1\1\GINC-SE054\Stability\RHF\Aug-CC-pVDZ\C3H7F2P1S1\OHZDE\09-Apr-2025\
 0\\#t hf aug-cc-pvdz symm=none int=(grid=ultrafine) guess=(read,tcheck
 ) stable=(opt,rrhf)\\title\\0,1\H,0,-0.82524406,-0.11851319,-2.1815071
 9\H,0,-1.6981931,1.21808686,-2.95919937\H,0,-0.71897066,0.14764096,-3.
 93512177\H,0,1.41759528,3.22175764,-3.68330427\H,0,0.73524726,2.046786
 05,-4.82844268\C,0,-0.77357806,0.63435768,-2.9583614\C,0,0.3925438,1.5
 5581911,-2.78347778\S,0,1.39271927,1.4865874,-1.50157001\C,0,0.5789190
 3,2.56210758,-3.87735604\H,0,-0.33203334,3.15446018,-3.99493457\P,0,-0
 .03469502,0.08148939,0.52906606\F,0,-0.32998352,-0.79557005,1.84536371
 \F,0,-0.37295806,-1.0564428,-0.54983725\H,0,1.37453673,-0.13328264,0.5
 4323679\\Version=ES64L-G16RevC.01\HF=-1054.8785584\RMSD=6.739e-09\Dipo
 le=-0.2214198,0.7598994,-1.5502079\Quadrupole=-3.454098,-3.100882,6.55
 49801,-1.9358612,2.9694912,-3.4037381\PG=Unknown\\@
 The archive entry for this job was punched.


 THE MOST INCOMPREHENSIBLE THING ABOUT THE WORLD
 IS THAT IT IS COMPREHENSIBLE. -- A. EINSTEIN
 Job cpu time:       0 days  0 hours  8 minutes  1.6 seconds.
 Elapsed time:       0 days  0 hours  0 minutes 34.8 seconds.
 File lengths (MBytes):  RWF=    307 Int=      0 D2E=      0 Chk=      8 Scr=      1
 Normal termination of Gaussian 16 at Wed Apr  9 19:46:18 2025.
 Initial command:
 /arc/software/Gaussian/g16.c01/l1.exe "/tmp/slurm/4884083/Gau-3709332.inp" -scrdir="/tmp/slurm/4884083/"
 Entering Link 1 = /arc/software/Gaussian/g16.c01/l1.exe PID=   3709582.
  
 Copyright (c) 1988-2019, Gaussian, Inc.  All Rights Reserved.
  
 This is part of the Gaussian(R) 16 program.  It is based on
 the Gaussian(R) 09 system (copyright 2009, Gaussian, Inc.),
 the Gaussian(R) 03 system (copyright 2003, Gaussian, Inc.),
 the Gaussian(R) 98 system (copyright 1998, Gaussian, Inc.),
 the Gaussian(R) 94 system (copyright 1995, Gaussian, Inc.),
 the Gaussian 92(TM) system (copyright 1992, Gaussian, Inc.),
 the Gaussian 90(TM) system (copyright 1990, Gaussian, Inc.),
 the Gaussian 88(TM) system (copyright 1988, Gaussian, Inc.),
 the Gaussian 86(TM) system (copyright 1986, Carnegie Mellon
 University), and the Gaussian 82(TM) system (copyright 1983,
 Carnegie Mellon University). Gaussian is a federally registered
 trademark of Gaussian, Inc.
  
 This software contains proprietary and confidential information,
 including trade secrets, belonging to Gaussian, Inc.
  
 This software is provided under written license and may be
 used, copied, transmitted, or stored only in accord with that
 written license.
  
 The following legend is applicable only to US Government
 contracts under FAR:
  
                    RESTRICTED RIGHTS LEGEND
  
 Use, reproduction and disclosure by the US Government is
 subject to restrictions as set forth in subparagraphs (a)
 and (c) of the Commercial Computer Software - Restricted
 Rights clause in FAR 52.227-19.
  
 Gaussian, Inc.
 340 Quinnipiac St., Bldg. 40, Wallingford CT 06492
  
  
 ---------------------------------------------------------------
 Warning -- This program may not be used in any manner that
 competes with the business of Gaussian, Inc. or will provide
 assistance to any competitor of Gaussian, Inc.  The licensee
 of this program is prohibited from giving any competitor of
 Gaussian, Inc. access to this program.  By using this program,
 the user acknowledges that Gaussian, Inc. is engaged in the
 business of creating and licensing software in the field of
 computational chemistry and represents and warrants to the
 licensee that it is not a competitor of Gaussian, Inc. and that
 it will not use this program in any manner prohibited above.
 ---------------------------------------------------------------
  

 Cite this work as:
 Gaussian 16, Revision C.01,
 M. J. Frisch, G. W. Trucks, H. B. Schlegel, G. E. Scuseria, 
 M. A. Robb, J. R. Cheeseman, G. Scalmani, V. Barone, 
 G. A. Petersson, H. Nakatsuji, X. Li, M. Caricato, A. V. Marenich, 
 J. Bloino, B. G. Janesko, R. Gomperts, B. Mennucci, H. P. Hratchian, 
 J. V. Ortiz, A. F. Izmaylov, J. L. Sonnenberg, D. Williams-Young, 
 F. Ding, F. Lipparini, F. Egidi, J. Goings, B. Peng, A. Petrone, 
 T. Henderson, D. Ranasinghe, V. G. Zakrzewski, J. Gao, N. Rega, 
 G. Zheng, W. Liang, M. Hada, M. Ehara, K. Toyota, R. Fukuda, 
 J. Hasegawa, M. Ishida, T. Nakajima, Y. Honda, O. Kitao, H. Nakai, 
 T. Vreven, K. Throssell, J. A. Montgomery, Jr., J. E. Peralta, 
 F. Ogliaro, M. J. Bearpark, J. J. Heyd, E. N. Brothers, K. N. Kudin, 
 V. N. Staroverov, T. A. Keith, R. Kobayashi, J. Normand, 
 K. Raghavachari, A. P. Rendell, J. C. Burant, S. S. Iyengar, 
 J. Tomasi, M. Cossi, J. M. Millam, M. Klene, C. Adamo, R. Cammi, 
 J. W. Ochterski, R. L. Martin, K. Morokuma, O. Farkas, 
 J. B. Foresman, and D. J. Fox, Gaussian, Inc., Wallingford CT, 2019.
 
 ******************************************
 Gaussian 16:  ES64L-G16RevC.01  3-Jul-2019
                 9-Apr-2025 
 ******************************************
 %nprocs=16
 Will use up to   16 processors via shared memory.
 %mem=30GB
 %chk=HB300SPXx10_1481_5.11_0.80_thioacetone_phosphineF2_dimer_mol1.chk
 ----------------------------------------------------------------------
 #t hf aug-cc-pvdz iop(5/13=1,5/36=2,99/5=2) pseudo=read geom=check gue
 ss=(read,tcheck) scf=(maxcycle=1)
 ----------------------------------------------------------------------
 -----
 title
 -----
 Structure from the checkpoint file:  "HB300SPXx10_1481_5.11_0.80_thioacetone_phosphineF2_dimer_mol1.chk"
 Charge =  0 Multiplicity = 1
 Z-Matrix found in chk file.
 H,0,-0.82524406,-0.11851319,-2.18150719
 H,0,-1.6981931,1.21808686,-2.95919937
 H,0,-0.71897066,0.14764096,-3.93512177
 H,0,1.41759528,3.22175764,-3.68330427
 H,0,0.73524726,2.04678605,-4.82844268
 C,0,-0.77357806,0.63435768,-2.9583614
 C,0,0.3925438,1.55581911,-2.78347778
 S,0,1.39271927,1.4865874,-1.50157001
 C,0,0.57891903,2.56210758,-3.87735604
 H,0,-0.33203334,3.15446018,-3.99493457
 P,0,-0.03469502,0.08148939,0.52906606
 F,0,-0.32998352,-0.79557005,1.84536371
 F,0,-0.37295806,-1.0564428,-0.54983725
 H,0,1.37453673,-0.13328264,0.54323679
 Recover connectivity data from disk.
                    Distance matrix (angstroms):
                    1          2          3          4          5
     1  H    0.000000
     2  H    1.775766   0.000000
     3  H    1.776878   1.748472   0.000000
     4  H    4.294547   3.774541   3.752135   0.000000
     5  H    3.758979   3.178434   2.553336   1.776935   0.000000
     6  C    1.083045   1.093459   1.092674   3.467192   2.787241
     7  C    2.156099   2.125117   2.131833   2.153084   2.130816
     8  S    2.820997   3.427902   3.489153   2.787723   3.437175
     9  C    3.468905   2.799043   2.741807   1.084515   1.092960
    10  H    3.774140   2.586249   3.032204   1.778438   1.749504
    11  P    2.830579   4.028284   4.516811   5.451100   5.758307
    12  F    4.113317   5.386152   5.869836   7.054015   7.331671
    13  F    1.935619   3.568579   3.609667   5.597115   5.400427
    14  H    3.501926   4.851281   4.951503   5.396462   5.832352
                    6          7          8          9         10
     6  C    0.000000
     7  C    1.496501   0.000000
     8  S    2.746157   1.627400   0.000000
     9  C    2.527849   1.497973   2.731918   0.000000
    10  H    2.760500   2.132673   3.460266   1.092950   0.000000
    11  P    3.607459   3.650908   2.852244   5.093775   5.477056
    12  F    5.031624   5.241875   4.402035   6.696986   7.050661
    13  F    2.969898   3.521229   3.238891   5.007231   5.440779
    14  H    4.179098   3.858031   2.608744   5.238299   5.858040
                   11         12         13         14
    11  P    0.000000
    12  F    1.609058   0.000000
    13  F    1.604165   2.409749   0.000000
    14  H    1.425574   2.244894   2.258489   0.000000
 Framework group  C1[X(C3H7F2PS)]
 Deg. of freedom    36
                         Standard orientation:                         
 ---------------------------------------------------------------------
 Center     Atomic      Atomic             Coordinates (Angstroms)
 Number     Number       Type             X           Y           Z
 ---------------------------------------------------------------------
      1          1           0        0.381308    1.613180   -0.164081
      2          1           0        1.596401    1.914018    1.095439
      3          1           0        2.025681    2.139083   -0.584507
      4          1           0        3.654221   -1.135921    0.252583
      5          1           0        3.944991    0.458628   -0.475678
      6          6           0        1.429996    1.518823    0.089564
      7          6           0        1.906207    0.101348    0.030371
      8         16           0        0.916585   -1.154419   -0.273160
      9          6           0        3.371506   -0.089175    0.276378
     10          1           0        3.643714    0.340735    1.243653
     11         15           0       -1.720380   -0.226814    0.293639
     12          9           0       -3.325431   -0.114647    0.276460
     13          9           0       -1.419784    1.063099   -0.611409
     14          1           0       -1.645302   -1.178864   -0.764769
 ---------------------------------------------------------------------
 Rotational constants (GHZ):           4.0076287           0.7901468           0.6936008
 ======================================================================================================
                                       Pseudopotential Parameters
 ======================================================================================================
  Center     Atomic      Valence      Angular      Power
  Number     Number     Electrons     Momentum     of R      Exponent        Coefficient   SO-Coeffient
 ======================================================================================================
    1          1            1
                                      F and up 
                                                     0        0.0000010        0.00072061    0.00000000
                                                     2        0.1200000        0.03832357    0.00000000
                                                     2        0.1400000       -0.08683256    0.00000000
                                                     2        0.1800000        0.09312970    0.00000000
                                                     2        0.2800000       -0.02532572    0.00000000
                                                     2        0.4000000       -0.09430787    0.00000000
                                                     2        0.7000000        0.42710831    0.00000000
                                                     2        1.2000000       -2.11746981    0.00000000
                                      S - F
                                                     0        0.0000010        0.14449603    0.00000000
                                                     2        0.1200000       -0.56378993    0.00000000
                                                     2        0.1400000        0.63941249    0.00000000
                                                     2        0.2600000       -0.58461015    0.00000000
                                                     2        0.5000000        1.00157293    0.00000000
                                                     2        1.8000000       -0.14135838    0.00000000
                                      P - F
                                                     0        0.0000010       -0.09353646    0.00000000
                                                     2        0.1200000        0.31768975    0.00000000
                                                     2        0.2000000       -0.71747951    0.00000000
                                                     2        0.4000000        0.65752308    0.00000000
                                                     2        1.7000000        2.94052587    0.00000000
                                      D - F
                                                     0        0.0000010       -0.04491202    0.00000000
                                                     2        0.1200000       -0.02862031    0.00000000
                                                     2        0.1800000       -0.21515263    0.00000000
                                                     2        0.3000000        0.80560647    0.00000000
                                                     2        0.4000000        0.47351754    0.00000000
                                                     2        0.7000000       -4.57051794    0.00000000
                                                     2        1.6000000       18.53737826    0.00000000
    2          1            1
                                      F and up 
                                                     0        0.0000010        0.00072061    0.00000000
                                                     2        0.1200000        0.03832357    0.00000000
                                                     2        0.1400000       -0.08683256    0.00000000
                                                     2        0.1800000        0.09312970    0.00000000
                                                     2        0.2800000       -0.02532572    0.00000000
                                                     2        0.4000000       -0.09430787    0.00000000
                                                     2        0.7000000        0.42710831    0.00000000
                                                     2        1.2000000       -2.11746981    0.00000000
                                      S - F
                                                     0        0.0000010        0.14449603    0.00000000
                                                     2        0.1200000       -0.56378993    0.00000000
                                                     2        0.1400000        0.63941249    0.00000000
                                                     2        0.2600000       -0.58461015    0.00000000
                                                     2        0.5000000        1.00157293    0.00000000
                                                     2        1.8000000       -0.14135838    0.00000000
                                      P - F
                                                     0        0.0000010       -0.09353646    0.00000000
                                                     2        0.1200000        0.31768975    0.00000000
                                                     2        0.2000000       -0.71747951    0.00000000
                                                     2        0.4000000        0.65752308    0.00000000
                                                     2        1.7000000        2.94052587    0.00000000
                                      D - F
                                                     0        0.0000010       -0.04491202    0.00000000
                                                     2        0.1200000       -0.02862031    0.00000000
                                                     2        0.1800000       -0.21515263    0.00000000
                                                     2        0.3000000        0.80560647    0.00000000
                                                     2        0.4000000        0.47351754    0.00000000
                                                     2        0.7000000       -4.57051794    0.00000000
                                                     2        1.6000000       18.53737826    0.00000000
    3          1            1
                                      F and up 
                                                     0        0.0000010        0.00072061    0.00000000
                                                     2        0.1200000        0.03832357    0.00000000
                                                     2        0.1400000       -0.08683256    0.00000000
                                                     2        0.1800000        0.09312970    0.00000000
                                                     2        0.2800000       -0.02532572    0.00000000
                                                     2        0.4000000       -0.09430787    0.00000000
                                                     2        0.7000000        0.42710831    0.00000000
                                                     2        1.2000000       -2.11746981    0.00000000
                                      S - F
                                                     0        0.0000010        0.14449603    0.00000000
                                                     2        0.1200000       -0.56378993    0.00000000
                                                     2        0.1400000        0.63941249    0.00000000
                                                     2        0.2600000       -0.58461015    0.00000000
                                                     2        0.5000000        1.00157293    0.00000000
                                                     2        1.8000000       -0.14135838    0.00000000
                                      P - F
                                                     0        0.0000010       -0.09353646    0.00000000
                                                     2        0.1200000        0.31768975    0.00000000
                                                     2        0.2000000       -0.71747951    0.00000000
                                                     2        0.4000000        0.65752308    0.00000000
                                                     2        1.7000000        2.94052587    0.00000000
                                      D - F
                                                     0        0.0000010       -0.04491202    0.00000000
                                                     2        0.1200000       -0.02862031    0.00000000
                                                     2        0.1800000       -0.21515263    0.00000000
                                                     2        0.3000000        0.80560647    0.00000000
                                                     2        0.4000000        0.47351754    0.00000000
                                                     2        0.7000000       -4.57051794    0.00000000
                                                     2        1.6000000       18.53737826    0.00000000
    4          1            1
                                      F and up 
                                                     0        0.0000010        0.00072061    0.00000000
                                                     2        0.1200000        0.03832357    0.00000000
                                                     2        0.1400000       -0.08683256    0.00000000
                                                     2        0.1800000        0.09312970    0.00000000
                                                     2        0.2800000       -0.02532572    0.00000000
                                                     2        0.4000000       -0.09430787    0.00000000
                                                     2        0.7000000        0.42710831    0.00000000
                                                     2        1.2000000       -2.11746981    0.00000000
                                      S - F
                                                     0        0.0000010        0.14449603    0.00000000
                                                     2        0.1200000       -0.56378993    0.00000000
                                                     2        0.1400000        0.63941249    0.00000000
                                                     2        0.2600000       -0.58461015    0.00000000
                                                     2        0.5000000        1.00157293    0.00000000
                                                     2        1.8000000       -0.14135838    0.00000000
                                      P - F
                                                     0        0.0000010       -0.09353646    0.00000000
                                                     2        0.1200000        0.31768975    0.00000000
                                                     2        0.2000000       -0.71747951    0.00000000
                                                     2        0.4000000        0.65752308    0.00000000
                                                     2        1.7000000        2.94052587    0.00000000
                                      D - F
                                                     0        0.0000010       -0.04491202    0.00000000
                                                     2        0.1200000       -0.02862031    0.00000000
                                                     2        0.1800000       -0.21515263    0.00000000
                                                     2        0.3000000        0.80560647    0.00000000
                                                     2        0.4000000        0.47351754    0.00000000
                                                     2        0.7000000       -4.57051794    0.00000000
                                                     2        1.6000000       18.53737826    0.00000000
    5          1            1
                                      F and up 
                                                     0        0.0000010        0.00072061    0.00000000
                                                     2        0.1200000        0.03832357    0.00000000
                                                     2        0.1400000       -0.08683256    0.00000000
                                                     2        0.1800000        0.09312970    0.00000000
                                                     2        0.2800000       -0.02532572    0.00000000
                                                     2        0.4000000       -0.09430787    0.00000000
                                                     2        0.7000000        0.42710831    0.00000000
                                                     2        1.2000000       -2.11746981    0.00000000
                                      S - F
                                                     0        0.0000010        0.14449603    0.00000000
                                                     2        0.1200000       -0.56378993    0.00000000
                                                     2        0.1400000        0.63941249    0.00000000
                                                     2        0.2600000       -0.58461015    0.00000000
                                                     2        0.5000000        1.00157293    0.00000000
                                                     2        1.8000000       -0.14135838    0.00000000
                                      P - F
                                                     0        0.0000010       -0.09353646    0.00000000
                                                     2        0.1200000        0.31768975    0.00000000
                                                     2        0.2000000       -0.71747951    0.00000000
                                                     2        0.4000000        0.65752308    0.00000000
                                                     2        1.7000000        2.94052587    0.00000000
                                      D - F
                                                     0        0.0000010       -0.04491202    0.00000000
                                                     2        0.1200000       -0.02862031    0.00000000
                                                     2        0.1800000       -0.21515263    0.00000000
                                                     2        0.3000000        0.80560647    0.00000000
                                                     2        0.4000000        0.47351754    0.00000000
                                                     2        0.7000000       -4.57051794    0.00000000
                                                     2        1.6000000       18.53737826    0.00000000
    6          6            6
                                      G and up 
                                                     0        0.0000010       -0.00286759    0.00000000
                                                     2        0.1200000        0.03193960    0.00000000
                                                     2        0.1600000       -0.04027782    0.00000000
                                                     2        0.2600000        0.24782456    0.00000000
                                                     2        0.4000000       -0.62266671    0.00000000
                                                     2        0.7000000        0.35695227    0.00000000
                                      S - G
                                                     0        0.0000010       -0.06602313    0.00000000
                                                     2        0.1200000        1.47277455    0.00000000
                                                     2        0.1600000       -4.06924166    0.00000000
                                                     2        0.3000000        5.02952802    0.00000000
                                                     2        0.7000000       -5.65856978    0.00000000
                                                     2        1.7000000        8.57604414    0.00000000
                                      P - G
                                                     0        0.0000010        0.49434425    0.00000000
                                                     2        0.1200000       -1.37391547    0.00000000
                                                     2        0.1600000        3.65411806    0.00000000
                                                     2        0.2800000       -7.36479843    0.00000000
                                                     2        0.6000000       17.22091285    0.00000000
                                                     2        1.1000000      -23.50107827    0.00000000
                                                     2        3.0000000       16.29464063    0.00000000
                                      D - G
                                                     0        0.0000010       -0.28693103    0.00000000
                                                     2        0.1200000        0.12273044    0.00000000
                                                     2        0.3000000       -0.43416384    0.00000000
                                                     2        0.7000000        2.23358493    0.00000000
                                      F - G
                                                     0        0.0000010        0.07263570    0.00000000
                                                     2        0.1400000       -0.76152861    0.00000000
                                                     2        0.2200000        1.98045593    0.00000000
                                                     2        0.4000000       -2.42426427    0.00000000
                                                     2        0.7000000        0.52335237    0.00000000
    7          6            6
                                      G and up 
                                                     0        0.0000010       -0.00286759    0.00000000
                                                     2        0.1200000        0.03193960    0.00000000
                                                     2        0.1600000       -0.04027782    0.00000000
                                                     2        0.2600000        0.24782456    0.00000000
                                                     2        0.4000000       -0.62266671    0.00000000
                                                     2        0.7000000        0.35695227    0.00000000
                                      S - G
                                                     0        0.0000010       -0.06602313    0.00000000
                                                     2        0.1200000        1.47277455    0.00000000
                                                     2        0.1600000       -4.06924166    0.00000000
                                                     2        0.3000000        5.02952802    0.00000000
                                                     2        0.7000000       -5.65856978    0.00000000
                                                     2        1.7000000        8.57604414    0.00000000
                                      P - G
                                                     0        0.0000010        0.49434425    0.00000000
                                                     2        0.1200000       -1.37391547    0.00000000
                                                     2        0.1600000        3.65411806    0.00000000
                                                     2        0.2800000       -7.36479843    0.00000000
                                                     2        0.6000000       17.22091285    0.00000000
                                                     2        1.1000000      -23.50107827    0.00000000
                                                     2        3.0000000       16.29464063    0.00000000
                                      D - G
                                                     0        0.0000010       -0.28693103    0.00000000
                                                     2        0.1200000        0.12273044    0.00000000
                                                     2        0.3000000       -0.43416384    0.00000000
                                                     2        0.7000000        2.23358493    0.00000000
                                      F - G
                                                     0        0.0000010        0.07263570    0.00000000
                                                     2        0.1400000       -0.76152861    0.00000000
                                                     2        0.2200000        1.98045593    0.00000000
                                                     2        0.4000000       -2.42426427    0.00000000
                                                     2        0.7000000        0.52335237    0.00000000
    8         16           16
                                      G and up 
                                                     0        0.0000010       -0.00444167    0.00000000
                                                     2        0.1200000        0.11677988    0.00000000
                                                     2        0.1400000       -0.22050378    0.00000000
                                                     2        0.1800000        0.26452031    0.00000000
                                                     2        0.2800000       -0.04353316    0.00000000
                                                     2        0.5000000       -1.18567514    0.00000000
                                      S - G
                                                     0        0.0000010        0.03992419    0.00000000
                                                     2        0.1200000       -0.56926432    0.00000000
                                                     2        0.3000000        0.88393965    0.00000000
                                      P - G
                                                     0        0.0000010       -0.92181603    0.00000000
                                                     2        0.1200000        1.30681810    0.00000000
                                                     2        0.2000000       -1.50828653    0.00000000
                                                     2        0.2400000       -2.25148793    0.00000000
                                                     2        0.6000000       10.10218731    0.00000000
                                      D - G
                                                     0        0.0000010        0.72039481    0.00000000
                                                     2        0.1200000       -0.56105075    0.00000000
                                                     2        0.2000000        0.42910414    0.00000000
                                                     2        0.8000000        0.44203418    0.00000000
                                      F - G
                                                     2        0.1200000       -0.62623060    0.00000000
                                                     2        0.1800000        0.89777932    0.00000000
                                                     2        0.5000000       -1.32991832    0.00000000
    9          6            6
                                      G and up 
                                                     0        0.0000010       -0.00286759    0.00000000
                                                     2        0.1200000        0.03193960    0.00000000
                                                     2        0.1600000       -0.04027782    0.00000000
                                                     2        0.2600000        0.24782456    0.00000000
                                                     2        0.4000000       -0.62266671    0.00000000
                                                     2        0.7000000        0.35695227    0.00000000
                                      S - G
                                                     0        0.0000010       -0.06602313    0.00000000
                                                     2        0.1200000        1.47277455    0.00000000
                                                     2        0.1600000       -4.06924166    0.00000000
                                                     2        0.3000000        5.02952802    0.00000000
                                                     2        0.7000000       -5.65856978    0.00000000
                                                     2        1.7000000        8.57604414    0.00000000
                                      P - G
                                                     0        0.0000010        0.49434425    0.00000000
                                                     2        0.1200000       -1.37391547    0.00000000
                                                     2        0.1600000        3.65411806    0.00000000
                                                     2        0.2800000       -7.36479843    0.00000000
                                                     2        0.6000000       17.22091285    0.00000000
                                                     2        1.1000000      -23.50107827    0.00000000
                                                     2        3.0000000       16.29464063    0.00000000
                                      D - G
                                                     0        0.0000010       -0.28693103    0.00000000
                                                     2        0.1200000        0.12273044    0.00000000
                                                     2        0.3000000       -0.43416384    0.00000000
                                                     2        0.7000000        2.23358493    0.00000000
                                      F - G
                                                     0        0.0000010        0.07263570    0.00000000
                                                     2        0.1400000       -0.76152861    0.00000000
                                                     2        0.2200000        1.98045593    0.00000000
                                                     2        0.4000000       -2.42426427    0.00000000
                                                     2        0.7000000        0.52335237    0.00000000
   10          1            1
                                      F and up 
                                                     0        0.0000010        0.00072061    0.00000000
                                                     2        0.1200000        0.03832357    0.00000000
                                                     2        0.1400000       -0.08683256    0.00000000
                                                     2        0.1800000        0.09312970    0.00000000
                                                     2        0.2800000       -0.02532572    0.00000000
                                                     2        0.4000000       -0.09430787    0.00000000
                                                     2        0.7000000        0.42710831    0.00000000
                                                     2        1.2000000       -2.11746981    0.00000000
                                      S - F
                                                     0        0.0000010        0.14449603    0.00000000
                                                     2        0.1200000       -0.56378993    0.00000000
                                                     2        0.1400000        0.63941249    0.00000000
                                                     2        0.2600000       -0.58461015    0.00000000
                                                     2        0.5000000        1.00157293    0.00000000
                                                     2        1.8000000       -0.14135838    0.00000000
                                      P - F
                                                     0        0.0000010       -0.09353646    0.00000000
                                                     2        0.1200000        0.31768975    0.00000000
                                                     2        0.2000000       -0.71747951    0.00000000
                                                     2        0.4000000        0.65752308    0.00000000
                                                     2        1.7000000        2.94052587    0.00000000
                                      D - F
                                                     0        0.0000010       -0.04491202    0.00000000
                                                     2        0.1200000       -0.02862031    0.00000000
                                                     2        0.1800000       -0.21515263    0.00000000
                                                     2        0.3000000        0.80560647    0.00000000
                                                     2        0.4000000        0.47351754    0.00000000
                                                     2        0.7000000       -4.57051794    0.00000000
                                                     2        1.6000000       18.53737826    0.00000000
   11         15           15
                                      G and up 
                                                     0        0.0000010       -0.00145681    0.00000000
                                                     2        0.1200000        0.02697735    0.00000000
                                                     2        0.1400000        0.02594622    0.00000000
                                                     2        0.2600000       -0.05991007    0.00000000
                                                     2        0.6000000       -2.12394768    0.00000000
                                                     2        1.6000000       12.29328771    0.00000000
                                      S - G
                                                     0        0.0000010       -0.08137818    0.00000000
                                                     2        0.1200000        0.02366916    0.00000000
                                                     2        0.2600000       -0.53803258    0.00000000
                                                     2        1.1000000        1.71477614    0.00000000
                                      P - G
                                                     0        0.0000010        0.47741067    0.00000000
                                                     2        0.1600000       -1.08317867    0.00000000
                                                     2        0.3000000        2.71093215    0.00000000
                                                     2        0.8000000       -7.73495474    0.00000000
                                      D - G
                                                     0        0.0000010        0.42779013    0.00000000
                                                     2        0.1200000       -0.35854051    0.00000000
                                                     2        0.4000000        1.12806605    0.00000000
                                      F - G
                                                     0        0.0000010       -0.49842471    0.00000000
                                                     2        0.1400000        0.07039594    0.00000000
                                                     2        0.2200000        0.02972181    0.00000000
   12          9            9
                                      G and up 
                                                     0        0.0000010       -0.00152163    0.00000000
                                                     2        0.1200000       -0.09043016    0.00000000
                                                     2        0.1400000        0.25628512    0.00000000
                                                     2        0.2000000       -0.31987377    0.00000000
                                                     2        0.3000000        0.48912429    0.00000000
                                                     2        0.4000000        0.12183688    0.00000000
                                                     2        0.6000000       -0.79963093    0.00000000
                                                     2        1.3000000        1.98943307    0.00000000
                                      S - G
                                                     0        0.0000010       -0.05404402    0.00000000
                                                     2        0.1200000        1.31674577    0.00000000
                                                     2        0.2400000       -4.28550771    0.00000000
                                                     2        0.8000000        7.13027769    0.00000000
                                      P - G
                                                     0        0.0000010       -0.03280113    0.00000000
                                                     2        0.1200000       -0.11684768    0.00000000
                                                     2        0.2200000       -0.54710751    0.00000000
                                                     2        0.6000000        1.00412264    0.00000000
                                      D - G
                                                     0        0.0000010       -0.09872413    0.00000000
                                                     2        0.1600000        0.32020158    0.00000000
                                                     2        0.5000000       -3.54424892    0.00000000
                                      F - G
                                                     0        0.0000010        0.17152509    0.00000000
                                                     2        0.1200000       -0.51731546    0.00000000
                                                     2        0.4000000        2.52461867    0.00000000
   13          9            9
                                      G and up 
                                                     0        0.0000010       -0.00152163    0.00000000
                                                     2        0.1200000       -0.09043016    0.00000000
                                                     2        0.1400000        0.25628512    0.00000000
                                                     2        0.2000000       -0.31987377    0.00000000
                                                     2        0.3000000        0.48912429    0.00000000
                                                     2        0.4000000        0.12183688    0.00000000
                                                     2        0.6000000       -0.79963093    0.00000000
                                                     2        1.3000000        1.98943307    0.00000000
                                      S - G
                                                     0        0.0000010       -0.05404402    0.00000000
                                                     2        0.1200000        1.31674577    0.00000000
                                                     2        0.2400000       -4.28550771    0.00000000
                                                     2        0.8000000        7.13027769    0.00000000
                                      P - G
                                                     0        0.0000010       -0.03280113    0.00000000
                                                     2        0.1200000       -0.11684768    0.00000000
                                                     2        0.2200000       -0.54710751    0.00000000
                                                     2        0.6000000        1.00412264    0.00000000
                                      D - G
                                                     0        0.0000010       -0.09872413    0.00000000
                                                     2        0.1600000        0.32020158    0.00000000
                                                     2        0.5000000       -3.54424892    0.00000000
                                      F - G
                                                     0        0.0000010        0.17152509    0.00000000
                                                     2        0.1200000       -0.51731546    0.00000000
                                                     2        0.4000000        2.52461867    0.00000000
   14          1            1
                                      F and up 
                                                     0        0.0000010        0.00072061    0.00000000
                                                     2        0.1200000        0.03832357    0.00000000
                                                     2        0.1400000       -0.08683256    0.00000000
                                                     2        0.1800000        0.09312970    0.00000000
                                                     2        0.2800000       -0.02532572    0.00000000
                                                     2        0.4000000       -0.09430787    0.00000000
                                                     2        0.7000000        0.42710831    0.00000000
                                                     2        1.2000000       -2.11746981    0.00000000
                                      S - F
                                                     0        0.0000010        0.14449603    0.00000000
                                                     2        0.1200000       -0.56378993    0.00000000
                                                     2        0.1400000        0.63941249    0.00000000
                                                     2        0.2600000       -0.58461015    0.00000000
                                                     2        0.5000000        1.00157293    0.00000000
                                                     2        1.8000000       -0.14135838    0.00000000
                                      P - F
                                                     0        0.0000010       -0.09353646    0.00000000
                                                     2        0.1200000        0.31768975    0.00000000
                                                     2        0.2000000       -0.71747951    0.00000000
                                                     2        0.4000000        0.65752308    0.00000000
                                                     2        1.7000000        2.94052587    0.00000000
                                      D - F
                                                     0        0.0000010       -0.04491202    0.00000000
                                                     2        0.1200000       -0.02862031    0.00000000
                                                     2        0.1800000       -0.21515263    0.00000000
                                                     2        0.3000000        0.80560647    0.00000000
                                                     2        0.4000000        0.47351754    0.00000000
                                                     2        0.7000000       -4.57051794    0.00000000
                                                     2        1.6000000       18.53737826    0.00000000
 ======================================================================================================
   232 basis functions,   454 primitive gaussians,   246 cartesian basis functions
    37 alpha electrons       37 beta electrons
       nuclear repulsion energy       458.9679661651 Hartrees.
 NAtoms=   14 NActive=   14 NUniq=   14 SFac= 1.00D+00 NAtFMM=   60 NAOKFM=F Big=F
   1 Symmetry operations used in ECPInt.
 ECPInt:  NShTT=    5253 NPrTT=   31865 LenC2=    5173 LenP2D=   21904.
 LDataN:  DoStor=T MaxTD1= 6 Len=  172
 Initial guess from the checkpoint file:  "HB300SPXx10_1481_5.11_0.80_thioacetone_phosphineF2_dimer_mol1.chk"
 B after Tr=    -2.466733    0.023448    0.098737
         Rot=    0.483426   -0.579292    0.106055    0.647667 Ang=-122.18 deg.
 >>>>>>>>>> Convergence criterion not met.
 SCF Done:  E(RHF) =  -1056.57615782     A.U. after    2 cycles
            NFock=  1  Conv=0.22D+00     -V/T= 2.0923

 **********************************************************************

            Population analysis using the SCF Density.

 **********************************************************************

 Orbital symmetries:
       Occupied  (A) (A) (A) (A) (A) (A) (A) (A) (A) (A) (A) (A)
                 (A) (A) (A) (A) (A) (A) (A) (A) (A) (A) (A) (A)
                 (A) (A) (A) (A) (A) (A) (A) (A) (A) (A) (A) (A)
                 (A)
       Virtual   (A) (A) (A) (A) (A) (A) (A) (A) (A) (A) (A) (A)
                 (A) (A) (A) (A) (A) (A) (A) (A) (A) (A) (A) (A)
                 (A) (A) (A) (A) (A) (A) (A) (A) (A) (A) (A) (A)
                 (A) (A) (A) (A) (A) (A) (A) (A) (A) (A) (A) (A)
                 (A) (A) (A) (A) (A) (A) (A) (A) (A) (A) (A) (A)
                 (A) (A) (A) (A) (A) (A) (A) (A) (A) (A) (A) (A)
                 (A) (A) (A) (A) (A) (A) (A) (A) (A) (A) (A) (A)
                 (A) (A) (A) (A) (A) (A) (A) (A) (A) (A) (A) (A)
                 (A) (A) (A) (A) (A) (A) (A) (A) (A) (A) (A) (A)
                 (A) (A) (A) (A) (A) (A) (A) (A) (A) (A) (A) (A)
                 (A) (A) (A) (A) (A) (A) (A) (A) (A) (A) (A) (A)
                 (A) (A) (A) (A) (A) (A) (A) (A) (A) (A) (A) (A)
                 (A) (A) (A) (A) (A) (A) (A) (A) (A) (A) (A) (A)
                 (A) (A) (A) (A) (A) (A) (A) (A) (A) (A) (A) (A)
                 (A) (A) (A) (A) (A) (A) (A) (A) (A) (A) (A) (A)
                 (A) (A) (A) (A) (A) (A) (A) (A) (A) (A) (A) (A)
                 (A) (A) (A)
 The electronic state is 1-A.
 Alpha  occ. eigenvalues -- -105.27616 -75.67364 -29.27740 -29.26269 -13.17036
 Alpha  occ. eigenvalues --  -13.07034 -12.99450 -11.49065 -11.40966 -11.39308
 Alpha  occ. eigenvalues --   -8.01824  -2.86699  -1.61256  -1.58047  -1.51128
 Alpha  occ. eigenvalues --   -1.29677  -1.06304  -1.04611  -0.89100  -0.76402
 Alpha  occ. eigenvalues --   -0.63981  -0.62430  -0.61419  -0.56248  -0.55569
 Alpha  occ. eigenvalues --   -0.51047  -0.46304  -0.42790  -0.38338  -0.34955
 Alpha  occ. eigenvalues --   -0.33663  -0.32813  -0.28033  -0.24922  -0.21797
 Alpha  occ. eigenvalues --   -0.18229   0.00035
 Alpha virt. eigenvalues --    0.02994   0.05294   0.05557   0.06183   0.06827
 Alpha virt. eigenvalues --    0.06913   0.08330   0.08825   0.09843   0.10742
 Alpha virt. eigenvalues --    0.11730   0.12543   0.13684   0.13934   0.14690
 Alpha virt. eigenvalues --    0.15727   0.16772   0.17688   0.17928   0.18494
 Alpha virt. eigenvalues --    0.18635   0.19785   0.20014   0.20201   0.22824
 Alpha virt. eigenvalues --    0.23479   0.24236   0.25683   0.26951   0.27558
 Alpha virt. eigenvalues --    0.27865   0.28803   0.30844   0.31297   0.32407
 Alpha virt. eigenvalues --    0.32871   0.33828   0.35102   0.35721   0.36057
 Alpha virt. eigenvalues --    0.37596   0.38230   0.38887   0.39410   0.39920
 Alpha virt. eigenvalues --    0.40493   0.42003   0.43027   0.43499   0.43983
 Alpha virt. eigenvalues --    0.44995   0.46079   0.46361   0.47295   0.48742
 Alpha virt. eigenvalues --    0.50319   0.51385   0.52660   0.52823   0.54392
 Alpha virt. eigenvalues --    0.54803   0.55893   0.56533   0.57723   0.58710
 Alpha virt. eigenvalues --    0.59995   0.60690   0.61706   0.61807   0.62963
 Alpha virt. eigenvalues --    0.63619   0.64987   0.65931   0.66516   0.67831
 Alpha virt. eigenvalues --    0.68829   0.70514   0.70790   0.71509   0.73057
 Alpha virt. eigenvalues --    0.75416   0.75737   0.77459   0.78399   0.78812
 Alpha virt. eigenvalues --    0.79350   0.80812   0.82141   0.84269   0.86190
 Alpha virt. eigenvalues --    0.86313   0.87354   0.88623   0.89856   0.90725
 Alpha virt. eigenvalues --    0.91573   0.93003   0.95350   0.97202   1.00004
 Alpha virt. eigenvalues --    1.00663   1.04272   1.05202   1.13383   1.14570
 Alpha virt. eigenvalues --    1.17306   1.19177   1.22420   1.23786   1.25376
 Alpha virt. eigenvalues --    1.27170   1.28604   1.29410   1.30161   1.33083
 Alpha virt. eigenvalues --    1.35227   1.36301   1.39945   1.41232   1.42559
 Alpha virt. eigenvalues --    1.45071   1.47766   1.55647   1.56795   1.60547
 Alpha virt. eigenvalues --    1.62475   1.66001   1.69127   1.71637   1.72058
 Alpha virt. eigenvalues --    1.76102   1.80993   1.84325   1.88172   1.90566
 Alpha virt. eigenvalues --    1.92815   1.94059   1.97262   1.99929   2.04764
 Alpha virt. eigenvalues --    2.05234   2.06206   2.07678   2.10488   2.10720
 Alpha virt. eigenvalues --    2.11599   2.14881   2.17397   2.25100   2.28473
 Alpha virt. eigenvalues --    2.29809   2.31023   2.33844   2.42029   2.42960
 Alpha virt. eigenvalues --    2.44640   2.47453   2.50477   2.52791   2.55549
 Alpha virt. eigenvalues --    2.58150   2.62439   2.65314   2.68121   2.71067
 Alpha virt. eigenvalues --    2.72907   2.81372   2.83535   2.84299   2.93248
 Alpha virt. eigenvalues --    2.97997   3.07098   3.10888   3.13836   3.30293
 Alpha virt. eigenvalues --    3.34198   3.53465   3.56094   3.58462   3.61900
 Alpha virt. eigenvalues --    3.62691   3.65851   3.67327   3.68738   3.70492
 Alpha virt. eigenvalues --    3.71821   3.75098   3.79076   3.84738   3.84898
 Alpha virt. eigenvalues --    3.96727   4.07450   4.11639   4.82395   4.95525
          Condensed to atoms (all electrons):
 Mulliken charges:
               1
     1  H    1.342335
     2  H    0.801029
     3  H    1.077786
     4  H    1.329762
     5  H    1.167154
     6  C   -5.122691
     7  C    0.271987
     8  S    0.872461
     9  C   -3.667302
    10  H    1.091611
    11  P    2.144126
    12  F   -0.121217
    13  F   -0.176734
    14  H   -1.010306
 Sum of Mulliken charges =  -0.00000
 Mulliken charges with hydrogens summed into heavy atoms:
               1
     6  C   -1.901541
     7  C    0.271987
     8  S    0.872461
     9  C   -0.078776
    11  P    1.133819
    12  F   -0.121217
    13  F   -0.176734
 Electronic spatial extent (au):  <R**2>=           1650.3580
 Charge=              0.0000 electrons
 Dipole moment (field-independent basis, Debye):
    X=             -9.5458    Y=              1.3461    Z=             -2.7285  Tot=             10.0189

 Test job not archived.
 1\1\GINC-SE054\SP\RHF\Aug-CC-pVDZ\C3H7F2P1S1\OHZDE\09-Apr-2025\0\\#t h
 f aug-cc-pvdz iop(5/13=1,5/36=2,99/5=2) pseudo=read geom=check guess=(
 read,tcheck) scf=(maxcycle=1)\\title\\0,1\H,0,-0.82524406,-0.11851319,
 -2.18150719\H,0,-1.6981931,1.21808686,-2.95919937\H,0,-0.71897066,0.14
 764096,-3.93512177\H,0,1.41759528,3.22175764,-3.68330427\H,0,0.7352472
 6,2.04678605,-4.82844268\C,0,-0.77357806,0.63435768,-2.9583614\C,0,0.3
 925438,1.55581911,-2.78347778\S,0,1.39271927,1.4865874,-1.50157001\C,0
 ,0.57891903,2.56210758,-3.87735604\H,0,-0.33203334,3.15446018,-3.99493
 457\P,0,-0.03469502,0.08148939,0.52906606\F,0,-0.32998352,-0.79557005,
 1.84536371\F,0,-0.37295806,-1.0564428,-0.54983725\H,0,1.37453673,-0.13
 328264,0.54323679\\Version=ES64L-G16RevC.01\State=1-A\HF=-1056.5761578
 \RMSD=2.248e-01\Dipole=-0.2216396,-2.9091292,2.6504877\Quadrupole=-2.2
 352648,-2.0801095,4.3153743,5.4111029,-1.3209321,-2.8816799\PG=C01 [X(
 C3H7F2P1S1)]\\@


 ABALONE: AN EXPRESSION OF DISBELIEF.
 Job cpu time:       0 days  0 hours  1 minutes  3.8 seconds.
 Elapsed time:       0 days  0 hours  0 minutes  5.0 seconds.
 File lengths (MBytes):  RWF=     10 Int=      0 D2E=      0 Chk=      8 Scr=      1
 Normal termination of Gaussian 16 at Wed Apr  9 19:46:23 2025.
