 Entering Gaussian System, Link 0=g16
 Input=HB300SPXx10_123_1.13_0.90_sulfane_pyridine_dimer_mol1.gjf
 Output=HB300SPXx10_123_1.13_0.90_sulfane_pyridine_dimer_mol1.log
 Initial command:
 /arc/software/Gaussian/g16.c01/l1.exe "/tmp/slurm/4871276/Gau-1630313.inp" -scrdir="/tmp/slurm/4871276/"
 Entering Link 1 = /arc/software/Gaussian/g16.c01/l1.exe PID=   1630314.
  
 Copyright (c) 1988-2019, Gaussian, Inc.  All Rights Reserved.
  
 This is part of the Gaussian(R) 16 program.  It is based on
 the Gaussian(R) 09 system (copyright 2009, Gaussian, Inc.),
 the Gaussian(R) 03 system (copyright 2003, Gaussian, Inc.),
 the Gaussian(R) 98 system (copyright 1998, Gaussian, Inc.),
 the Gaussian(R) 94 system (copyright 1995, Gaussian, Inc.),
 the Gaussian 92(TM) system (copyright 1992, Gaussian, Inc.),
 the Gaussian 90(TM) system (copyright 1990, Gaussian, Inc.),
 the Gaussian 88(TM) system (copyright 1988, Gaussian, Inc.),
 the Gaussian 86(TM) system (copyright 1986, Carnegie Mellon
 University), and the Gaussian 82(TM) system (copyright 1983,
 Carnegie Mellon University). Gaussian is a federally registered
 trademark of Gaussian, Inc.
  
 This software contains proprietary and confidential information,
 including trade secrets, belonging to Gaussian, Inc.
  
 This software is provided under written license and may be
 used, copied, transmitted, or stored only in accord with that
 written license.
  
 The following legend is applicable only to US Government
 contracts under FAR:
  
                    RESTRICTED RIGHTS LEGEND
  
 Use, reproduction and disclosure by the US Government is
 subject to restrictions as set forth in subparagraphs (a)
 and (c) of the Commercial Computer Software - Restricted
 Rights clause in FAR 52.227-19.
  
 Gaussian, Inc.
 340 Quinnipiac St., Bldg. 40, Wallingford CT 06492
  
  
 ---------------------------------------------------------------
 Warning -- This program may not be used in any manner that
 competes with the business of Gaussian, Inc. or will provide
 assistance to any competitor of Gaussian, Inc.  The licensee
 of this program is prohibited from giving any competitor of
 Gaussian, Inc. access to this program.  By using this program,
 the user acknowledges that Gaussian, Inc. is engaged in the
 business of creating and licensing software in the field of
 computational chemistry and represents and warrants to the
 licensee that it is not a competitor of Gaussian, Inc. and that
 it will not use this program in any manner prohibited above.
 ---------------------------------------------------------------
  

 Cite this work as:
 Gaussian 16, Revision C.01,
 M. J. Frisch, G. W. Trucks, H. B. Schlegel, G. E. Scuseria, 
 M. A. Robb, J. R. Cheeseman, G. Scalmani, V. Barone, 
 G. A. Petersson, H. Nakatsuji, X. Li, M. Caricato, A. V. Marenich, 
 J. Bloino, B. G. Janesko, R. Gomperts, B. Mennucci, H. P. Hratchian, 
 J. V. Ortiz, A. F. Izmaylov, J. L. Sonnenberg, D. Williams-Young, 
 F. Ding, F. Lipparini, F. Egidi, J. Goings, B. Peng, A. Petrone, 
 T. Henderson, D. Ranasinghe, V. G. Zakrzewski, J. Gao, N. Rega, 
 G. Zheng, W. Liang, M. Hada, M. Ehara, K. Toyota, R. Fukuda, 
 J. Hasegawa, M. Ishida, T. Nakajima, Y. Honda, O. Kitao, H. Nakai, 
 T. Vreven, K. Throssell, J. A. Montgomery, Jr., J. E. Peralta, 
 F. Ogliaro, M. J. Bearpark, J. J. Heyd, E. N. Brothers, K. N. Kudin, 
 V. N. Staroverov, T. A. Keith, R. Kobayashi, J. Normand, 
 K. Raghavachari, A. P. Rendell, J. C. Burant, S. S. Iyengar, 
 J. Tomasi, M. Cossi, J. M. Millam, M. Klene, C. Adamo, R. Cammi, 
 J. W. Ochterski, R. L. Martin, K. Morokuma, O. Farkas, 
 J. B. Foresman, and D. J. Fox, Gaussian, Inc., Wallingford CT, 2019.
 
 ******************************************
 Gaussian 16:  ES64L-G16RevC.01  3-Jul-2019
                 9-Apr-2025 
 ******************************************
 %nprocs=16
 Will use up to   16 processors via shared memory.
 %mem=30GB
 %chk=HB300SPXx10_123_1.13_0.90_sulfane_pyridine_dimer_mol1.chk
 ----------------------------------------------------------------------
 #t hf aug-cc-pvdz symm=none int=(grid=ultrafine) guess=(read,tcheck) s
 table=(opt,rrhf)
 ----------------------------------------------------------------------
 -----
 title
 -----
 Symbolic Z-matrix:
 Charge =  0 Multiplicity = 1
 H                     1.25021   1.59605   0.13691 
 H                     3.15091   1.84194   0.53017 
 S                     2.02338   2.53859   0.73261 
 H                    -1.73747  -1.70023  -2.37034 
 H                    -0.19909   0.24942  -2.30815 
 C                    -1.61019  -2.01816  -0.24148 
 C                    -1.31359  -1.37118  -1.43304 
 C                    -0.45368  -0.28139  -1.39943 
 N                     0.10075   0.17256  -0.27603 
 C                    -0.18848  -0.45318   0.86439 
 C                    -1.0366   -1.55067   0.93243 
 H                     0.27957  -0.05542   1.75651 
 H                    -1.23933  -2.02263   1.88246 
 H                    -2.27562  -2.86971  -0.2283 
 
                    Distance matrix (angstroms):
                    1          2          3          4          5
     1  H    0.000000
     2  H    1.956473   0.000000
     3  S    1.356846   1.340766   0.000000
     4  H    5.106662   6.697479   6.460640   0.000000
     5  H    3.145190   4.670622   4.407480   2.484275   0.000000
     6  C    4.624663   6.177691   5.908941   2.156227   3.377015
     7  C    4.224008   5.840387   5.577785   1.080033   2.152732
     8  C    2.964519   4.607059   4.316678   2.145666   1.082752
     9  N    1.875661   3.569354   3.211225   3.357455   2.055558
    10  C    2.607369   4.065812   3.722952   3.797102   3.249429
    11  C    3.970416   5.404344   5.111310   3.379626   3.800414
    12  H    2.508501   3.653560   3.289093   4.879012   4.104089
    13  H    4.726477   6.003154   5.724701   4.293988   4.879091
    14  H    5.701568   7.226496   6.975278   2.499117   4.285642
                    6          7          8          9         10
     6  C    0.000000
     7  C    1.387941   0.000000
     8  C    2.386359   1.388598   0.000000
     9  N    2.779879   2.392101   1.332473   0.000000
    10  C    2.386075   2.717867   2.285767   1.332579   0.000000
    11  C    1.387663   2.388393   2.718172   2.392380   1.388681
    12  H    3.378682   3.800349   3.247876   2.053094   1.083127
    13  H    2.156074   3.379712   3.797361   3.357642   2.145678
    14  H    1.080798   2.150002   3.374967   3.860677   3.374876
                   11         12         13         14
    11  C    0.000000
    12  H    2.155738   0.000000
    13  H    1.079996   2.488546   0.000000
    14  H    2.149965   4.288213   2.499352   0.000000
 Symmetry turned off by external request.
 Rotational constants (GHZ):           5.9231195           0.8862118           0.7749992
   228 basis functions,   416 primitive gaussians,   242 cartesian basis functions
    30 alpha electrons       30 beta electrons
       nuclear repulsion energy       311.5635722953 Hartrees.
 NAtoms=   14 NActive=   14 NUniq=   14 SFac= 1.00D+00 NAtFMM=   60 NAOKFM=F Big=F
 ExpMin= 2.97D-02 ExpMax= 1.11D+05 ExpMxC= 1.07D+03 IAcc=3 IRadAn=         5 AccDes= 0.00D+00
 Harris functional with IExCor=  205 and IRadAn=       5 diagonalized for initial guess.
 HarFok:  IExCor=  205 AccDes= 0.00D+00 IRadAn=         5 IDoV= 1 UseB2=F ITyADJ=14
 ICtDFT=  3500011 ScaDFX=  1.000000  1.000000  1.000000  1.000000
 FoFCou: FMM=F IPFlag=           0 FMFlag=      100000 FMFlg1=           0
         NFxFlg=           0 DoJE=T BraDBF=F KetDBF=T FulRan=T
         wScrn=  0.000000 ICntrl=       500 IOpCl=  0 I1Cent=   200000004 NGrid=           0
         NMat0=    1 NMatS0=      1 NMatT0=    0 NMatD0=    1 NMtDS0=    0 NMtDT0=    0
 Symmetry not used in FoFCou.
 SCF Done:  E(RHF) =  -645.421457209     A.U. after   14 cycles
            NFock= 14  Conv=0.60D-08     -V/T= 2.0003

 **********************************************************************

            Population analysis using the SCF Density.

 **********************************************************************

 Alpha  occ. eigenvalues --  -91.92998 -15.58889 -11.29504 -11.29335 -11.27730
 Alpha  occ. eigenvalues --  -11.25895 -11.25855  -8.93297  -6.61517  -6.61402
 Alpha  occ. eigenvalues --   -6.61194  -1.28136  -1.10698  -1.05182  -0.94857
 Alpha  occ. eigenvalues --   -0.87450  -0.87378  -0.73890  -0.67795  -0.66647
 Alpha  occ. eigenvalues --   -0.61323  -0.60417  -0.55918  -0.55026  -0.53402
 Alpha  occ. eigenvalues --   -0.47926  -0.41390  -0.39934  -0.36060  -0.35250
 Alpha virt. eigenvalues --    0.02765   0.03766   0.04250   0.05694   0.05970
 Alpha virt. eigenvalues --    0.07165   0.07939   0.08888   0.09522   0.10683
 Alpha virt. eigenvalues --    0.11156   0.12177   0.13119   0.13181   0.13827
 Alpha virt. eigenvalues --    0.14097   0.14155   0.15165   0.15397   0.16169
 Alpha virt. eigenvalues --    0.16438   0.17435   0.17925   0.18075   0.18764
 Alpha virt. eigenvalues --    0.18877   0.20401   0.20692   0.22832   0.26001
 Alpha virt. eigenvalues --    0.26331   0.28497   0.29070   0.29555   0.30140
 Alpha virt. eigenvalues --    0.31730   0.31881   0.32597   0.33144   0.33350
 Alpha virt. eigenvalues --    0.34538   0.35316   0.35631   0.36014   0.36300
 Alpha virt. eigenvalues --    0.37549   0.38620   0.40239   0.41368   0.41823
 Alpha virt. eigenvalues --    0.42049   0.42835   0.44004   0.44579   0.49037
 Alpha virt. eigenvalues --    0.49694   0.50360   0.51608   0.52746   0.54314
 Alpha virt. eigenvalues --    0.55350   0.55433   0.55758   0.56671   0.57304
 Alpha virt. eigenvalues --    0.58084   0.59270   0.60406   0.60781   0.62347
 Alpha virt. eigenvalues --    0.63521   0.65230   0.65452   0.66639   0.67124
 Alpha virt. eigenvalues --    0.67707   0.68555   0.68869   0.69378   0.69825
 Alpha virt. eigenvalues --    0.71320   0.72899   0.73272   0.73381   0.76522
 Alpha virt. eigenvalues --    0.77522   0.77606   0.80074   0.82489   0.84596
 Alpha virt. eigenvalues --    0.85133   0.85861   0.87142   0.88568   0.89140
 Alpha virt. eigenvalues --    0.89706   0.89826   0.92354   0.92649   0.95164
 Alpha virt. eigenvalues --    0.95527   0.96490   0.97712   0.98162   1.01883
 Alpha virt. eigenvalues --    1.02692   1.05136   1.08724   1.11209   1.12886
 Alpha virt. eigenvalues --    1.13358   1.15411   1.16468   1.18403   1.21254
 Alpha virt. eigenvalues --    1.21277   1.23743   1.25238   1.27568   1.28072
 Alpha virt. eigenvalues --    1.29054   1.30874   1.36122   1.41486   1.43285
 Alpha virt. eigenvalues --    1.44048   1.47411   1.52666   1.53187   1.54643
 Alpha virt. eigenvalues --    1.55702   1.57314   1.59589   1.60152   1.62044
 Alpha virt. eigenvalues --    1.66610   1.67064   1.67479   1.67546   1.71632
 Alpha virt. eigenvalues --    1.74302   1.76291   1.76974   1.80814   1.83206
 Alpha virt. eigenvalues --    1.83976   1.85080   1.90398   1.91115   1.91998
 Alpha virt. eigenvalues --    1.93320   1.93883   1.94015   1.96676   2.01855
 Alpha virt. eigenvalues --    2.04630   2.06692   2.07960   2.09474   2.10414
 Alpha virt. eigenvalues --    2.11740   2.13115   2.18605   2.19401   2.19853
 Alpha virt. eigenvalues --    2.23194   2.25489   2.30215   2.30749   2.31580
 Alpha virt. eigenvalues --    2.34967   2.39894   2.42951   2.45267   2.45968
 Alpha virt. eigenvalues --    2.54166   2.57228   2.61212   2.65980   2.74348
 Alpha virt. eigenvalues --    2.75444   2.79422   2.83182   2.86416   2.90073
 Alpha virt. eigenvalues --    2.96078   2.97063   2.98506   3.11914   3.12444
 Alpha virt. eigenvalues --    3.14637   3.26576   3.28065   3.40727   3.42787
 Alpha virt. eigenvalues --    3.67086   3.70654   4.36998
          Condensed to atoms (all electrons):
 Mulliken charges:
               1
     1  H    0.166816
     2  H    0.048313
     3  S   -0.146259
     4  H   -0.426679
     5  H   -0.364297
     6  C    0.038291
     7  C    0.847752
     8  C    0.434467
     9  N   -0.667060
    10  C    0.496806
    11  C    0.836220
    12  H   -0.448235
    13  H   -0.425772
    14  H   -0.390364
 Sum of Mulliken charges =  -0.00000
 Mulliken charges with hydrogens summed into heavy atoms:
               1
     3  S    0.068870
     6  C   -0.352073
     7  C    0.421073
     8  C    0.070171
     9  N   -0.667060
    10  C    0.048571
    11  C    0.410448
 Electronic spatial extent (au):  <R**2>=           1392.0538
 Charge=             -0.0000 electrons
 Dipole moment (field-independent basis, Debye):
    X=             -2.2145    Y=             -3.9328    Z=             -0.8885  Tot=              4.6000
 NROrb=    228 NOA=    30 NOB=    30 NVA=   198 NVB=   198

 **** Warning!!: The largest alpha MO coefficient is  0.88250142D+02

    12 initial guesses have been made.
 Iteration     1 Dimension    12 NMult     0 NNew     12
 New state      1 was old state      2
 Iteration     2 Dimension    24 NMult    12 NNew     12
 Iteration     3 Dimension    27 NMult    24 NNew      3
 Iteration     4 Dimension    30 NMult    27 NNew      3
 Iteration     5 Dimension    33 NMult    30 NNew      3
 Iteration     6 Dimension    36 NMult    33 NNew      3
 ***********************************************************************
 Stability analysis using <AA,BB:AA,BB> singles matrix:
 ***********************************************************************
 Ground to excited state transition densities written to RWF  633

 Eigenvectors of the stability matrix:
 
 Excited state symmetry could not be determined.
 Eigenvector   1:      Singlet-?Sym  Eigenvalue= 0.1767675  <S**2>=0.000
      28 -> 39        -0.38370
      28 -> 56        -0.15114
      29 -> 36        -0.24857
      29 -> 37         0.41572
      29 -> 38         0.18521
      29 -> 53         0.13459
 The wavefunction is stable under the perturbations considered.
 The wavefunction is already stable.

 **********************************************************************

            Population analysis using the SCF Density.

 **********************************************************************

 Alpha  occ. eigenvalues --  -91.92998 -15.58889 -11.29504 -11.29335 -11.27730
 Alpha  occ. eigenvalues --  -11.25895 -11.25855  -8.93297  -6.61517  -6.61402
 Alpha  occ. eigenvalues --   -6.61194  -1.28136  -1.10698  -1.05182  -0.94857
 Alpha  occ. eigenvalues --   -0.87450  -0.87378  -0.73890  -0.67795  -0.66647
 Alpha  occ. eigenvalues --   -0.61323  -0.60417  -0.55918  -0.55026  -0.53402
 Alpha  occ. eigenvalues --   -0.47926  -0.41390  -0.39934  -0.36060  -0.35250
 Alpha virt. eigenvalues --    0.02765   0.03766   0.04250   0.05694   0.05970
 Alpha virt. eigenvalues --    0.07165   0.07939   0.08888   0.09522   0.10683
 Alpha virt. eigenvalues --    0.11156   0.12177   0.13119   0.13181   0.13827
 Alpha virt. eigenvalues --    0.14097   0.14155   0.15165   0.15397   0.16169
 Alpha virt. eigenvalues --    0.16438   0.17435   0.17925   0.18075   0.18764
 Alpha virt. eigenvalues --    0.18877   0.20401   0.20692   0.22832   0.26001
 Alpha virt. eigenvalues --    0.26331   0.28497   0.29070   0.29555   0.30140
 Alpha virt. eigenvalues --    0.31730   0.31881   0.32597   0.33144   0.33350
 Alpha virt. eigenvalues --    0.34538   0.35316   0.35631   0.36014   0.36300
 Alpha virt. eigenvalues --    0.37549   0.38620   0.40239   0.41368   0.41823
 Alpha virt. eigenvalues --    0.42049   0.42835   0.44004   0.44579   0.49037
 Alpha virt. eigenvalues --    0.49694   0.50360   0.51608   0.52746   0.54314
 Alpha virt. eigenvalues --    0.55350   0.55433   0.55758   0.56671   0.57304
 Alpha virt. eigenvalues --    0.58084   0.59270   0.60406   0.60781   0.62347
 Alpha virt. eigenvalues --    0.63521   0.65230   0.65452   0.66639   0.67124
 Alpha virt. eigenvalues --    0.67707   0.68555   0.68869   0.69378   0.69825
 Alpha virt. eigenvalues --    0.71320   0.72899   0.73272   0.73381   0.76522
 Alpha virt. eigenvalues --    0.77522   0.77606   0.80074   0.82489   0.84596
 Alpha virt. eigenvalues --    0.85133   0.85861   0.87142   0.88568   0.89140
 Alpha virt. eigenvalues --    0.89706   0.89826   0.92354   0.92649   0.95164
 Alpha virt. eigenvalues --    0.95527   0.96490   0.97712   0.98162   1.01883
 Alpha virt. eigenvalues --    1.02692   1.05136   1.08724   1.11209   1.12886
 Alpha virt. eigenvalues --    1.13358   1.15411   1.16468   1.18403   1.21254
 Alpha virt. eigenvalues --    1.21277   1.23743   1.25238   1.27568   1.28072
 Alpha virt. eigenvalues --    1.29054   1.30874   1.36122   1.41486   1.43285
 Alpha virt. eigenvalues --    1.44048   1.47411   1.52666   1.53187   1.54643
 Alpha virt. eigenvalues --    1.55702   1.57314   1.59589   1.60152   1.62044
 Alpha virt. eigenvalues --    1.66610   1.67064   1.67479   1.67546   1.71632
 Alpha virt. eigenvalues --    1.74302   1.76291   1.76974   1.80814   1.83206
 Alpha virt. eigenvalues --    1.83976   1.85080   1.90398   1.91115   1.91998
 Alpha virt. eigenvalues --    1.93320   1.93883   1.94015   1.96676   2.01855
 Alpha virt. eigenvalues --    2.04630   2.06692   2.07960   2.09474   2.10414
 Alpha virt. eigenvalues --    2.11740   2.13115   2.18605   2.19401   2.19853
 Alpha virt. eigenvalues --    2.23194   2.25489   2.30215   2.30749   2.31580
 Alpha virt. eigenvalues --    2.34967   2.39894   2.42951   2.45267   2.45968
 Alpha virt. eigenvalues --    2.54166   2.57228   2.61212   2.65980   2.74348
 Alpha virt. eigenvalues --    2.75444   2.79422   2.83182   2.86416   2.90073
 Alpha virt. eigenvalues --    2.96078   2.97063   2.98506   3.11914   3.12444
 Alpha virt. eigenvalues --    3.14637   3.26576   3.28065   3.40727   3.42787
 Alpha virt. eigenvalues --    3.67086   3.70654   4.36998
          Condensed to atoms (all electrons):
 Mulliken charges:
               1
     1  H    0.166816
     2  H    0.048313
     3  S   -0.146259
     4  H   -0.426679
     5  H   -0.364297
     6  C    0.038291
     7  C    0.847752
     8  C    0.434467
     9  N   -0.667060
    10  C    0.496806
    11  C    0.836220
    12  H   -0.448235
    13  H   -0.425772
    14  H   -0.390364
 Sum of Mulliken charges =  -0.00000
 Mulliken charges with hydrogens summed into heavy atoms:
               1
     3  S    0.068870
     6  C   -0.352073
     7  C    0.421073
     8  C    0.070171
     9  N   -0.667060
    10  C    0.048571
    11  C    0.410448
 Electronic spatial extent (au):  <R**2>=           1392.0538
 Charge=             -0.0000 electrons
 Dipole moment (field-independent basis, Debye):
    X=             -2.2145    Y=             -3.9328    Z=             -0.8885  Tot=              4.6000
 Unable to Open any file for archive entry.
 1\1\GINC-SE016\Stability\RHF\Aug-CC-pVDZ\C5H7N1S1\OHZDE\09-Apr-2025\0\
 \#t hf aug-cc-pvdz symm=none int=(grid=ultrafine) guess=(read,tcheck) 
 stable=(opt,rrhf)\\title\\0,1\H,0,1.25021154,1.5960457,0.13691261\H,0,
 3.15091491,1.84193998,0.53016902\S,0,2.02337536,2.53859467,0.73260516\
 H,0,-1.737469,-1.70023497,-2.3703353\H,0,-0.19908664,0.24941562,-2.308
 15224\C,0,-1.61018795,-2.01815513,-0.24147633\C,0,-1.31358792,-1.37117
 852,-1.43304274\C,0,-0.45367807,-0.28139462,-1.39943018\N,0,0.10075378
 ,0.17255512,-0.27603333\C,0,-0.18848099,-0.45317609,0.86439265\C,0,-1.
 03660249,-1.55067151,0.9324344\H,0,0.27957129,-0.05541671,1.75651338\H
 ,0,-1.23932876,-2.02263404,1.88245792\H,0,-2.27562216,-2.86971159,-0.2
 2830362\\Version=ES64L-G16RevC.01\HF=-645.4214572\RMSD=5.970e-09\Dipol
 e=-0.8712378,-1.5472665,-0.3495615\Quadrupole=0.8562378,-3.9183281,3.0
 620903,0.09602,0.1754399,-1.5513437\PG=Unknown\\@
 The archive entry for this job was punched.


 IF THERE IS ONE WAY BETTER THAN ANOTHER IT IS THE WAY OF NATURE.

                          -- ARISTOTLE
 Job cpu time:       0 days  0 hours  7 minutes  8.3 seconds.
 Elapsed time:       0 days  0 hours  0 minutes 30.8 seconds.
 File lengths (MBytes):  RWF=    260 Int=      0 D2E=      0 Chk=      8 Scr=      1
 Normal termination of Gaussian 16 at Wed Apr  9 04:10:49 2025.
 Initial command:
 /arc/software/Gaussian/g16.c01/l1.exe "/tmp/slurm/4871276/Gau-1630313.inp" -scrdir="/tmp/slurm/4871276/"
 Entering Link 1 = /arc/software/Gaussian/g16.c01/l1.exe PID=   1630534.
  
 Copyright (c) 1988-2019, Gaussian, Inc.  All Rights Reserved.
  
 This is part of the Gaussian(R) 16 program.  It is based on
 the Gaussian(R) 09 system (copyright 2009, Gaussian, Inc.),
 the Gaussian(R) 03 system (copyright 2003, Gaussian, Inc.),
 the Gaussian(R) 98 system (copyright 1998, Gaussian, Inc.),
 the Gaussian(R) 94 system (copyright 1995, Gaussian, Inc.),
 the Gaussian 92(TM) system (copyright 1992, Gaussian, Inc.),
 the Gaussian 90(TM) system (copyright 1990, Gaussian, Inc.),
 the Gaussian 88(TM) system (copyright 1988, Gaussian, Inc.),
 the Gaussian 86(TM) system (copyright 1986, Carnegie Mellon
 University), and the Gaussian 82(TM) system (copyright 1983,
 Carnegie Mellon University). Gaussian is a federally registered
 trademark of Gaussian, Inc.
  
 This software contains proprietary and confidential information,
 including trade secrets, belonging to Gaussian, Inc.
  
 This software is provided under written license and may be
 used, copied, transmitted, or stored only in accord with that
 written license.
  
 The following legend is applicable only to US Government
 contracts under FAR:
  
                    RESTRICTED RIGHTS LEGEND
  
 Use, reproduction and disclosure by the US Government is
 subject to restrictions as set forth in subparagraphs (a)
 and (c) of the Commercial Computer Software - Restricted
 Rights clause in FAR 52.227-19.
  
 Gaussian, Inc.
 340 Quinnipiac St., Bldg. 40, Wallingford CT 06492
  
  
 ---------------------------------------------------------------
 Warning -- This program may not be used in any manner that
 competes with the business of Gaussian, Inc. or will provide
 assistance to any competitor of Gaussian, Inc.  The licensee
 of this program is prohibited from giving any competitor of
 Gaussian, Inc. access to this program.  By using this program,
 the user acknowledges that Gaussian, Inc. is engaged in the
 business of creating and licensing software in the field of
 computational chemistry and represents and warrants to the
 licensee that it is not a competitor of Gaussian, Inc. and that
 it will not use this program in any manner prohibited above.
 ---------------------------------------------------------------
  

 Cite this work as:
 Gaussian 16, Revision C.01,
 M. J. Frisch, G. W. Trucks, H. B. Schlegel, G. E. Scuseria, 
 M. A. Robb, J. R. Cheeseman, G. Scalmani, V. Barone, 
 G. A. Petersson, H. Nakatsuji, X. Li, M. Caricato, A. V. Marenich, 
 J. Bloino, B. G. Janesko, R. Gomperts, B. Mennucci, H. P. Hratchian, 
 J. V. Ortiz, A. F. Izmaylov, J. L. Sonnenberg, D. Williams-Young, 
 F. Ding, F. Lipparini, F. Egidi, J. Goings, B. Peng, A. Petrone, 
 T. Henderson, D. Ranasinghe, V. G. Zakrzewski, J. Gao, N. Rega, 
 G. Zheng, W. Liang, M. Hada, M. Ehara, K. Toyota, R. Fukuda, 
 J. Hasegawa, M. Ishida, T. Nakajima, Y. Honda, O. Kitao, H. Nakai, 
 T. Vreven, K. Throssell, J. A. Montgomery, Jr., J. E. Peralta, 
 F. Ogliaro, M. J. Bearpark, J. J. Heyd, E. N. Brothers, K. N. Kudin, 
 V. N. Staroverov, T. A. Keith, R. Kobayashi, J. Normand, 
 K. Raghavachari, A. P. Rendell, J. C. Burant, S. S. Iyengar, 
 J. Tomasi, M. Cossi, J. M. Millam, M. Klene, C. Adamo, R. Cammi, 
 J. W. Ochterski, R. L. Martin, K. Morokuma, O. Farkas, 
 J. B. Foresman, and D. J. Fox, Gaussian, Inc., Wallingford CT, 2019.
 
 ******************************************
 Gaussian 16:  ES64L-G16RevC.01  3-Jul-2019
                 9-Apr-2025 
 ******************************************
 %nprocs=16
 Will use up to   16 processors via shared memory.
 %mem=30GB
 %chk=HB300SPXx10_123_1.13_0.90_sulfane_pyridine_dimer_mol1.chk
 ----------------------------------------------------------------------
 #t hf aug-cc-pvdz iop(5/13=1,5/36=2,99/5=2) pseudo=read geom=check gue
 ss=(read,tcheck) scf=(maxcycle=1)
 ----------------------------------------------------------------------
 -----
 title
 -----
 Structure from the checkpoint file:  "HB300SPXx10_123_1.13_0.90_sulfane_pyridine_dimer_mol1.chk"
 Charge =  0 Multiplicity = 1
 Z-Matrix found in chk file.
 H,0,1.25021154,1.5960457,0.13691261
 H,0,3.15091491,1.84193998,0.53016902
 S,0,2.02337536,2.53859467,0.73260516
 H,0,-1.737469,-1.70023497,-2.3703353
 H,0,-0.19908664,0.24941562,-2.30815224
 C,0,-1.61018795,-2.01815513,-0.24147633
 C,0,-1.31358792,-1.37117852,-1.43304274
 C,0,-0.45367807,-0.28139462,-1.39943018
 N,0,0.10075378,0.17255512,-0.27603333
 C,0,-0.18848099,-0.45317609,0.86439265
 C,0,-1.03660249,-1.55067151,0.9324344
 H,0,0.27957129,-0.05541671,1.75651338
 H,0,-1.23932876,-2.02263404,1.88245792
 H,0,-2.27562216,-2.86971159,-0.22830362
 Recover connectivity data from disk.
                    Distance matrix (angstroms):
                    1          2          3          4          5
     1  H    0.000000
     2  H    1.956473   0.000000
     3  S    1.356846   1.340766   0.000000
     4  H    5.106662   6.697479   6.460640   0.000000
     5  H    3.145190   4.670622   4.407480   2.484275   0.000000
     6  C    4.624663   6.177691   5.908941   2.156227   3.377015
     7  C    4.224008   5.840387   5.577785   1.080033   2.152732
     8  C    2.964519   4.607059   4.316678   2.145666   1.082752
     9  N    1.875661   3.569354   3.211225   3.357455   2.055558
    10  C    2.607369   4.065812   3.722952   3.797102   3.249429
    11  C    3.970416   5.404344   5.111310   3.379626   3.800414
    12  H    2.508501   3.653560   3.289093   4.879012   4.104089
    13  H    4.726477   6.003154   5.724701   4.293988   4.879091
    14  H    5.701568   7.226496   6.975278   2.499117   4.285642
                    6          7          8          9         10
     6  C    0.000000
     7  C    1.387941   0.000000
     8  C    2.386359   1.388598   0.000000
     9  N    2.779879   2.392101   1.332473   0.000000
    10  C    2.386075   2.717867   2.285767   1.332579   0.000000
    11  C    1.387663   2.388393   2.718172   2.392380   1.388681
    12  H    3.378682   3.800349   3.247876   2.053094   1.083127
    13  H    2.156074   3.379712   3.797361   3.357642   2.145678
    14  H    1.080798   2.150002   3.374967   3.860677   3.374876
                   11         12         13         14
    11  C    0.000000
    12  H    2.155738   0.000000
    13  H    1.079996   2.488546   0.000000
    14  H    2.149965   4.288213   2.499352   0.000000
 Framework group  C1[X(C5H7NS)]
 Deg. of freedom    36
                         Standard orientation:                         
 ---------------------------------------------------------------------
 Center     Atomic      Atomic             Coordinates (Angstroms)
 Number     Number       Type             X           Y           Z
 ---------------------------------------------------------------------
      1          1           0        1.894509   -0.306011   -0.026459
      2          1           0        3.351003   -0.040212    1.252511
      3         16           0        3.212543    0.011702   -0.080076
      4          1           0       -2.982683   -1.819422   -0.002502
      5          1           0       -0.543859   -2.292453   -0.001353
      6          6           0       -2.687976    0.316568    0.000589
      7          6           0       -2.270814   -1.007197   -0.000579
      8          6           0       -0.907837   -1.272713    0.000227
      9          7           0        0.019094   -0.315488    0.002353
     10          6           0       -0.388415    0.953253    0.003268
     11          6           0       -1.728141    1.318726    0.002504
     12          1           0        0.393022    1.703266    0.003859
     13          1           0       -2.006707    2.362178    0.002979
     14          1           0       -3.740535    0.562015   -0.000349
 ---------------------------------------------------------------------
 Rotational constants (GHZ):           5.9231195           0.8862118           0.7749992
 ======================================================================================================
                                       Pseudopotential Parameters
 ======================================================================================================
  Center     Atomic      Valence      Angular      Power
  Number     Number     Electrons     Momentum     of R      Exponent        Coefficient   SO-Coeffient
 ======================================================================================================
    1          1            1
                                      F and up 
                                                     0        0.0000010        0.00072061    0.00000000
                                                     2        0.1200000        0.03832357    0.00000000
                                                     2        0.1400000       -0.08683256    0.00000000
                                                     2        0.1800000        0.09312970    0.00000000
                                                     2        0.2800000       -0.02532572    0.00000000
                                                     2        0.4000000       -0.09430787    0.00000000
                                                     2        0.7000000        0.42710831    0.00000000
                                                     2        1.2000000       -2.11746981    0.00000000
                                      S - F
                                                     0        0.0000010        0.14449603    0.00000000
                                                     2        0.1200000       -0.56378993    0.00000000
                                                     2        0.1400000        0.63941249    0.00000000
                                                     2        0.2600000       -0.58461015    0.00000000
                                                     2        0.5000000        1.00157293    0.00000000
                                                     2        1.8000000       -0.14135838    0.00000000
                                      P - F
                                                     0        0.0000010       -0.09353646    0.00000000
                                                     2        0.1200000        0.31768975    0.00000000
                                                     2        0.2000000       -0.71747951    0.00000000
                                                     2        0.4000000        0.65752308    0.00000000
                                                     2        1.7000000        2.94052587    0.00000000
                                      D - F
                                                     0        0.0000010       -0.04491202    0.00000000
                                                     2        0.1200000       -0.02862031    0.00000000
                                                     2        0.1800000       -0.21515263    0.00000000
                                                     2        0.3000000        0.80560647    0.00000000
                                                     2        0.4000000        0.47351754    0.00000000
                                                     2        0.7000000       -4.57051794    0.00000000
                                                     2        1.6000000       18.53737826    0.00000000
    2          1            1
                                      F and up 
                                                     0        0.0000010        0.00072061    0.00000000
                                                     2        0.1200000        0.03832357    0.00000000
                                                     2        0.1400000       -0.08683256    0.00000000
                                                     2        0.1800000        0.09312970    0.00000000
                                                     2        0.2800000       -0.02532572    0.00000000
                                                     2        0.4000000       -0.09430787    0.00000000
                                                     2        0.7000000        0.42710831    0.00000000
                                                     2        1.2000000       -2.11746981    0.00000000
                                      S - F
                                                     0        0.0000010        0.14449603    0.00000000
                                                     2        0.1200000       -0.56378993    0.00000000
                                                     2        0.1400000        0.63941249    0.00000000
                                                     2        0.2600000       -0.58461015    0.00000000
                                                     2        0.5000000        1.00157293    0.00000000
                                                     2        1.8000000       -0.14135838    0.00000000
                                      P - F
                                                     0        0.0000010       -0.09353646    0.00000000
                                                     2        0.1200000        0.31768975    0.00000000
                                                     2        0.2000000       -0.71747951    0.00000000
                                                     2        0.4000000        0.65752308    0.00000000
                                                     2        1.7000000        2.94052587    0.00000000
                                      D - F
                                                     0        0.0000010       -0.04491202    0.00000000
                                                     2        0.1200000       -0.02862031    0.00000000
                                                     2        0.1800000       -0.21515263    0.00000000
                                                     2        0.3000000        0.80560647    0.00000000
                                                     2        0.4000000        0.47351754    0.00000000
                                                     2        0.7000000       -4.57051794    0.00000000
                                                     2        1.6000000       18.53737826    0.00000000
    3         16           16
                                      G and up 
                                                     0        0.0000010       -0.00444167    0.00000000
                                                     2        0.1200000        0.11677988    0.00000000
                                                     2        0.1400000       -0.22050378    0.00000000
                                                     2        0.1800000        0.26452031    0.00000000
                                                     2        0.2800000       -0.04353316    0.00000000
                                                     2        0.5000000       -1.18567514    0.00000000
                                      S - G
                                                     0        0.0000010        0.03992419    0.00000000
                                                     2        0.1200000       -0.56926432    0.00000000
                                                     2        0.3000000        0.88393965    0.00000000
                                      P - G
                                                     0        0.0000010       -0.92181603    0.00000000
                                                     2        0.1200000        1.30681810    0.00000000
                                                     2        0.2000000       -1.50828653    0.00000000
                                                     2        0.2400000       -2.25148793    0.00000000
                                                     2        0.6000000       10.10218731    0.00000000
                                      D - G
                                                     0        0.0000010        0.72039481    0.00000000
                                                     2        0.1200000       -0.56105075    0.00000000
                                                     2        0.2000000        0.42910414    0.00000000
                                                     2        0.8000000        0.44203418    0.00000000
                                      F - G
                                                     2        0.1200000       -0.62623060    0.00000000
                                                     2        0.1800000        0.89777932    0.00000000
                                                     2        0.5000000       -1.32991832    0.00000000
    4          1            1
                                      F and up 
                                                     0        0.0000010        0.00072061    0.00000000
                                                     2        0.1200000        0.03832357    0.00000000
                                                     2        0.1400000       -0.08683256    0.00000000
                                                     2        0.1800000        0.09312970    0.00000000
                                                     2        0.2800000       -0.02532572    0.00000000
                                                     2        0.4000000       -0.09430787    0.00000000
                                                     2        0.7000000        0.42710831    0.00000000
                                                     2        1.2000000       -2.11746981    0.00000000
                                      S - F
                                                     0        0.0000010        0.14449603    0.00000000
                                                     2        0.1200000       -0.56378993    0.00000000
                                                     2        0.1400000        0.63941249    0.00000000
                                                     2        0.2600000       -0.58461015    0.00000000
                                                     2        0.5000000        1.00157293    0.00000000
                                                     2        1.8000000       -0.14135838    0.00000000
                                      P - F
                                                     0        0.0000010       -0.09353646    0.00000000
                                                     2        0.1200000        0.31768975    0.00000000
                                                     2        0.2000000       -0.71747951    0.00000000
                                                     2        0.4000000        0.65752308    0.00000000
                                                     2        1.7000000        2.94052587    0.00000000
                                      D - F
                                                     0        0.0000010       -0.04491202    0.00000000
                                                     2        0.1200000       -0.02862031    0.00000000
                                                     2        0.1800000       -0.21515263    0.00000000
                                                     2        0.3000000        0.80560647    0.00000000
                                                     2        0.4000000        0.47351754    0.00000000
                                                     2        0.7000000       -4.57051794    0.00000000
                                                     2        1.6000000       18.53737826    0.00000000
    5          1            1
                                      F and up 
                                                     0        0.0000010        0.00072061    0.00000000
                                                     2        0.1200000        0.03832357    0.00000000
                                                     2        0.1400000       -0.08683256    0.00000000
                                                     2        0.1800000        0.09312970    0.00000000
                                                     2        0.2800000       -0.02532572    0.00000000
                                                     2        0.4000000       -0.09430787    0.00000000
                                                     2        0.7000000        0.42710831    0.00000000
                                                     2        1.2000000       -2.11746981    0.00000000
                                      S - F
                                                     0        0.0000010        0.14449603    0.00000000
                                                     2        0.1200000       -0.56378993    0.00000000
                                                     2        0.1400000        0.63941249    0.00000000
                                                     2        0.2600000       -0.58461015    0.00000000
                                                     2        0.5000000        1.00157293    0.00000000
                                                     2        1.8000000       -0.14135838    0.00000000
                                      P - F
                                                     0        0.0000010       -0.09353646    0.00000000
                                                     2        0.1200000        0.31768975    0.00000000
                                                     2        0.2000000       -0.71747951    0.00000000
                                                     2        0.4000000        0.65752308    0.00000000
                                                     2        1.7000000        2.94052587    0.00000000
                                      D - F
                                                     0        0.0000010       -0.04491202    0.00000000
                                                     2        0.1200000       -0.02862031    0.00000000
                                                     2        0.1800000       -0.21515263    0.00000000
                                                     2        0.3000000        0.80560647    0.00000000
                                                     2        0.4000000        0.47351754    0.00000000
                                                     2        0.7000000       -4.57051794    0.00000000
                                                     2        1.6000000       18.53737826    0.00000000
    6          6            6
                                      G and up 
                                                     0        0.0000010       -0.00286759    0.00000000
                                                     2        0.1200000        0.03193960    0.00000000
                                                     2        0.1600000       -0.04027782    0.00000000
                                                     2        0.2600000        0.24782456    0.00000000
                                                     2        0.4000000       -0.62266671    0.00000000
                                                     2        0.7000000        0.35695227    0.00000000
                                      S - G
                                                     0        0.0000010       -0.06602313    0.00000000
                                                     2        0.1200000        1.47277455    0.00000000
                                                     2        0.1600000       -4.06924166    0.00000000
                                                     2        0.3000000        5.02952802    0.00000000
                                                     2        0.7000000       -5.65856978    0.00000000
                                                     2        1.7000000        8.57604414    0.00000000
                                      P - G
                                                     0        0.0000010        0.49434425    0.00000000
                                                     2        0.1200000       -1.37391547    0.00000000
                                                     2        0.1600000        3.65411806    0.00000000
                                                     2        0.2800000       -7.36479843    0.00000000
                                                     2        0.6000000       17.22091285    0.00000000
                                                     2        1.1000000      -23.50107827    0.00000000
                                                     2        3.0000000       16.29464063    0.00000000
                                      D - G
                                                     0        0.0000010       -0.28693103    0.00000000
                                                     2        0.1200000        0.12273044    0.00000000
                                                     2        0.3000000       -0.43416384    0.00000000
                                                     2        0.7000000        2.23358493    0.00000000
                                      F - G
                                                     0        0.0000010        0.07263570    0.00000000
                                                     2        0.1400000       -0.76152861    0.00000000
                                                     2        0.2200000        1.98045593    0.00000000
                                                     2        0.4000000       -2.42426427    0.00000000
                                                     2        0.7000000        0.52335237    0.00000000
    7          6            6
                                      G and up 
                                                     0        0.0000010       -0.00286759    0.00000000
                                                     2        0.1200000        0.03193960    0.00000000
                                                     2        0.1600000       -0.04027782    0.00000000
                                                     2        0.2600000        0.24782456    0.00000000
                                                     2        0.4000000       -0.62266671    0.00000000
                                                     2        0.7000000        0.35695227    0.00000000
                                      S - G
                                                     0        0.0000010       -0.06602313    0.00000000
                                                     2        0.1200000        1.47277455    0.00000000
                                                     2        0.1600000       -4.06924166    0.00000000
                                                     2        0.3000000        5.02952802    0.00000000
                                                     2        0.7000000       -5.65856978    0.00000000
                                                     2        1.7000000        8.57604414    0.00000000
                                      P - G
                                                     0        0.0000010        0.49434425    0.00000000
                                                     2        0.1200000       -1.37391547    0.00000000
                                                     2        0.1600000        3.65411806    0.00000000
                                                     2        0.2800000       -7.36479843    0.00000000
                                                     2        0.6000000       17.22091285    0.00000000
                                                     2        1.1000000      -23.50107827    0.00000000
                                                     2        3.0000000       16.29464063    0.00000000
                                      D - G
                                                     0        0.0000010       -0.28693103    0.00000000
                                                     2        0.1200000        0.12273044    0.00000000
                                                     2        0.3000000       -0.43416384    0.00000000
                                                     2        0.7000000        2.23358493    0.00000000
                                      F - G
                                                     0        0.0000010        0.07263570    0.00000000
                                                     2        0.1400000       -0.76152861    0.00000000
                                                     2        0.2200000        1.98045593    0.00000000
                                                     2        0.4000000       -2.42426427    0.00000000
                                                     2        0.7000000        0.52335237    0.00000000
    8          6            6
                                      G and up 
                                                     0        0.0000010       -0.00286759    0.00000000
                                                     2        0.1200000        0.03193960    0.00000000
                                                     2        0.1600000       -0.04027782    0.00000000
                                                     2        0.2600000        0.24782456    0.00000000
                                                     2        0.4000000       -0.62266671    0.00000000
                                                     2        0.7000000        0.35695227    0.00000000
                                      S - G
                                                     0        0.0000010       -0.06602313    0.00000000
                                                     2        0.1200000        1.47277455    0.00000000
                                                     2        0.1600000       -4.06924166    0.00000000
                                                     2        0.3000000        5.02952802    0.00000000
                                                     2        0.7000000       -5.65856978    0.00000000
                                                     2        1.7000000        8.57604414    0.00000000
                                      P - G
                                                     0        0.0000010        0.49434425    0.00000000
                                                     2        0.1200000       -1.37391547    0.00000000
                                                     2        0.1600000        3.65411806    0.00000000
                                                     2        0.2800000       -7.36479843    0.00000000
                                                     2        0.6000000       17.22091285    0.00000000
                                                     2        1.1000000      -23.50107827    0.00000000
                                                     2        3.0000000       16.29464063    0.00000000
                                      D - G
                                                     0        0.0000010       -0.28693103    0.00000000
                                                     2        0.1200000        0.12273044    0.00000000
                                                     2        0.3000000       -0.43416384    0.00000000
                                                     2        0.7000000        2.23358493    0.00000000
                                      F - G
                                                     0        0.0000010        0.07263570    0.00000000
                                                     2        0.1400000       -0.76152861    0.00000000
                                                     2        0.2200000        1.98045593    0.00000000
                                                     2        0.4000000       -2.42426427    0.00000000
                                                     2        0.7000000        0.52335237    0.00000000
    9          7            7
                                      G and up 
                                                     0        0.0000010        0.00420138    0.00000000
                                                     2        0.1200000        0.05872431    0.00000000
                                                     2        0.1400000       -0.08436978    0.00000000
                                                     2        0.2000000        0.05409159    0.00000000
                                                     2        0.2600000        0.14199713    0.00000000
                                                     2        0.6000000       -0.79062770    0.00000000
                                                     2        0.7000000       -0.14441060    0.00000000
                                                     2        1.5000000        0.73772979    0.00000000
                                      S - G
                                                     0        0.0000010       -0.03094411    0.00000000
                                                     2        0.1200000        0.65332522    0.00000000
                                                     2        0.1800000       -1.38149133    0.00000000
                                                     2        1.3000000        3.29267299    0.00000000
                                      P - G
                                                     0        0.0000010        0.07303105    0.00000000
                                                     2        0.1200000        0.23145115    0.00000000
                                                     2        0.2000000       -1.20679699    0.00000000
                                                     2        0.4000000        1.75088447    0.00000000
                                                     2        1.2000000       -0.67486559    0.00000000
                                      D - G
                                                     0        0.0000010        0.07560739    0.00000000
                                                     2        0.3000000       -0.68679114    0.00000000
                                                     2        0.9000000        3.60133241    0.00000000
                                      F - G
                                                     0        0.0000010       -0.18221184    0.00000000
                                                     2        0.1200000       -0.39369067    0.00000000
                                                     2        0.1800000        0.72091725    0.00000000
                                                     2        0.6000000        0.15946111    0.00000000
   10          6            6
                                      G and up 
                                                     0        0.0000010       -0.00286759    0.00000000
                                                     2        0.1200000        0.03193960    0.00000000
                                                     2        0.1600000       -0.04027782    0.00000000
                                                     2        0.2600000        0.24782456    0.00000000
                                                     2        0.4000000       -0.62266671    0.00000000
                                                     2        0.7000000        0.35695227    0.00000000
                                      S - G
                                                     0        0.0000010       -0.06602313    0.00000000
                                                     2        0.1200000        1.47277455    0.00000000
                                                     2        0.1600000       -4.06924166    0.00000000
                                                     2        0.3000000        5.02952802    0.00000000
                                                     2        0.7000000       -5.65856978    0.00000000
                                                     2        1.7000000        8.57604414    0.00000000
                                      P - G
                                                     0        0.0000010        0.49434425    0.00000000
                                                     2        0.1200000       -1.37391547    0.00000000
                                                     2        0.1600000        3.65411806    0.00000000
                                                     2        0.2800000       -7.36479843    0.00000000
                                                     2        0.6000000       17.22091285    0.00000000
                                                     2        1.1000000      -23.50107827    0.00000000
                                                     2        3.0000000       16.29464063    0.00000000
                                      D - G
                                                     0        0.0000010       -0.28693103    0.00000000
                                                     2        0.1200000        0.12273044    0.00000000
                                                     2        0.3000000       -0.43416384    0.00000000
                                                     2        0.7000000        2.23358493    0.00000000
                                      F - G
                                                     0        0.0000010        0.07263570    0.00000000
                                                     2        0.1400000       -0.76152861    0.00000000
                                                     2        0.2200000        1.98045593    0.00000000
                                                     2        0.4000000       -2.42426427    0.00000000
                                                     2        0.7000000        0.52335237    0.00000000
   11          6            6
                                      G and up 
                                                     0        0.0000010       -0.00286759    0.00000000
                                                     2        0.1200000        0.03193960    0.00000000
                                                     2        0.1600000       -0.04027782    0.00000000
                                                     2        0.2600000        0.24782456    0.00000000
                                                     2        0.4000000       -0.62266671    0.00000000
                                                     2        0.7000000        0.35695227    0.00000000
                                      S - G
                                                     0        0.0000010       -0.06602313    0.00000000
                                                     2        0.1200000        1.47277455    0.00000000
                                                     2        0.1600000       -4.06924166    0.00000000
                                                     2        0.3000000        5.02952802    0.00000000
                                                     2        0.7000000       -5.65856978    0.00000000
                                                     2        1.7000000        8.57604414    0.00000000
                                      P - G
                                                     0        0.0000010        0.49434425    0.00000000
                                                     2        0.1200000       -1.37391547    0.00000000
                                                     2        0.1600000        3.65411806    0.00000000
                                                     2        0.2800000       -7.36479843    0.00000000
                                                     2        0.6000000       17.22091285    0.00000000
                                                     2        1.1000000      -23.50107827    0.00000000
                                                     2        3.0000000       16.29464063    0.00000000
                                      D - G
                                                     0        0.0000010       -0.28693103    0.00000000
                                                     2        0.1200000        0.12273044    0.00000000
                                                     2        0.3000000       -0.43416384    0.00000000
                                                     2        0.7000000        2.23358493    0.00000000
                                      F - G
                                                     0        0.0000010        0.07263570    0.00000000
                                                     2        0.1400000       -0.76152861    0.00000000
                                                     2        0.2200000        1.98045593    0.00000000
                                                     2        0.4000000       -2.42426427    0.00000000
                                                     2        0.7000000        0.52335237    0.00000000
   12          1            1
                                      F and up 
                                                     0        0.0000010        0.00072061    0.00000000
                                                     2        0.1200000        0.03832357    0.00000000
                                                     2        0.1400000       -0.08683256    0.00000000
                                                     2        0.1800000        0.09312970    0.00000000
                                                     2        0.2800000       -0.02532572    0.00000000
                                                     2        0.4000000       -0.09430787    0.00000000
                                                     2        0.7000000        0.42710831    0.00000000
                                                     2        1.2000000       -2.11746981    0.00000000
                                      S - F
                                                     0        0.0000010        0.14449603    0.00000000
                                                     2        0.1200000       -0.56378993    0.00000000
                                                     2        0.1400000        0.63941249    0.00000000
                                                     2        0.2600000       -0.58461015    0.00000000
                                                     2        0.5000000        1.00157293    0.00000000
                                                     2        1.8000000       -0.14135838    0.00000000
                                      P - F
                                                     0        0.0000010       -0.09353646    0.00000000
                                                     2        0.1200000        0.31768975    0.00000000
                                                     2        0.2000000       -0.71747951    0.00000000
                                                     2        0.4000000        0.65752308    0.00000000
                                                     2        1.7000000        2.94052587    0.00000000
                                      D - F
                                                     0        0.0000010       -0.04491202    0.00000000
                                                     2        0.1200000       -0.02862031    0.00000000
                                                     2        0.1800000       -0.21515263    0.00000000
                                                     2        0.3000000        0.80560647    0.00000000
                                                     2        0.4000000        0.47351754    0.00000000
                                                     2        0.7000000       -4.57051794    0.00000000
                                                     2        1.6000000       18.53737826    0.00000000
   13          1            1
                                      F and up 
                                                     0        0.0000010        0.00072061    0.00000000
                                                     2        0.1200000        0.03832357    0.00000000
                                                     2        0.1400000       -0.08683256    0.00000000
                                                     2        0.1800000        0.09312970    0.00000000
                                                     2        0.2800000       -0.02532572    0.00000000
                                                     2        0.4000000       -0.09430787    0.00000000
                                                     2        0.7000000        0.42710831    0.00000000
                                                     2        1.2000000       -2.11746981    0.00000000
                                      S - F
                                                     0        0.0000010        0.14449603    0.00000000
                                                     2        0.1200000       -0.56378993    0.00000000
                                                     2        0.1400000        0.63941249    0.00000000
                                                     2        0.2600000       -0.58461015    0.00000000
                                                     2        0.5000000        1.00157293    0.00000000
                                                     2        1.8000000       -0.14135838    0.00000000
                                      P - F
                                                     0        0.0000010       -0.09353646    0.00000000
                                                     2        0.1200000        0.31768975    0.00000000
                                                     2        0.2000000       -0.71747951    0.00000000
                                                     2        0.4000000        0.65752308    0.00000000
                                                     2        1.7000000        2.94052587    0.00000000
                                      D - F
                                                     0        0.0000010       -0.04491202    0.00000000
                                                     2        0.1200000       -0.02862031    0.00000000
                                                     2        0.1800000       -0.21515263    0.00000000
                                                     2        0.3000000        0.80560647    0.00000000
                                                     2        0.4000000        0.47351754    0.00000000
                                                     2        0.7000000       -4.57051794    0.00000000
                                                     2        1.6000000       18.53737826    0.00000000
   14          1            1
                                      F and up 
                                                     0        0.0000010        0.00072061    0.00000000
                                                     2        0.1200000        0.03832357    0.00000000
                                                     2        0.1400000       -0.08683256    0.00000000
                                                     2        0.1800000        0.09312970    0.00000000
                                                     2        0.2800000       -0.02532572    0.00000000
                                                     2        0.4000000       -0.09430787    0.00000000
                                                     2        0.7000000        0.42710831    0.00000000
                                                     2        1.2000000       -2.11746981    0.00000000
                                      S - F
                                                     0        0.0000010        0.14449603    0.00000000
                                                     2        0.1200000       -0.56378993    0.00000000
                                                     2        0.1400000        0.63941249    0.00000000
                                                     2        0.2600000       -0.58461015    0.00000000
                                                     2        0.5000000        1.00157293    0.00000000
                                                     2        1.8000000       -0.14135838    0.00000000
                                      P - F
                                                     0        0.0000010       -0.09353646    0.00000000
                                                     2        0.1200000        0.31768975    0.00000000
                                                     2        0.2000000       -0.71747951    0.00000000
                                                     2        0.4000000        0.65752308    0.00000000
                                                     2        1.7000000        2.94052587    0.00000000
                                      D - F
                                                     0        0.0000010       -0.04491202    0.00000000
                                                     2        0.1200000       -0.02862031    0.00000000
                                                     2        0.1800000       -0.21515263    0.00000000
                                                     2        0.3000000        0.80560647    0.00000000
                                                     2        0.4000000        0.47351754    0.00000000
                                                     2        0.7000000       -4.57051794    0.00000000
                                                     2        1.6000000       18.53737826    0.00000000
 ======================================================================================================
   228 basis functions,   416 primitive gaussians,   242 cartesian basis functions
    30 alpha electrons       30 beta electrons
       nuclear repulsion energy       311.5635722953 Hartrees.
 NAtoms=   14 NActive=   14 NUniq=   14 SFac= 1.00D+00 NAtFMM=   60 NAOKFM=F Big=F
   1 Symmetry operations used in ECPInt.
 ECPInt:  NShTT=    5050 NPrTT=   26978 LenC2=    5014 LenP2D=   19690.
 LDataN:  DoStor=T MaxTD1= 6 Len=  172
 Initial guess from the checkpoint file:  "HB300SPXx10_123_1.13_0.90_sulfane_pyridine_dimer_mol1.chk"
 B after Tr=    -0.216569   -0.004223   -0.016113
         Rot=    0.556124    0.709396    0.254844    0.350054 Ang= 112.42 deg.
 >>>>>>>>>> Convergence criterion not met.
 SCF Done:  E(RHF) =  -646.829992806     A.U. after    2 cycles
            NFock=  1  Conv=0.13D+01     -V/T= 1.9931

 **********************************************************************

            Population analysis using the SCF Density.

 **********************************************************************

 Orbital symmetries:
       Occupied  (A) (A) (A) (A) (A) (A) (A) (A) (A) (A) (A) (A)
                 (A) (A) (A) (A) (A) (A) (A) (A) (A) (A) (A) (A)
                 (A) (A) (A) (A) (A) (A)
       Virtual   (A) (A) (A) (A) (A) (A) (A) (A) (A) (A) (A) (A)
                 (A) (A) (A) (A) (A) (A) (A) (A) (A) (A) (A) (A)
                 (A) (A) (A) (A) (A) (A) (A) (A) (A) (A) (A) (A)
                 (A) (A) (A) (A) (A) (A) (A) (A) (A) (A) (A) (A)
                 (A) (A) (A) (A) (A) (A) (A) (A) (A) (A) (A) (A)
                 (A) (A) (A) (A) (A) (A) (A) (A) (A) (A) (A) (A)
                 (A) (A) (A) (A) (A) (A) (A) (A) (A) (A) (A) (A)
                 (A) (A) (A) (A) (A) (A) (A) (A) (A) (A) (A) (A)
                 (A) (A) (A) (A) (A) (A) (A) (A) (A) (A) (A) (A)
                 (A) (A) (A) (A) (A) (A) (A) (A) (A) (A) (A) (A)
                 (A) (A) (A) (A) (A) (A) (A) (A) (A) (A) (A) (A)
                 (A) (A) (A) (A) (A) (A) (A) (A) (A) (A) (A) (A)
                 (A) (A) (A) (A) (A) (A) (A) (A) (A) (A) (A) (A)
                 (A) (A) (A) (A) (A) (A) (A) (A) (A) (A) (A) (A)
                 (A) (A) (A) (A) (A) (A) (A) (A) (A) (A) (A) (A)
                 (A) (A) (A) (A) (A) (A) (A) (A) (A) (A) (A) (A)
                 (A) (A) (A) (A) (A) (A)
 The electronic state is 1-A.
 Alpha  occ. eigenvalues --  -75.66458 -15.75030 -13.12550 -13.07114 -12.98847
 Alpha  occ. eigenvalues --  -11.49913 -11.46084 -11.44700 -11.42135 -11.39035
 Alpha  occ. eigenvalues --   -8.00259  -1.46563  -1.20436  -1.12714  -1.07983
 Alpha  occ. eigenvalues --   -0.90211  -0.90050  -0.75159  -0.66821  -0.61560
 Alpha  occ. eigenvalues --   -0.60443  -0.58713  -0.55512  -0.51299  -0.48555
 Alpha  occ. eigenvalues --   -0.42782  -0.38343  -0.35276  -0.33415  -0.23376
 Alpha virt. eigenvalues --    0.02508   0.04666   0.04875   0.05178   0.05576
 Alpha virt. eigenvalues --    0.06881   0.07916   0.09569   0.10192   0.10365
 Alpha virt. eigenvalues --    0.11964   0.12774   0.13269   0.13515   0.13715
 Alpha virt. eigenvalues --    0.14023   0.14291   0.14426   0.15467   0.16262
 Alpha virt. eigenvalues --    0.16313   0.17137   0.18102   0.18427   0.19400
 Alpha virt. eigenvalues --    0.19958   0.20582   0.20641   0.22216   0.25705
 Alpha virt. eigenvalues --    0.27257   0.27939   0.28578   0.29572   0.29838
 Alpha virt. eigenvalues --    0.30233   0.31595   0.32112   0.33487   0.33535
 Alpha virt. eigenvalues --    0.33900   0.34519   0.35376   0.35904   0.37098
 Alpha virt. eigenvalues --    0.37418   0.39528   0.40170   0.41102   0.41789
 Alpha virt. eigenvalues --    0.42504   0.43268   0.43620   0.44165   0.48368
 Alpha virt. eigenvalues --    0.49874   0.50047   0.51734   0.52327   0.53514
 Alpha virt. eigenvalues --    0.54433   0.56165   0.57280   0.57836   0.58427
 Alpha virt. eigenvalues --    0.59014   0.61155   0.61564   0.62102   0.63073
 Alpha virt. eigenvalues --    0.64263   0.65139   0.66589   0.66999   0.67843
 Alpha virt. eigenvalues --    0.68279   0.69118   0.69957   0.70231   0.71123
 Alpha virt. eigenvalues --    0.71653   0.74111   0.74389   0.76412   0.77663
 Alpha virt. eigenvalues --    0.78888   0.80026   0.82472   0.84455   0.86741
 Alpha virt. eigenvalues --    0.88927   0.89486   0.91175   0.92776   0.93268
 Alpha virt. eigenvalues --    0.93452   0.93627   0.97015   0.97700   0.99300
 Alpha virt. eigenvalues --    1.00571   1.03896   1.05698   1.07899   1.10750
 Alpha virt. eigenvalues --    1.11382   1.12705   1.17536   1.19367   1.20079
 Alpha virt. eigenvalues --    1.21927   1.23898   1.25580   1.28266   1.28959
 Alpha virt. eigenvalues --    1.29651   1.33905   1.37463   1.39932   1.41886
 Alpha virt. eigenvalues --    1.42980   1.44257   1.45901   1.52132   1.54670
 Alpha virt. eigenvalues --    1.57939   1.60592   1.68989   1.70662   1.70939
 Alpha virt. eigenvalues --    1.71758   1.73920   1.80083   1.81530   1.81636
 Alpha virt. eigenvalues --    1.83348   1.84462   1.84950   1.87675   1.87986
 Alpha virt. eigenvalues --    1.92476   1.94158   1.97429   1.98891   2.00650
 Alpha virt. eigenvalues --    2.02237   2.03680   2.04951   2.07856   2.09122
 Alpha virt. eigenvalues --    2.10809   2.12303   2.13942   2.16123   2.19634
 Alpha virt. eigenvalues --    2.21969   2.22092   2.24280   2.24931   2.29165
 Alpha virt. eigenvalues --    2.30657   2.36914   2.39387   2.41463   2.42464
 Alpha virt. eigenvalues --    2.44862   2.45729   2.50929   2.52533   2.53411
 Alpha virt. eigenvalues --    2.58988   2.59853   2.60624   2.67530   2.72947
 Alpha virt. eigenvalues --    2.79637   2.83762   2.89101   2.97215   3.02178
 Alpha virt. eigenvalues --    3.06149   3.09668   3.14240   3.21428   3.29957
 Alpha virt. eigenvalues --    3.33152   3.37165   3.41443   3.50823   3.54228
 Alpha virt. eigenvalues --    3.63113   3.67268   3.72328   3.86805   3.99328
 Alpha virt. eigenvalues --    4.07147   4.16368   4.87726
          Condensed to atoms (all electrons):
 Mulliken charges:
               1
     1  H    1.555795
     2  H    0.984178
     3  S   -2.661808
     4  H    1.452153
     5  H    1.609866
     6  C   -0.016635
     7  C   -0.875566
     8  C   -1.392139
     9  N   -3.252678
    10  C   -1.490208
    11  C   -0.619443
    12  H    1.751125
    13  H    1.416519
    14  H    1.538840
 Sum of Mulliken charges =   0.00000
 Mulliken charges with hydrogens summed into heavy atoms:
               1
     3  S   -0.121835
     6  C    1.522205
     7  C    0.576588
     8  C    0.217727
     9  N   -3.252678
    10  C    0.260917
    11  C    0.797076
 Electronic spatial extent (au):  <R**2>=           1409.3867
 Charge=             -0.0000 electrons
 Dipole moment (field-independent basis, Debye):
    X=             -2.7756    Y=              0.4487    Z=             -0.8733  Tot=              2.9441

 Test job not archived.
 1\1\GINC-SE016\SP\RHF\Aug-CC-pVDZ\C5H7N1S1\OHZDE\09-Apr-2025\0\\#t hf 
 aug-cc-pvdz iop(5/13=1,5/36=2,99/5=2) pseudo=read geom=check guess=(re
 ad,tcheck) scf=(maxcycle=1)\\title\\0,1\H,0,1.25021154,1.5960457,0.136
 91261\H,0,3.15091491,1.84193998,0.53016902\S,0,2.02337536,2.53859467,0
 .73260516\H,0,-1.737469,-1.70023497,-2.3703353\H,0,-0.19908664,0.24941
 562,-2.30815224\C,0,-1.61018795,-2.01815513,-0.24147633\C,0,-1.3135879
 2,-1.37117852,-1.43304274\C,0,-0.45367807,-0.28139462,-1.39943018\N,0,
 0.10075378,0.17255512,-0.27603333\C,0,-0.18848099,-0.45317609,0.864392
 65\C,0,-1.03660249,-1.55067151,0.9324344\H,0,0.27957129,-0.05541671,1.
 75651338\H,0,-1.23932876,-2.02263404,1.88245792\H,0,-2.27562216,-2.869
 71159,-0.22830362\\Version=ES64L-G16RevC.01\State=1-A\HF=-646.8299928\
 RMSD=1.295e+00\Dipole=-0.955454,-0.6546214,-0.015165\Quadrupole=-2.106
 3246,1.1545273,0.9517973,1.7917631,1.1128075,1.2933039\PG=C01 [X(C5H7N
 1S1)]\\@


 CONFIDENCE IS WHAT YOU FEEL BEFORE YOU FULLY
 COMPREHEND THE SITUATION.
 Job cpu time:       0 days  0 hours  0 minutes 56.7 seconds.
 Elapsed time:       0 days  0 hours  0 minutes  4.4 seconds.
 File lengths (MBytes):  RWF=     10 Int=      0 D2E=      0 Chk=      8 Scr=      1
 Normal termination of Gaussian 16 at Wed Apr  9 04:10:54 2025.
