 Entering Gaussian System, Link 0=g16
 Input=1-2-furylpyridin-2-one.gjf
 Output=1-2-furylpyridin-2-one.log
 Initial command:
 /arc/software/Gaussian/g16.c01/l1.exe "/tmp/slurm/4814551/Gau-373097.inp" -scrdir="/tmp/slurm/4814551/"
 Entering Link 1 = /arc/software/Gaussian/g16.c01/l1.exe PID=    373130.
  
 Copyright (c) 1988-2019, Gaussian, Inc.  All Rights Reserved.
  
 This is part of the Gaussian(R) 16 program.  It is based on
 the Gaussian(R) 09 system (copyright 2009, Gaussian, Inc.),
 the Gaussian(R) 03 system (copyright 2003, Gaussian, Inc.),
 the Gaussian(R) 98 system (copyright 1998, Gaussian, Inc.),
 the Gaussian(R) 94 system (copyright 1995, Gaussian, Inc.),
 the Gaussian 92(TM) system (copyright 1992, Gaussian, Inc.),
 the Gaussian 90(TM) system (copyright 1990, Gaussian, Inc.),
 the Gaussian 88(TM) system (copyright 1988, Gaussian, Inc.),
 the Gaussian 86(TM) system (copyright 1986, Carnegie Mellon
 University), and the Gaussian 82(TM) system (copyright 1983,
 Carnegie Mellon University). Gaussian is a federally registered
 trademark of Gaussian, Inc.
  
 This software contains proprietary and confidential information,
 including trade secrets, belonging to Gaussian, Inc.
  
 This software is provided under written license and may be
 used, copied, transmitted, or stored only in accord with that
 written license.
  
 The following legend is applicable only to US Government
 contracts under FAR:
  
                    RESTRICTED RIGHTS LEGEND
  
 Use, reproduction and disclosure by the US Government is
 subject to restrictions as set forth in subparagraphs (a)
 and (c) of the Commercial Computer Software - Restricted
 Rights clause in FAR 52.227-19.
  
 Gaussian, Inc.
 340 Quinnipiac St., Bldg. 40, Wallingford CT 06492
  
  
 ---------------------------------------------------------------
 Warning -- This program may not be used in any manner that
 competes with the business of Gaussian, Inc. or will provide
 assistance to any competitor of Gaussian, Inc.  The licensee
 of this program is prohibited from giving any competitor of
 Gaussian, Inc. access to this program.  By using this program,
 the user acknowledges that Gaussian, Inc. is engaged in the
 business of creating and licensing software in the field of
 computational chemistry and represents and warrants to the
 licensee that it is not a competitor of Gaussian, Inc. and that
 it will not use this program in any manner prohibited above.
 ---------------------------------------------------------------
  

 Cite this work as:
 Gaussian 16, Revision C.01,
 M. J. Frisch, G. W. Trucks, H. B. Schlegel, G. E. Scuseria, 
 M. A. Robb, J. R. Cheeseman, G. Scalmani, V. Barone, 
 G. A. Petersson, H. Nakatsuji, X. Li, M. Caricato, A. V. Marenich, 
 J. Bloino, B. G. Janesko, R. Gomperts, B. Mennucci, H. P. Hratchian, 
 J. V. Ortiz, A. F. Izmaylov, J. L. Sonnenberg, D. Williams-Young, 
 F. Ding, F. Lipparini, F. Egidi, J. Goings, B. Peng, A. Petrone, 
 T. Henderson, D. Ranasinghe, V. G. Zakrzewski, J. Gao, N. Rega, 
 G. Zheng, W. Liang, M. Hada, M. Ehara, K. Toyota, R. Fukuda, 
 J. Hasegawa, M. Ishida, T. Nakajima, Y. Honda, O. Kitao, H. Nakai, 
 T. Vreven, K. Throssell, J. A. Montgomery, Jr., J. E. Peralta, 
 F. Ogliaro, M. J. Bearpark, J. J. Heyd, E. N. Brothers, K. N. Kudin, 
 V. N. Staroverov, T. A. Keith, R. Kobayashi, J. Normand, 
 K. Raghavachari, A. P. Rendell, J. C. Burant, S. S. Iyengar, 
 J. Tomasi, M. Cossi, J. M. Millam, M. Klene, C. Adamo, R. Cammi, 
 J. W. Ochterski, R. L. Martin, K. Morokuma, O. Farkas, 
 J. B. Foresman, and D. J. Fox, Gaussian, Inc., Wallingford CT, 2019.
 
 ******************************************
 Gaussian 16:  ES64L-G16RevC.01  3-Jul-2019
                 5-Apr-2025 
 ******************************************
 %nprocs=16
 Will use up to   16 processors via shared memory.
 %mem=30GB
 %chk=1-2-furylpyridin-2-one.chk
 ----------------------------------------------------------------------
 #t hf aug-cc-pvdz symm=none int=(grid=ultrafine) guess=(read,tcheck) s
 table=(opt,rrhf)
 ----------------------------------------------------------------------
 -----
 title
 -----
 Symbolic Z-matrix:
 Charge =  0 Multiplicity = 1
 C                    -3.19457  -0.31367   0.53295 
 C                    -1.88873  -0.50881   1.08344 
 C                    -3.0098    0.09687  -0.74487 
 C                    -1.01931  -0.20301   0.09158 
 C                     3.13536  -0.25798  -0.06741 
 C                     2.50618   0.9371    0.06139 
 C                     2.39642  -1.46978  -0.15324 
 C                     1.04493  -1.40641  -0.10758 
 C                     1.06493   1.04888   0.12345 
 N                     0.385    -0.20949   0.02733 
 O                     0.42986   2.07933   0.25242 
 O                    -1.6824    0.1642   -1.03675 
 H                    -4.13887  -0.45242   1.02947 
 H                    -1.63173  -0.81226   2.08294 
 H                    -3.67898   0.37009  -1.53979 
 H                     4.21663  -0.29357  -0.10599 
 H                     3.04982   1.86746   0.1313 
 H                     2.88686  -2.42432  -0.25878 
 H                     0.4091   -2.27607  -0.17409 
 
                    Distance matrix (angstroms):
                    1          2          3          4          5
     1  C    0.000000
     2  C    1.430504   0.000000
     3  C    1.354809   2.228530   0.000000
     4  C    2.222348   1.353953   2.179820   0.000000
     5  C    6.358588   5.160320   6.192565   4.158077   0.000000
     6  C    5.855372   4.738195   5.637559   3.705381   1.356713
     7  C    5.750365   4.562385   5.659648   3.651281   1.421920
     8  C    4.424675   3.290982   4.371128   2.397687   2.385464
     9  C    4.490837   3.474495   4.273610   2.431527   2.455808
    10  N    3.616612   2.524844   3.494969   1.405797   2.752418
    11  O    4.352204   3.572809   4.093414   2.708333   3.589571
    12  O    2.231373   2.233995   1.360783   1.359287   4.932407
    13  H    1.075864   2.251496   2.173662   3.267035   7.359040
    14  H    2.256887   1.075702   3.274460   2.170658   5.258937
    15  H    2.235722   3.295272   1.074414   3.172331   6.999834
    16  H    7.438720   6.223863   7.265111   5.240446   1.082538
    17  H    6.626543   5.562600   6.373510   4.565769   2.136419
    18  H    6.485800   5.317616   6.431429   4.507235   2.188937
    19  H    4.163820   3.159841   4.200650   2.531504   3.393617
                    6          7          8          9         10
     6  C    0.000000
     7  C    2.418919   0.000000
     8  C    2.766922   1.353751   0.000000
     9  C    1.446908   2.862353   2.466219   0.000000
    10  N    2.411476   2.380492   1.373436   1.433539   0.000000
    11  O    2.377450   4.077753   3.557849   1.217279   2.300296
    12  O    4.398573   4.481878   3.281533   3.110713   2.355002
    13  H    6.857453   6.718922   5.392104   5.491298   4.639910
    14  H    4.926379   4.653904   3.509401   3.817777   2.942124
    15  H    6.414168   6.497553   5.246188   5.072660   4.394059
    16  H    2.113810   2.167682   3.361266   3.433366   3.834865
    17  H    1.079814   3.412483   3.846412   2.147069   3.380201
    18  H    3.398031   1.078348   2.109915   3.940648   3.353606
    19  H    3.844179   2.144766   1.079362   3.402057   2.076521
                   11         12         13         14         15
    11  O    0.000000
    12  O    3.129109   0.000000
    13  H    5.280805   3.268607   0.000000
    14  H    3.995279   3.269331   2.743183   0.000000
    15  H    4.797519   2.069253   2.736629   4.325898   0.000000
    16  H    4.483155   5.989519   8.433795   6.266077   8.052137
    17  H    2.631296   5.163261   7.606959   5.736435   7.093057
    18  H    5.155685   5.308844   7.410060   5.338548   7.249831
    19  H    4.376288   3.327683   5.045624   3.376671   5.057638
                   16         17         18         19
    16  H    0.000000
    17  H    2.467345   0.000000
    18  H    2.516297   4.312557   0.000000
    19  H    4.293283   4.922963   2.483643   0.000000
 Symmetry turned off by external request.
 Rotational constants (GHZ):           2.3390711           0.6772077           0.5875574
   339 basis functions,   593 primitive gaussians,   363 cartesian basis functions
    42 alpha electrons       42 beta electrons
       nuclear repulsion energy       657.3401390619 Hartrees.
 NAtoms=   19 NActive=   19 NUniq=   19 SFac= 1.00D+00 NAtFMM=   60 NAOKFM=F Big=F
 ExpMin= 2.97D-02 ExpMax= 1.17D+04 ExpMxC= 4.01D+02 IAcc=3 IRadAn=         5 AccDes= 0.00D+00
 Harris functional with IExCor=  205 and IRadAn=       5 diagonalized for initial guess.
 HarFok:  IExCor=  205 AccDes= 0.00D+00 IRadAn=         5 IDoV= 1 UseB2=F ITyADJ=14
 ICtDFT=  3500011 ScaDFX=  1.000000  1.000000  1.000000  1.000000
 FoFCou: FMM=F IPFlag=           0 FMFlag=      100000 FMFlg1=           0
         NFxFlg=           0 DoJE=T BraDBF=F KetDBF=T FulRan=T
         wScrn=  0.000000 ICntrl=       500 IOpCl=  0 I1Cent=   200000004 NGrid=           0
         NMat0=    1 NMatS0=      1 NMatT0=    0 NMatD0=    1 NMtDS0=    0 NMtDT0=    0
 Symmetry not used in FoFCou.
 SCF Done:  E(RHF) =  -549.094391891     A.U. after   16 cycles
            NFock= 16  Conv=0.64D-08     -V/T= 2.0010

 **********************************************************************

            Population analysis using the SCF Density.

 **********************************************************************

 Alpha  occ. eigenvalues --  -20.64117 -20.52943 -15.64379 -11.36745 -11.34024
 Alpha  occ. eigenvalues --  -11.31781 -11.30229 -11.28052 -11.24851 -11.24798
 Alpha  occ. eigenvalues --  -11.24776 -11.24331  -1.47979  -1.39177  -1.29587
 Alpha  occ. eigenvalues --   -1.12994  -1.09900  -1.03829  -1.00818  -0.89532
 Alpha  occ. eigenvalues --   -0.87092  -0.82656  -0.79512  -0.76088  -0.70955
 Alpha  occ. eigenvalues --   -0.69965  -0.66701  -0.64180  -0.63877  -0.62076
 Alpha  occ. eigenvalues --   -0.61747  -0.58591  -0.57412  -0.56696  -0.55599
 Alpha  occ. eigenvalues --   -0.54225  -0.49158  -0.43168  -0.42900  -0.40715
 Alpha  occ. eigenvalues --   -0.33115  -0.31585
 Alpha virt. eigenvalues --    0.02895   0.03492   0.04203   0.04475   0.05213
 Alpha virt. eigenvalues --    0.05835   0.06464   0.07115   0.09355   0.10219
 Alpha virt. eigenvalues --    0.10651   0.10903   0.11664   0.12044   0.12837
 Alpha virt. eigenvalues --    0.13308   0.13466   0.14076   0.14263   0.14447
 Alpha virt. eigenvalues --    0.14864   0.15209   0.15612   0.15979   0.16249
 Alpha virt. eigenvalues --    0.16596   0.16878   0.17339   0.17638   0.18140
 Alpha virt. eigenvalues --    0.18352   0.19449   0.20039   0.20989   0.21511
 Alpha virt. eigenvalues --    0.23034   0.23622   0.24352   0.24815   0.25921
 Alpha virt. eigenvalues --    0.26986   0.27599   0.29175   0.29961   0.29978
 Alpha virt. eigenvalues --    0.30277   0.30707   0.31223   0.32091   0.32429
 Alpha virt. eigenvalues --    0.32975   0.33640   0.34514   0.35229   0.35665
 Alpha virt. eigenvalues --    0.36022   0.36335   0.36784   0.37601   0.38249
 Alpha virt. eigenvalues --    0.38603   0.39338   0.39789   0.40054   0.40235
 Alpha virt. eigenvalues --    0.41317   0.41545   0.42160   0.43730   0.44233
 Alpha virt. eigenvalues --    0.44920   0.46316   0.46641   0.47462   0.47695
 Alpha virt. eigenvalues --    0.49026   0.49616   0.50426   0.50783   0.51520
 Alpha virt. eigenvalues --    0.52921   0.54136   0.54860   0.55031   0.56244
 Alpha virt. eigenvalues --    0.56763   0.57780   0.58413   0.59764   0.60168
 Alpha virt. eigenvalues --    0.60692   0.61270   0.61839   0.62726   0.63271
 Alpha virt. eigenvalues --    0.63863   0.64555   0.64854   0.65513   0.65942
 Alpha virt. eigenvalues --    0.66173   0.67215   0.68311   0.69264   0.69819
 Alpha virt. eigenvalues --    0.69909   0.71482   0.72049   0.72251   0.73224
 Alpha virt. eigenvalues --    0.74162   0.74622   0.75326   0.75683   0.76802
 Alpha virt. eigenvalues --    0.77804   0.78869   0.80623   0.81693   0.82284
 Alpha virt. eigenvalues --    0.83149   0.83325   0.84953   0.85546   0.85995
 Alpha virt. eigenvalues --    0.87538   0.88250   0.88655   0.89389   0.89769
 Alpha virt. eigenvalues --    0.90275   0.90914   0.91835   0.92785   0.93231
 Alpha virt. eigenvalues --    0.93591   0.94534   0.95752   0.96421   0.98392
 Alpha virt. eigenvalues --    1.00040   1.00533   1.03066   1.03665   1.04499
 Alpha virt. eigenvalues --    1.05751   1.06646   1.07106   1.07622   1.09362
 Alpha virt. eigenvalues --    1.10585   1.12341   1.14059   1.14745   1.16109
 Alpha virt. eigenvalues --    1.16592   1.17858   1.19389   1.20439   1.21773
 Alpha virt. eigenvalues --    1.23443   1.24173   1.26853   1.29625   1.32073
 Alpha virt. eigenvalues --    1.33415   1.34707   1.37270   1.39912   1.41171
 Alpha virt. eigenvalues --    1.41940   1.42595   1.44534   1.46239   1.47036
 Alpha virt. eigenvalues --    1.48525   1.48948   1.51487   1.53595   1.54502
 Alpha virt. eigenvalues --    1.55422   1.56681   1.58296   1.58978   1.59937
 Alpha virt. eigenvalues --    1.61521   1.61899   1.62452   1.63198   1.63514
 Alpha virt. eigenvalues --    1.64078   1.66341   1.66620   1.67984   1.69563
 Alpha virt. eigenvalues --    1.71153   1.73034   1.74026   1.75704   1.78808
 Alpha virt. eigenvalues --    1.79344   1.80220   1.82344   1.83808   1.85652
 Alpha virt. eigenvalues --    1.87057   1.88252   1.89459   1.89692   1.90886
 Alpha virt. eigenvalues --    1.92597   1.93245   1.94409   1.95482   1.96911
 Alpha virt. eigenvalues --    1.98293   1.98778   2.01097   2.01659   2.03261
 Alpha virt. eigenvalues --    2.06094   2.06977   2.08541   2.09917   2.11204
 Alpha virt. eigenvalues --    2.13079   2.15026   2.15767   2.16649   2.17196
 Alpha virt. eigenvalues --    2.18297   2.18863   2.20705   2.22035   2.24911
 Alpha virt. eigenvalues --    2.26287   2.27756   2.29157   2.31620   2.33341
 Alpha virt. eigenvalues --    2.34837   2.35665   2.37734   2.40863   2.42232
 Alpha virt. eigenvalues --    2.44127   2.44647   2.47837   2.49252   2.53946
 Alpha virt. eigenvalues --    2.54121   2.57983   2.60694   2.62413   2.63424
 Alpha virt. eigenvalues --    2.66629   2.72613   2.74824   2.78868   2.81206
 Alpha virt. eigenvalues --    2.83806   2.85657   2.87919   2.88737   2.89897
 Alpha virt. eigenvalues --    2.92508   2.94131   3.01833   3.03310   3.04929
 Alpha virt. eigenvalues --    3.10358   3.12668   3.13590   3.18636   3.20264
 Alpha virt. eigenvalues --    3.25915   3.29657   3.32738   3.35507   3.43259
 Alpha virt. eigenvalues --    3.48637   3.61707   3.70876   3.72303   3.76743
 Alpha virt. eigenvalues --    3.83566   3.84922   3.85498   3.93990   3.99361
 Alpha virt. eigenvalues --    4.00201   4.07855   4.10749   4.14433   4.19070
 Alpha virt. eigenvalues --    4.36777   4.53225
          Condensed to atoms (all electrons):
 Mulliken charges:
               1
     1  C    0.639895
     2  C    0.691521
     3  C    0.625085
     4  C    0.570550
     5  C    0.098991
     6  C    0.906863
     7  C    0.517434
     8  C    0.889993
     9  C    0.414791
    10  N   -0.680204
    11  O   -0.816838
    12  O   -0.917925
    13  H   -0.308268
    14  H   -0.427374
    15  H   -0.337597
    16  H   -0.404254
    17  H   -0.506047
    18  H   -0.453496
    19  H   -0.503119
 Sum of Mulliken charges =  -0.00000
 Mulliken charges with hydrogens summed into heavy atoms:
               1
     1  C    0.331627
     2  C    0.264147
     3  C    0.287487
     4  C    0.570550
     5  C   -0.305263
     6  C    0.400816
     7  C    0.063938
     8  C    0.386874
     9  C    0.414791
    10  N   -0.680204
    11  O   -0.816838
    12  O   -0.917925
 Electronic spatial extent (au):  <R**2>=           1937.2030
 Charge=             -0.0000 electrons
 Dipole moment (field-independent basis, Debye):
    X=              0.6860    Y=             -4.2839    Z=              0.2604  Tot=              4.3463
 NROrb=    339 NOA=    42 NOB=    42 NVA=   297 NVB=   297

 **** Warning!!: The largest alpha MO coefficient is  0.88057129D+02

    12 initial guesses have been made.
 Iteration     1 Dimension    12 NMult     0 NNew     12
 New state      1 was old state      3
 Iteration     2 Dimension    24 NMult    12 NNew     12
 New state      1 was old state      4
 Iteration     3 Dimension    27 NMult    24 NNew      3
 Iteration     4 Dimension    30 NMult    27 NNew      3
 Iteration     5 Dimension    33 NMult    30 NNew      3
 Iteration     6 Dimension    36 NMult    33 NNew      3
 Iteration     7 Dimension    39 NMult    36 NNew      3
 Iteration     8 Dimension    42 NMult    39 NNew      3
 Iteration     9 Dimension    45 NMult    42 NNew      3
 ***********************************************************************
 Stability analysis using <AA,BB:AA,BB> singles matrix:
 ***********************************************************************
 Ground to excited state transition densities written to RWF  633

 Eigenvectors of the stability matrix:
 
 Excited state symmetry could not be determined.
 Eigenvector   1:      Singlet-?Sym  Eigenvalue= 0.1695746  <S**2>=0.000
      39 -> 57        -0.11042
      41 -> 50        -0.17743
      42 -> 50         0.58593
 The wavefunction is stable under the perturbations considered.
 The wavefunction is already stable.

 **********************************************************************

            Population analysis using the SCF Density.

 **********************************************************************

 Alpha  occ. eigenvalues --  -20.64117 -20.52943 -15.64379 -11.36745 -11.34024
 Alpha  occ. eigenvalues --  -11.31781 -11.30229 -11.28052 -11.24851 -11.24798
 Alpha  occ. eigenvalues --  -11.24776 -11.24331  -1.47979  -1.39177  -1.29587
 Alpha  occ. eigenvalues --   -1.12994  -1.09900  -1.03829  -1.00818  -0.89532
 Alpha  occ. eigenvalues --   -0.87092  -0.82656  -0.79512  -0.76088  -0.70955
 Alpha  occ. eigenvalues --   -0.69965  -0.66701  -0.64180  -0.63877  -0.62076
 Alpha  occ. eigenvalues --   -0.61747  -0.58591  -0.57412  -0.56696  -0.55599
 Alpha  occ. eigenvalues --   -0.54225  -0.49158  -0.43168  -0.42900  -0.40715
 Alpha  occ. eigenvalues --   -0.33115  -0.31585
 Alpha virt. eigenvalues --    0.02895   0.03492   0.04203   0.04475   0.05213
 Alpha virt. eigenvalues --    0.05835   0.06464   0.07115   0.09355   0.10219
 Alpha virt. eigenvalues --    0.10651   0.10903   0.11664   0.12044   0.12837
 Alpha virt. eigenvalues --    0.13308   0.13466   0.14076   0.14263   0.14447
 Alpha virt. eigenvalues --    0.14864   0.15209   0.15612   0.15979   0.16249
 Alpha virt. eigenvalues --    0.16596   0.16878   0.17339   0.17638   0.18140
 Alpha virt. eigenvalues --    0.18352   0.19449   0.20039   0.20989   0.21511
 Alpha virt. eigenvalues --    0.23034   0.23622   0.24352   0.24815   0.25921
 Alpha virt. eigenvalues --    0.26986   0.27599   0.29175   0.29961   0.29978
 Alpha virt. eigenvalues --    0.30277   0.30707   0.31223   0.32091   0.32429
 Alpha virt. eigenvalues --    0.32975   0.33640   0.34514   0.35229   0.35665
 Alpha virt. eigenvalues --    0.36022   0.36335   0.36784   0.37601   0.38249
 Alpha virt. eigenvalues --    0.38603   0.39338   0.39789   0.40054   0.40235
 Alpha virt. eigenvalues --    0.41317   0.41545   0.42160   0.43730   0.44233
 Alpha virt. eigenvalues --    0.44920   0.46316   0.46641   0.47462   0.47695
 Alpha virt. eigenvalues --    0.49026   0.49616   0.50426   0.50783   0.51520
 Alpha virt. eigenvalues --    0.52921   0.54136   0.54860   0.55031   0.56244
 Alpha virt. eigenvalues --    0.56763   0.57780   0.58413   0.59764   0.60168
 Alpha virt. eigenvalues --    0.60692   0.61270   0.61839   0.62726   0.63271
 Alpha virt. eigenvalues --    0.63863   0.64555   0.64854   0.65513   0.65942
 Alpha virt. eigenvalues --    0.66173   0.67215   0.68311   0.69264   0.69819
 Alpha virt. eigenvalues --    0.69909   0.71482   0.72049   0.72251   0.73224
 Alpha virt. eigenvalues --    0.74162   0.74622   0.75326   0.75683   0.76802
 Alpha virt. eigenvalues --    0.77804   0.78869   0.80623   0.81693   0.82284
 Alpha virt. eigenvalues --    0.83149   0.83325   0.84953   0.85546   0.85995
 Alpha virt. eigenvalues --    0.87538   0.88250   0.88655   0.89389   0.89769
 Alpha virt. eigenvalues --    0.90275   0.90914   0.91835   0.92785   0.93231
 Alpha virt. eigenvalues --    0.93591   0.94534   0.95752   0.96421   0.98392
 Alpha virt. eigenvalues --    1.00040   1.00533   1.03066   1.03665   1.04499
 Alpha virt. eigenvalues --    1.05751   1.06646   1.07106   1.07622   1.09362
 Alpha virt. eigenvalues --    1.10585   1.12341   1.14059   1.14745   1.16109
 Alpha virt. eigenvalues --    1.16592   1.17858   1.19389   1.20439   1.21773
 Alpha virt. eigenvalues --    1.23443   1.24173   1.26853   1.29625   1.32073
 Alpha virt. eigenvalues --    1.33415   1.34707   1.37270   1.39912   1.41171
 Alpha virt. eigenvalues --    1.41940   1.42595   1.44534   1.46239   1.47036
 Alpha virt. eigenvalues --    1.48525   1.48948   1.51487   1.53595   1.54502
 Alpha virt. eigenvalues --    1.55422   1.56681   1.58296   1.58978   1.59937
 Alpha virt. eigenvalues --    1.61521   1.61899   1.62452   1.63198   1.63514
 Alpha virt. eigenvalues --    1.64078   1.66341   1.66620   1.67984   1.69563
 Alpha virt. eigenvalues --    1.71153   1.73034   1.74026   1.75704   1.78808
 Alpha virt. eigenvalues --    1.79344   1.80220   1.82344   1.83808   1.85652
 Alpha virt. eigenvalues --    1.87057   1.88252   1.89459   1.89692   1.90886
 Alpha virt. eigenvalues --    1.92597   1.93245   1.94409   1.95482   1.96911
 Alpha virt. eigenvalues --    1.98293   1.98778   2.01097   2.01659   2.03261
 Alpha virt. eigenvalues --    2.06094   2.06977   2.08541   2.09917   2.11204
 Alpha virt. eigenvalues --    2.13079   2.15026   2.15767   2.16649   2.17196
 Alpha virt. eigenvalues --    2.18297   2.18863   2.20705   2.22035   2.24911
 Alpha virt. eigenvalues --    2.26287   2.27756   2.29157   2.31620   2.33341
 Alpha virt. eigenvalues --    2.34837   2.35665   2.37734   2.40863   2.42232
 Alpha virt. eigenvalues --    2.44127   2.44647   2.47837   2.49252   2.53946
 Alpha virt. eigenvalues --    2.54121   2.57983   2.60694   2.62413   2.63424
 Alpha virt. eigenvalues --    2.66629   2.72613   2.74824   2.78868   2.81206
 Alpha virt. eigenvalues --    2.83806   2.85657   2.87919   2.88737   2.89897
 Alpha virt. eigenvalues --    2.92508   2.94131   3.01833   3.03310   3.04929
 Alpha virt. eigenvalues --    3.10358   3.12668   3.13590   3.18636   3.20264
 Alpha virt. eigenvalues --    3.25915   3.29657   3.32738   3.35507   3.43259
 Alpha virt. eigenvalues --    3.48637   3.61707   3.70876   3.72303   3.76743
 Alpha virt. eigenvalues --    3.83566   3.84922   3.85498   3.93990   3.99361
 Alpha virt. eigenvalues --    4.00201   4.07855   4.10749   4.14433   4.19070
 Alpha virt. eigenvalues --    4.36777   4.53225
          Condensed to atoms (all electrons):
 Mulliken charges:
               1
     1  C    0.639895
     2  C    0.691521
     3  C    0.625085
     4  C    0.570550
     5  C    0.098991
     6  C    0.906863
     7  C    0.517434
     8  C    0.889993
     9  C    0.414791
    10  N   -0.680204
    11  O   -0.816838
    12  O   -0.917925
    13  H   -0.308268
    14  H   -0.427374
    15  H   -0.337597
    16  H   -0.404254
    17  H   -0.506047
    18  H   -0.453496
    19  H   -0.503119
 Sum of Mulliken charges =  -0.00000
 Mulliken charges with hydrogens summed into heavy atoms:
               1
     1  C    0.331627
     2  C    0.264147
     3  C    0.287487
     4  C    0.570550
     5  C   -0.305263
     6  C    0.400816
     7  C    0.063938
     8  C    0.386874
     9  C    0.414791
    10  N   -0.680204
    11  O   -0.816838
    12  O   -0.917925
 Electronic spatial extent (au):  <R**2>=           1937.2030
 Charge=             -0.0000 electrons
 Dipole moment (field-independent basis, Debye):
    X=              0.6860    Y=             -4.2839    Z=              0.2604  Tot=              4.3463
 Unable to Open any file for archive entry.
 1\1\GINC-SE231\Stability\RHF\Aug-CC-pVDZ\C9H7N1O2\OHZDE\05-Apr-2025\0\
 \#t hf aug-cc-pvdz symm=none int=(grid=ultrafine) guess=(read,tcheck) 
 stable=(opt,rrhf)\\title\\0,1\C,0,-3.194575,-0.313665,0.532954\C,0,-1.
 888732,-0.508814,1.083438\C,0,-3.009799,0.096865,-0.744869\C,0,-1.0193
 11,-0.203012,0.09158\C,0,3.135362,-0.257975,-0.067413\C,0,2.506179,0.9
 37102,0.061393\C,0,2.396422,-1.469775,-0.153237\C,0,1.044926,-1.406409
 ,-0.107584\C,0,1.064931,1.048883,0.123453\N,0,0.385002,-0.209485,0.027
 326\O,0,0.429863,2.079331,0.252424\O,0,-1.682395,0.164204,-1.036752\H,
 0,-4.138874,-0.452415,1.029472\H,0,-1.63173,-0.81226,2.08294\H,0,-3.67
 8984,0.370087,-1.539794\H,0,4.216627,-0.293566,-0.105985\H,0,3.049817,
 1.867462,0.131301\H,0,2.886862,-2.424324,-0.258784\H,0,0.409095,-2.276
 074,-0.174091\\Version=ES64L-G16RevC.01\HF=-549.0943919\RMSD=6.351e-09
 \Dipole=0.2698833,-1.6854242,0.1024612\Quadrupole=10.1112175,-7.250847
 1,-2.8603704,-0.671421,-0.4528729,-1.5070276\PG=Unknown\\@
 The archive entry for this job was punched.


 I HAVE NOT FAILED, I HAVE ONLY DISCOVERED 10,000
 WAYS THAT DIDN'T WORK.  -- THOMAS A. EDISON
 Job cpu time:       0 days  0 hours 34 minutes 30.5 seconds.
 Elapsed time:       0 days  0 hours  2 minutes 24.1 seconds.
 File lengths (MBytes):  RWF=    518 Int=      0 D2E=      0 Chk=     15 Scr=      1
 Normal termination of Gaussian 16 at Sat Apr  5 22:22:50 2025.
 Initial command:
 /arc/software/Gaussian/g16.c01/l1.exe "/tmp/slurm/4814551/Gau-373097.inp" -scrdir="/tmp/slurm/4814551/"
 Entering Link 1 = /arc/software/Gaussian/g16.c01/l1.exe PID=    374158.
  
 Copyright (c) 1988-2019, Gaussian, Inc.  All Rights Reserved.
  
 This is part of the Gaussian(R) 16 program.  It is based on
 the Gaussian(R) 09 system (copyright 2009, Gaussian, Inc.),
 the Gaussian(R) 03 system (copyright 2003, Gaussian, Inc.),
 the Gaussian(R) 98 system (copyright 1998, Gaussian, Inc.),
 the Gaussian(R) 94 system (copyright 1995, Gaussian, Inc.),
 the Gaussian 92(TM) system (copyright 1992, Gaussian, Inc.),
 the Gaussian 90(TM) system (copyright 1990, Gaussian, Inc.),
 the Gaussian 88(TM) system (copyright 1988, Gaussian, Inc.),
 the Gaussian 86(TM) system (copyright 1986, Carnegie Mellon
 University), and the Gaussian 82(TM) system (copyright 1983,
 Carnegie Mellon University). Gaussian is a federally registered
 trademark of Gaussian, Inc.
  
 This software contains proprietary and confidential information,
 including trade secrets, belonging to Gaussian, Inc.
  
 This software is provided under written license and may be
 used, copied, transmitted, or stored only in accord with that
 written license.
  
 The following legend is applicable only to US Government
 contracts under FAR:
  
                    RESTRICTED RIGHTS LEGEND
  
 Use, reproduction and disclosure by the US Government is
 subject to restrictions as set forth in subparagraphs (a)
 and (c) of the Commercial Computer Software - Restricted
 Rights clause in FAR 52.227-19.
  
 Gaussian, Inc.
 340 Quinnipiac St., Bldg. 40, Wallingford CT 06492
  
  
 ---------------------------------------------------------------
 Warning -- This program may not be used in any manner that
 competes with the business of Gaussian, Inc. or will provide
 assistance to any competitor of Gaussian, Inc.  The licensee
 of this program is prohibited from giving any competitor of
 Gaussian, Inc. access to this program.  By using this program,
 the user acknowledges that Gaussian, Inc. is engaged in the
 business of creating and licensing software in the field of
 computational chemistry and represents and warrants to the
 licensee that it is not a competitor of Gaussian, Inc. and that
 it will not use this program in any manner prohibited above.
 ---------------------------------------------------------------
  

 Cite this work as:
 Gaussian 16, Revision C.01,
 M. J. Frisch, G. W. Trucks, H. B. Schlegel, G. E. Scuseria, 
 M. A. Robb, J. R. Cheeseman, G. Scalmani, V. Barone, 
 G. A. Petersson, H. Nakatsuji, X. Li, M. Caricato, A. V. Marenich, 
 J. Bloino, B. G. Janesko, R. Gomperts, B. Mennucci, H. P. Hratchian, 
 J. V. Ortiz, A. F. Izmaylov, J. L. Sonnenberg, D. Williams-Young, 
 F. Ding, F. Lipparini, F. Egidi, J. Goings, B. Peng, A. Petrone, 
 T. Henderson, D. Ranasinghe, V. G. Zakrzewski, J. Gao, N. Rega, 
 G. Zheng, W. Liang, M. Hada, M. Ehara, K. Toyota, R. Fukuda, 
 J. Hasegawa, M. Ishida, T. Nakajima, Y. Honda, O. Kitao, H. Nakai, 
 T. Vreven, K. Throssell, J. A. Montgomery, Jr., J. E. Peralta, 
 F. Ogliaro, M. J. Bearpark, J. J. Heyd, E. N. Brothers, K. N. Kudin, 
 V. N. Staroverov, T. A. Keith, R. Kobayashi, J. Normand, 
 K. Raghavachari, A. P. Rendell, J. C. Burant, S. S. Iyengar, 
 J. Tomasi, M. Cossi, J. M. Millam, M. Klene, C. Adamo, R. Cammi, 
 J. W. Ochterski, R. L. Martin, K. Morokuma, O. Farkas, 
 J. B. Foresman, and D. J. Fox, Gaussian, Inc., Wallingford CT, 2019.
 
 ******************************************
 Gaussian 16:  ES64L-G16RevC.01  3-Jul-2019
                 5-Apr-2025 
 ******************************************
 %nprocs=16
 Will use up to   16 processors via shared memory.
 %mem=30GB
 %chk=1-2-furylpyridin-2-one.chk
 ----------------------------------------------------------------------
 #t hf aug-cc-pvdz iop(5/13=1,5/36=2,99/5=2) pseudo=read geom=check gue
 ss=(read,tcheck) scf=(maxcycle=1)
 ----------------------------------------------------------------------
 -----
 title
 -----
 Structure from the checkpoint file:  "1-2-furylpyridin-2-one.chk"
 Charge =  0 Multiplicity = 1
 Z-Matrix found in chk file.
 C,0,-3.194575,-0.313665,0.532954
 C,0,-1.888732,-0.508814,1.083438
 C,0,-3.009799,0.096865,-0.744869
 C,0,-1.019311,-0.203012,0.09158
 C,0,3.135362,-0.257975,-0.067413
 C,0,2.506179,0.937102,0.061393
 C,0,2.396422,-1.469775,-0.153237
 C,0,1.044926,-1.406409,-0.107584
 C,0,1.064931,1.048883,0.123453
 N,0,0.385002,-0.209485,0.027326
 O,0,0.429863,2.079331,0.252424
 O,0,-1.682395,0.164204,-1.036752
 H,0,-4.138874,-0.452415,1.029472
 H,0,-1.63173,-0.81226,2.08294
 H,0,-3.678984,0.370087,-1.539794
 H,0,4.216627,-0.293566,-0.105985
 H,0,3.049817,1.867462,0.131301
 H,0,2.886862,-2.424324,-0.258784
 H,0,0.409095,-2.276074,-0.174091
 Recover connectivity data from disk.
                    Distance matrix (angstroms):
                    1          2          3          4          5
     1  C    0.000000
     2  C    1.430504   0.000000
     3  C    1.354809   2.228530   0.000000
     4  C    2.222348   1.353953   2.179820   0.000000
     5  C    6.358588   5.160320   6.192565   4.158077   0.000000
     6  C    5.855372   4.738195   5.637559   3.705381   1.356713
     7  C    5.750365   4.562385   5.659648   3.651281   1.421920
     8  C    4.424675   3.290982   4.371128   2.397687   2.385464
     9  C    4.490837   3.474495   4.273610   2.431527   2.455808
    10  N    3.616612   2.524844   3.494969   1.405797   2.752418
    11  O    4.352204   3.572809   4.093414   2.708333   3.589571
    12  O    2.231373   2.233995   1.360783   1.359287   4.932407
    13  H    1.075864   2.251496   2.173662   3.267035   7.359040
    14  H    2.256887   1.075702   3.274460   2.170658   5.258937
    15  H    2.235722   3.295272   1.074414   3.172331   6.999834
    16  H    7.438720   6.223863   7.265111   5.240446   1.082538
    17  H    6.626543   5.562600   6.373510   4.565769   2.136419
    18  H    6.485800   5.317616   6.431429   4.507235   2.188937
    19  H    4.163820   3.159841   4.200650   2.531504   3.393617
                    6          7          8          9         10
     6  C    0.000000
     7  C    2.418919   0.000000
     8  C    2.766922   1.353751   0.000000
     9  C    1.446908   2.862353   2.466219   0.000000
    10  N    2.411476   2.380492   1.373436   1.433539   0.000000
    11  O    2.377450   4.077753   3.557849   1.217279   2.300296
    12  O    4.398573   4.481878   3.281533   3.110713   2.355002
    13  H    6.857453   6.718922   5.392104   5.491298   4.639910
    14  H    4.926379   4.653904   3.509401   3.817777   2.942124
    15  H    6.414168   6.497553   5.246188   5.072660   4.394059
    16  H    2.113810   2.167682   3.361266   3.433366   3.834865
    17  H    1.079814   3.412483   3.846412   2.147069   3.380201
    18  H    3.398031   1.078348   2.109915   3.940648   3.353606
    19  H    3.844179   2.144766   1.079362   3.402057   2.076521
                   11         12         13         14         15
    11  O    0.000000
    12  O    3.129109   0.000000
    13  H    5.280805   3.268607   0.000000
    14  H    3.995279   3.269331   2.743183   0.000000
    15  H    4.797519   2.069253   2.736629   4.325898   0.000000
    16  H    4.483155   5.989519   8.433795   6.266077   8.052137
    17  H    2.631296   5.163261   7.606959   5.736435   7.093057
    18  H    5.155685   5.308844   7.410060   5.338548   7.249831
    19  H    4.376288   3.327683   5.045624   3.376671   5.057638
                   16         17         18         19
    16  H    0.000000
    17  H    2.467345   0.000000
    18  H    2.516297   4.312557   0.000000
    19  H    4.293283   4.922963   2.483643   0.000000
 Framework group  C1[X(C9H7NO2)]
 Deg. of freedom    51
                         Standard orientation:                         
 ---------------------------------------------------------------------
 Center     Atomic      Atomic             Coordinates (Angstroms)
 Number     Number       Type             X           Y           Z
 ---------------------------------------------------------------------
      1          6           0       -3.194575   -0.313665    0.532954
      2          6           0       -1.888732   -0.508814    1.083438
      3          6           0       -3.009799    0.096865   -0.744869
      4          6           0       -1.019311   -0.203012    0.091580
      5          6           0        3.135362   -0.257975   -0.067413
      6          6           0        2.506179    0.937102    0.061393
      7          6           0        2.396422   -1.469775   -0.153237
      8          6           0        1.044926   -1.406409   -0.107584
      9          6           0        1.064931    1.048883    0.123453
     10          7           0        0.385002   -0.209485    0.027326
     11          8           0        0.429863    2.079331    0.252424
     12          8           0       -1.682395    0.164204   -1.036752
     13          1           0       -4.138874   -0.452415    1.029472
     14          1           0       -1.631730   -0.812260    2.082940
     15          1           0       -3.678984    0.370087   -1.539794
     16          1           0        4.216627   -0.293566   -0.105985
     17          1           0        3.049817    1.867462    0.131301
     18          1           0        2.886862   -2.424324   -0.258784
     19          1           0        0.409095   -2.276074   -0.174091
 ---------------------------------------------------------------------
 Rotational constants (GHZ):           2.3390711           0.6772077           0.5875574
 ======================================================================================================
                                       Pseudopotential Parameters
 ======================================================================================================
  Center     Atomic      Valence      Angular      Power
  Number     Number     Electrons     Momentum     of R      Exponent        Coefficient   SO-Coeffient
 ======================================================================================================
    1          6            6
                                      G and up 
                                                     0        0.0000010       -0.00007288    0.00000000
                                                     2        0.1200000        0.10466671    0.00000000
                                                     2        0.1400000       -0.65716157    0.00000000
                                                     2        0.1600000        1.18890794    0.00000000
                                                     2        0.2000000       -1.25772850    0.00000000
                                                     2        0.2600000        1.01188378    0.00000000
                                                     2        0.4000000       -1.09380874    0.00000000
                                                     2        0.5000000        0.96944888    0.00000000
                                                     2        1.0000000       -0.79256938    0.00000000
                                                     2        3.0000000        1.06443276    0.00000000
                                      S - G
                                                     0        0.0000010       -0.00635295    0.00000000
                                                     2        0.1200000        0.16918955    0.00000000
                                                     2        0.1600000       -0.38862576    0.00000000
                                                     2        0.2800000        0.25638263    0.00000000
                                                     2        0.5000000        0.29628419    0.00000000
                                                     2        0.9000000       -0.28791512    0.00000000
                                      P - G
                                                     0        0.0000010       -0.04756931    0.00000000
                                                     2        0.1200000        0.28430375    0.00000000
                                                     2        0.1600000       -0.69640032    0.00000000
                                                     2        0.2600000        1.13005668    0.00000000
                                                     2        0.4000000       -1.31433324    0.00000000
                                                     2        0.7000000        0.91526469    0.00000000
                                      D - G
                                                     0        0.0000010       -0.11496411    0.00000000
                                                     2        0.1200000        0.16620776    0.00000000
                                                     2        0.1800000       -0.30959819    0.00000000
                                                     2        0.3000000        0.16621458    0.00000000
                                                     2        0.6000000        0.27350556    0.00000000
                                      F - G
                                                     0        0.0000010        0.12037550    0.00000000
                                                     2        0.1200000       -0.48737077    0.00000000
                                                     2        0.1400000        0.58315350    0.00000000
                                                     2        0.3000000        0.00005188    0.00000000
                                                     2        0.5000000       -1.16063549    0.00000000
                                                     2        0.8000000        2.09053308    0.00000000
    2          6            6
                                      G and up 
                                                     0        0.0000010       -0.00007288    0.00000000
                                                     2        0.1200000        0.10466671    0.00000000
                                                     2        0.1400000       -0.65716157    0.00000000
                                                     2        0.1600000        1.18890794    0.00000000
                                                     2        0.2000000       -1.25772850    0.00000000
                                                     2        0.2600000        1.01188378    0.00000000
                                                     2        0.4000000       -1.09380874    0.00000000
                                                     2        0.5000000        0.96944888    0.00000000
                                                     2        1.0000000       -0.79256938    0.00000000
                                                     2        3.0000000        1.06443276    0.00000000
                                      S - G
                                                     0        0.0000010       -0.00635295    0.00000000
                                                     2        0.1200000        0.16918955    0.00000000
                                                     2        0.1600000       -0.38862576    0.00000000
                                                     2        0.2800000        0.25638263    0.00000000
                                                     2        0.5000000        0.29628419    0.00000000
                                                     2        0.9000000       -0.28791512    0.00000000
                                      P - G
                                                     0        0.0000010       -0.04756931    0.00000000
                                                     2        0.1200000        0.28430375    0.00000000
                                                     2        0.1600000       -0.69640032    0.00000000
                                                     2        0.2600000        1.13005668    0.00000000
                                                     2        0.4000000       -1.31433324    0.00000000
                                                     2        0.7000000        0.91526469    0.00000000
                                      D - G
                                                     0        0.0000010       -0.11496411    0.00000000
                                                     2        0.1200000        0.16620776    0.00000000
                                                     2        0.1800000       -0.30959819    0.00000000
                                                     2        0.3000000        0.16621458    0.00000000
                                                     2        0.6000000        0.27350556    0.00000000
                                      F - G
                                                     0        0.0000010        0.12037550    0.00000000
                                                     2        0.1200000       -0.48737077    0.00000000
                                                     2        0.1400000        0.58315350    0.00000000
                                                     2        0.3000000        0.00005188    0.00000000
                                                     2        0.5000000       -1.16063549    0.00000000
                                                     2        0.8000000        2.09053308    0.00000000
    3          6            6
                                      G and up 
                                                     0        0.0000010       -0.00007288    0.00000000
                                                     2        0.1200000        0.10466671    0.00000000
                                                     2        0.1400000       -0.65716157    0.00000000
                                                     2        0.1600000        1.18890794    0.00000000
                                                     2        0.2000000       -1.25772850    0.00000000
                                                     2        0.2600000        1.01188378    0.00000000
                                                     2        0.4000000       -1.09380874    0.00000000
                                                     2        0.5000000        0.96944888    0.00000000
                                                     2        1.0000000       -0.79256938    0.00000000
                                                     2        3.0000000        1.06443276    0.00000000
                                      S - G
                                                     0        0.0000010       -0.00635295    0.00000000
                                                     2        0.1200000        0.16918955    0.00000000
                                                     2        0.1600000       -0.38862576    0.00000000
                                                     2        0.2800000        0.25638263    0.00000000
                                                     2        0.5000000        0.29628419    0.00000000
                                                     2        0.9000000       -0.28791512    0.00000000
                                      P - G
                                                     0        0.0000010       -0.04756931    0.00000000
                                                     2        0.1200000        0.28430375    0.00000000
                                                     2        0.1600000       -0.69640032    0.00000000
                                                     2        0.2600000        1.13005668    0.00000000
                                                     2        0.4000000       -1.31433324    0.00000000
                                                     2        0.7000000        0.91526469    0.00000000
                                      D - G
                                                     0        0.0000010       -0.11496411    0.00000000
                                                     2        0.1200000        0.16620776    0.00000000
                                                     2        0.1800000       -0.30959819    0.00000000
                                                     2        0.3000000        0.16621458    0.00000000
                                                     2        0.6000000        0.27350556    0.00000000
                                      F - G
                                                     0        0.0000010        0.12037550    0.00000000
                                                     2        0.1200000       -0.48737077    0.00000000
                                                     2        0.1400000        0.58315350    0.00000000
                                                     2        0.3000000        0.00005188    0.00000000
                                                     2        0.5000000       -1.16063549    0.00000000
                                                     2        0.8000000        2.09053308    0.00000000
    4          6            6
                                      G and up 
                                                     0        0.0000010       -0.00007288    0.00000000
                                                     2        0.1200000        0.10466671    0.00000000
                                                     2        0.1400000       -0.65716157    0.00000000
                                                     2        0.1600000        1.18890794    0.00000000
                                                     2        0.2000000       -1.25772850    0.00000000
                                                     2        0.2600000        1.01188378    0.00000000
                                                     2        0.4000000       -1.09380874    0.00000000
                                                     2        0.5000000        0.96944888    0.00000000
                                                     2        1.0000000       -0.79256938    0.00000000
                                                     2        3.0000000        1.06443276    0.00000000
                                      S - G
                                                     0        0.0000010       -0.00635295    0.00000000
                                                     2        0.1200000        0.16918955    0.00000000
                                                     2        0.1600000       -0.38862576    0.00000000
                                                     2        0.2800000        0.25638263    0.00000000
                                                     2        0.5000000        0.29628419    0.00000000
                                                     2        0.9000000       -0.28791512    0.00000000
                                      P - G
                                                     0        0.0000010       -0.04756931    0.00000000
                                                     2        0.1200000        0.28430375    0.00000000
                                                     2        0.1600000       -0.69640032    0.00000000
                                                     2        0.2600000        1.13005668    0.00000000
                                                     2        0.4000000       -1.31433324    0.00000000
                                                     2        0.7000000        0.91526469    0.00000000
                                      D - G
                                                     0        0.0000010       -0.11496411    0.00000000
                                                     2        0.1200000        0.16620776    0.00000000
                                                     2        0.1800000       -0.30959819    0.00000000
                                                     2        0.3000000        0.16621458    0.00000000
                                                     2        0.6000000        0.27350556    0.00000000
                                      F - G
                                                     0        0.0000010        0.12037550    0.00000000
                                                     2        0.1200000       -0.48737077    0.00000000
                                                     2        0.1400000        0.58315350    0.00000000
                                                     2        0.3000000        0.00005188    0.00000000
                                                     2        0.5000000       -1.16063549    0.00000000
                                                     2        0.8000000        2.09053308    0.00000000
    5          6            6
                                      G and up 
                                                     0        0.0000010       -0.00007288    0.00000000
                                                     2        0.1200000        0.10466671    0.00000000
                                                     2        0.1400000       -0.65716157    0.00000000
                                                     2        0.1600000        1.18890794    0.00000000
                                                     2        0.2000000       -1.25772850    0.00000000
                                                     2        0.2600000        1.01188378    0.00000000
                                                     2        0.4000000       -1.09380874    0.00000000
                                                     2        0.5000000        0.96944888    0.00000000
                                                     2        1.0000000       -0.79256938    0.00000000
                                                     2        3.0000000        1.06443276    0.00000000
                                      S - G
                                                     0        0.0000010       -0.00635295    0.00000000
                                                     2        0.1200000        0.16918955    0.00000000
                                                     2        0.1600000       -0.38862576    0.00000000
                                                     2        0.2800000        0.25638263    0.00000000
                                                     2        0.5000000        0.29628419    0.00000000
                                                     2        0.9000000       -0.28791512    0.00000000
                                      P - G
                                                     0        0.0000010       -0.04756931    0.00000000
                                                     2        0.1200000        0.28430375    0.00000000
                                                     2        0.1600000       -0.69640032    0.00000000
                                                     2        0.2600000        1.13005668    0.00000000
                                                     2        0.4000000       -1.31433324    0.00000000
                                                     2        0.7000000        0.91526469    0.00000000
                                      D - G
                                                     0        0.0000010       -0.11496411    0.00000000
                                                     2        0.1200000        0.16620776    0.00000000
                                                     2        0.1800000       -0.30959819    0.00000000
                                                     2        0.3000000        0.16621458    0.00000000
                                                     2        0.6000000        0.27350556    0.00000000
                                      F - G
                                                     0        0.0000010        0.12037550    0.00000000
                                                     2        0.1200000       -0.48737077    0.00000000
                                                     2        0.1400000        0.58315350    0.00000000
                                                     2        0.3000000        0.00005188    0.00000000
                                                     2        0.5000000       -1.16063549    0.00000000
                                                     2        0.8000000        2.09053308    0.00000000
    6          6            6
                                      G and up 
                                                     0        0.0000010       -0.00007288    0.00000000
                                                     2        0.1200000        0.10466671    0.00000000
                                                     2        0.1400000       -0.65716157    0.00000000
                                                     2        0.1600000        1.18890794    0.00000000
                                                     2        0.2000000       -1.25772850    0.00000000
                                                     2        0.2600000        1.01188378    0.00000000
                                                     2        0.4000000       -1.09380874    0.00000000
                                                     2        0.5000000        0.96944888    0.00000000
                                                     2        1.0000000       -0.79256938    0.00000000
                                                     2        3.0000000        1.06443276    0.00000000
                                      S - G
                                                     0        0.0000010       -0.00635295    0.00000000
                                                     2        0.1200000        0.16918955    0.00000000
                                                     2        0.1600000       -0.38862576    0.00000000
                                                     2        0.2800000        0.25638263    0.00000000
                                                     2        0.5000000        0.29628419    0.00000000
                                                     2        0.9000000       -0.28791512    0.00000000
                                      P - G
                                                     0        0.0000010       -0.04756931    0.00000000
                                                     2        0.1200000        0.28430375    0.00000000
                                                     2        0.1600000       -0.69640032    0.00000000
                                                     2        0.2600000        1.13005668    0.00000000
                                                     2        0.4000000       -1.31433324    0.00000000
                                                     2        0.7000000        0.91526469    0.00000000
                                      D - G
                                                     0        0.0000010       -0.11496411    0.00000000
                                                     2        0.1200000        0.16620776    0.00000000
                                                     2        0.1800000       -0.30959819    0.00000000
                                                     2        0.3000000        0.16621458    0.00000000
                                                     2        0.6000000        0.27350556    0.00000000
                                      F - G
                                                     0        0.0000010        0.12037550    0.00000000
                                                     2        0.1200000       -0.48737077    0.00000000
                                                     2        0.1400000        0.58315350    0.00000000
                                                     2        0.3000000        0.00005188    0.00000000
                                                     2        0.5000000       -1.16063549    0.00000000
                                                     2        0.8000000        2.09053308    0.00000000
    7          6            6
                                      G and up 
                                                     0        0.0000010       -0.00007288    0.00000000
                                                     2        0.1200000        0.10466671    0.00000000
                                                     2        0.1400000       -0.65716157    0.00000000
                                                     2        0.1600000        1.18890794    0.00000000
                                                     2        0.2000000       -1.25772850    0.00000000
                                                     2        0.2600000        1.01188378    0.00000000
                                                     2        0.4000000       -1.09380874    0.00000000
                                                     2        0.5000000        0.96944888    0.00000000
                                                     2        1.0000000       -0.79256938    0.00000000
                                                     2        3.0000000        1.06443276    0.00000000
                                      S - G
                                                     0        0.0000010       -0.00635295    0.00000000
                                                     2        0.1200000        0.16918955    0.00000000
                                                     2        0.1600000       -0.38862576    0.00000000
                                                     2        0.2800000        0.25638263    0.00000000
                                                     2        0.5000000        0.29628419    0.00000000
                                                     2        0.9000000       -0.28791512    0.00000000
                                      P - G
                                                     0        0.0000010       -0.04756931    0.00000000
                                                     2        0.1200000        0.28430375    0.00000000
                                                     2        0.1600000       -0.69640032    0.00000000
                                                     2        0.2600000        1.13005668    0.00000000
                                                     2        0.4000000       -1.31433324    0.00000000
                                                     2        0.7000000        0.91526469    0.00000000
                                      D - G
                                                     0        0.0000010       -0.11496411    0.00000000
                                                     2        0.1200000        0.16620776    0.00000000
                                                     2        0.1800000       -0.30959819    0.00000000
                                                     2        0.3000000        0.16621458    0.00000000
                                                     2        0.6000000        0.27350556    0.00000000
                                      F - G
                                                     0        0.0000010        0.12037550    0.00000000
                                                     2        0.1200000       -0.48737077    0.00000000
                                                     2        0.1400000        0.58315350    0.00000000
                                                     2        0.3000000        0.00005188    0.00000000
                                                     2        0.5000000       -1.16063549    0.00000000
                                                     2        0.8000000        2.09053308    0.00000000
    8          6            6
                                      G and up 
                                                     0        0.0000010       -0.00007288    0.00000000
                                                     2        0.1200000        0.10466671    0.00000000
                                                     2        0.1400000       -0.65716157    0.00000000
                                                     2        0.1600000        1.18890794    0.00000000
                                                     2        0.2000000       -1.25772850    0.00000000
                                                     2        0.2600000        1.01188378    0.00000000
                                                     2        0.4000000       -1.09380874    0.00000000
                                                     2        0.5000000        0.96944888    0.00000000
                                                     2        1.0000000       -0.79256938    0.00000000
                                                     2        3.0000000        1.06443276    0.00000000
                                      S - G
                                                     0        0.0000010       -0.00635295    0.00000000
                                                     2        0.1200000        0.16918955    0.00000000
                                                     2        0.1600000       -0.38862576    0.00000000
                                                     2        0.2800000        0.25638263    0.00000000
                                                     2        0.5000000        0.29628419    0.00000000
                                                     2        0.9000000       -0.28791512    0.00000000
                                      P - G
                                                     0        0.0000010       -0.04756931    0.00000000
                                                     2        0.1200000        0.28430375    0.00000000
                                                     2        0.1600000       -0.69640032    0.00000000
                                                     2        0.2600000        1.13005668    0.00000000
                                                     2        0.4000000       -1.31433324    0.00000000
                                                     2        0.7000000        0.91526469    0.00000000
                                      D - G
                                                     0        0.0000010       -0.11496411    0.00000000
                                                     2        0.1200000        0.16620776    0.00000000
                                                     2        0.1800000       -0.30959819    0.00000000
                                                     2        0.3000000        0.16621458    0.00000000
                                                     2        0.6000000        0.27350556    0.00000000
                                      F - G
                                                     0        0.0000010        0.12037550    0.00000000
                                                     2        0.1200000       -0.48737077    0.00000000
                                                     2        0.1400000        0.58315350    0.00000000
                                                     2        0.3000000        0.00005188    0.00000000
                                                     2        0.5000000       -1.16063549    0.00000000
                                                     2        0.8000000        2.09053308    0.00000000
    9          6            6
                                      G and up 
                                                     0        0.0000010       -0.00007288    0.00000000
                                                     2        0.1200000        0.10466671    0.00000000
                                                     2        0.1400000       -0.65716157    0.00000000
                                                     2        0.1600000        1.18890794    0.00000000
                                                     2        0.2000000       -1.25772850    0.00000000
                                                     2        0.2600000        1.01188378    0.00000000
                                                     2        0.4000000       -1.09380874    0.00000000
                                                     2        0.5000000        0.96944888    0.00000000
                                                     2        1.0000000       -0.79256938    0.00000000
                                                     2        3.0000000        1.06443276    0.00000000
                                      S - G
                                                     0        0.0000010       -0.00635295    0.00000000
                                                     2        0.1200000        0.16918955    0.00000000
                                                     2        0.1600000       -0.38862576    0.00000000
                                                     2        0.2800000        0.25638263    0.00000000
                                                     2        0.5000000        0.29628419    0.00000000
                                                     2        0.9000000       -0.28791512    0.00000000
                                      P - G
                                                     0        0.0000010       -0.04756931    0.00000000
                                                     2        0.1200000        0.28430375    0.00000000
                                                     2        0.1600000       -0.69640032    0.00000000
                                                     2        0.2600000        1.13005668    0.00000000
                                                     2        0.4000000       -1.31433324    0.00000000
                                                     2        0.7000000        0.91526469    0.00000000
                                      D - G
                                                     0        0.0000010       -0.11496411    0.00000000
                                                     2        0.1200000        0.16620776    0.00000000
                                                     2        0.1800000       -0.30959819    0.00000000
                                                     2        0.3000000        0.16621458    0.00000000
                                                     2        0.6000000        0.27350556    0.00000000
                                      F - G
                                                     0        0.0000010        0.12037550    0.00000000
                                                     2        0.1200000       -0.48737077    0.00000000
                                                     2        0.1400000        0.58315350    0.00000000
                                                     2        0.3000000        0.00005188    0.00000000
                                                     2        0.5000000       -1.16063549    0.00000000
                                                     2        0.8000000        2.09053308    0.00000000
   10          7            7
                                      G and up 
                                                     0        0.0000010       -0.00039818    0.00000000
                                                     2        0.1200000       -0.37616123    0.00000000
                                                     2        0.1400000        2.13837358    0.00000000
                                                     2        0.1600000       -3.36562035    0.00000000
                                                     2        0.2000000        2.53463289    0.00000000
                                                     2        0.3000000       -1.98118833    0.00000000
                                                     2        0.5000000        4.06642919    0.00000000
                                                     2        0.7000000       -6.15327959    0.00000000
                                                     2        1.2000000       10.22492851    0.00000000
                                                     2        2.0000000      -14.94707511    0.00000000
                                      S - G
                                                     0        0.0000010        0.02721443    0.00000000
                                                     2        0.1200000       -0.60186009    0.00000000
                                                     2        0.1600000        1.10088134    0.00000000
                                                     2        0.2600000       -0.59857981    0.00000000
                                                     2        0.6000000        0.21288222    0.00000000
                                                     2        3.0000000        5.09059205    0.00000000
                                      P - G
                                                     0        0.0000010        0.40558062    0.00000000
                                                     2        0.1200000        0.81809854    0.00000000
                                                     2        0.1600000       -2.44952728    0.00000000
                                                     2        0.2800000        4.16638749    0.00000000
                                                     2        0.5000000       -6.02944147    0.00000000
                                                     2        1.1000000        5.78262914    0.00000000
                                      D - G
                                                     0        0.0000010       -0.62770267    0.00000000
                                                     2        0.1600000        0.91438653    0.00000000
                                                     2        0.2600000       -2.00568466    0.00000000
                                                     2        0.5000000        3.30798839    0.00000000
                                                     2        1.1000000       -3.91526108    0.00000000
                                      F - G
                                                     0        0.0000010        0.29726344    0.00000000
                                                     2        0.1200000       -0.41591527    0.00000000
                                                     2        0.1600000        0.51444439    0.00000000
                                                     2        0.4000000       -0.69401726    0.00000000
                                                     2        0.7000000        0.51478123    0.00000000
   11          8            8
                                      G and up 
                                                     0        0.0000010        0.00049668    0.00000000
                                                     2        0.1200000       -0.01803391    0.00000000
                                                     2        0.1400000        0.04014195    0.00000000
                                                     2        0.2000000       -0.02692147    0.00000000
                                                     2        0.2800000       -0.04241843    0.00000000
                                                     2        0.4000000        0.15412145    0.00000000
                                                     2        0.7000000       -0.40587006    0.00000000
                                                     2        1.1000000        1.75666647    0.00000000
                                      S - G
                                                     0        0.0000010       -0.01088195    0.00000000
                                                     2        0.1200000        0.09867335    0.00000000
                                                     2        0.2400000       -0.08484177    0.00000000
                                                     2        0.6000000       -1.39011554    0.00000000
                                                     2        2.5000000        1.36225910    0.00000000
                                      P - G
                                                     0        0.0000010        0.05874028    0.00000000
                                                     2        0.1200000       -0.11700340    0.00000000
                                                     2        0.1600000        0.08847775    0.00000000
                                                     2        0.3000000        0.04709907    0.00000000
                                                     2        1.2000000       -1.80388338    0.00000000
                                      D - G
                                                     0        0.0000010       -0.00541262    0.00000000
                                                     2        0.1200000       -0.26547906    0.00000000
                                                     2        0.1600000        1.04289661    0.00000000
                                                     2        0.2400000       -1.92800913    0.00000000
                                                     2        0.4000000        2.26691633    0.00000000
                                                     2        0.7000000       -1.97391482    0.00000000
                                      F - G
                                                     0        0.0000010       -0.02604870    0.00000000
                                                     2        0.1200000        0.37362552    0.00000000
                                                     2        0.1600000       -1.43526367    0.00000000
                                                     2        0.2200000        1.76778079    0.00000000
                                                     2        0.5000000       -1.90846303    0.00000000
   12          8            8
                                      G and up 
                                                     0        0.0000010        0.00049668    0.00000000
                                                     2        0.1200000       -0.01803391    0.00000000
                                                     2        0.1400000        0.04014195    0.00000000
                                                     2        0.2000000       -0.02692147    0.00000000
                                                     2        0.2800000       -0.04241843    0.00000000
                                                     2        0.4000000        0.15412145    0.00000000
                                                     2        0.7000000       -0.40587006    0.00000000
                                                     2        1.1000000        1.75666647    0.00000000
                                      S - G
                                                     0        0.0000010       -0.01088195    0.00000000
                                                     2        0.1200000        0.09867335    0.00000000
                                                     2        0.2400000       -0.08484177    0.00000000
                                                     2        0.6000000       -1.39011554    0.00000000
                                                     2        2.5000000        1.36225910    0.00000000
                                      P - G
                                                     0        0.0000010        0.05874028    0.00000000
                                                     2        0.1200000       -0.11700340    0.00000000
                                                     2        0.1600000        0.08847775    0.00000000
                                                     2        0.3000000        0.04709907    0.00000000
                                                     2        1.2000000       -1.80388338    0.00000000
                                      D - G
                                                     0        0.0000010       -0.00541262    0.00000000
                                                     2        0.1200000       -0.26547906    0.00000000
                                                     2        0.1600000        1.04289661    0.00000000
                                                     2        0.2400000       -1.92800913    0.00000000
                                                     2        0.4000000        2.26691633    0.00000000
                                                     2        0.7000000       -1.97391482    0.00000000
                                      F - G
                                                     0        0.0000010       -0.02604870    0.00000000
                                                     2        0.1200000        0.37362552    0.00000000
                                                     2        0.1600000       -1.43526367    0.00000000
                                                     2        0.2200000        1.76778079    0.00000000
                                                     2        0.5000000       -1.90846303    0.00000000
   13          1            1
                                      F and up 
                                                     0        0.0000010       -0.00007675    0.00000000
                                                     2        0.1200000        0.05352699    0.00000000
                                                     2        0.1400000       -0.25123645    0.00000000
                                                     2        0.1600000        0.32188106    0.00000000
                                                     2        0.2200000       -0.25206857    0.00000000
                                                     2        0.3000000        0.19290477    0.00000000
                                                     2        0.5000000       -0.10129770    0.00000000
                                                     2        0.9000000        0.00314995    0.00000000
[...]
                                                     2        0.9000000        0.00314995    0.00000000
                                                     2        1.5000000        0.18401192    0.00000000
                                      S - F
                                                     0        0.0000010        0.08065976    0.00000000
                                                     2        0.1200000       -0.09231673    0.00000000
                                                     2        0.1600000       -0.03278082    0.00000000
                                                     2        0.2800000        0.38423402    0.00000000
                                                     2        0.6000000       -1.09357590    0.00000000
                                                     2        1.1000000        1.53099489    0.00000000
                                                     2        3.0000000       -2.63300202    0.00000000
                                      P - F
                                                     0        0.0000010       -0.11638665    0.00000000
                                                     2        0.1200000        0.35468655    0.00000000
                                                     2        0.1600000       -0.59160923    0.00000000
                                                     2        0.3000000        0.49390547    0.00000000
                                                     2        0.6000000       -0.37949835    0.00000000
                                                     2        1.6000000        0.89304688    0.00000000
                                      D - F
                                                     0        0.0000010        0.05443663    0.00000000
                                                     2        0.1200000       -0.29679479    0.00000000
                                                     2        0.1400000        0.36849872    0.00000000
                                                     2        0.2400000        0.02793449    0.00000000
                                                     2        0.4000000       -0.46312857    0.00000000
                                                     2        0.7000000        0.97587598    0.00000000
                                                     2        1.5000000       -2.43431102    0.00000000
   18          1            1
                                      F and up 
                                                     0        0.0000010       -0.00007675    0.00000000
                                                     2        0.1200000        0.05352699    0.00000000
                                                     2        0.1400000       -0.25123645    0.00000000
                                                     2        0.1600000        0.32188106    0.00000000
                                                     2        0.2200000       -0.25206857    0.00000000
                                                     2        0.3000000        0.19290477    0.00000000
                                                     2        0.5000000       -0.10129770    0.00000000
                                                     2        0.9000000        0.00314995    0.00000000
                                                     2        1.5000000        0.18401192    0.00000000
                                      S - F
                                                     0        0.0000010        0.08065976    0.00000000
                                                     2        0.1200000       -0.09231673    0.00000000
                                                     2        0.1600000       -0.03278082    0.00000000
                                                     2        0.2800000        0.38423402    0.00000000
                                                     2        0.6000000       -1.09357590    0.00000000
                                                     2        1.1000000        1.53099489    0.00000000
                                                     2        3.0000000       -2.63300202    0.00000000
                                      P - F
                                                     0        0.0000010       -0.11638665    0.00000000
                                                     2        0.1200000        0.35468655    0.00000000
                                                     2        0.1600000       -0.59160923    0.00000000
                                                     2        0.3000000        0.49390547    0.00000000
                                                     2        0.6000000       -0.37949835    0.00000000
                                                     2        1.6000000        0.89304688    0.00000000
                                      D - F
                                                     0        0.0000010        0.05443663    0.00000000
                                                     2        0.1200000       -0.29679479    0.00000000
                                                     2        0.1400000        0.36849872    0.00000000
                                                     2        0.2400000        0.02793449    0.00000000
                                                     2        0.4000000       -0.46312857    0.00000000
                                                     2        0.7000000        0.97587598    0.00000000
                                                     2        1.5000000       -2.43431102    0.00000000
   19          1            1
                                      F and up 
                                                     0        0.0000010       -0.00007675    0.00000000
                                                     2        0.1200000        0.05352699    0.00000000
                                                     2        0.1400000       -0.25123645    0.00000000
                                                     2        0.1600000        0.32188106    0.00000000
                                                     2        0.2200000       -0.25206857    0.00000000
                                                     2        0.3000000        0.19290477    0.00000000
                                                     2        0.5000000       -0.10129770    0.00000000
                                                     2        0.9000000        0.00314995    0.00000000
                                                     2        1.5000000        0.18401192    0.00000000
                                      S - F
                                                     0        0.0000010        0.08065976    0.00000000
                                                     2        0.1200000       -0.09231673    0.00000000
                                                     2        0.1600000       -0.03278082    0.00000000
                                                     2        0.2800000        0.38423402    0.00000000
                                                     2        0.6000000       -1.09357590    0.00000000
                                                     2        1.1000000        1.53099489    0.00000000
                                                     2        3.0000000       -2.63300202    0.00000000
                                      P - F
                                                     0        0.0000010       -0.11638665    0.00000000
                                                     2        0.1200000        0.35468655    0.00000000
                                                     2        0.1600000       -0.59160923    0.00000000
                                                     2        0.3000000        0.49390547    0.00000000
                                                     2        0.6000000       -0.37949835    0.00000000
                                                     2        1.6000000        0.89304688    0.00000000
                                      D - F
                                                     0        0.0000010        0.05443663    0.00000000
                                                     2        0.1200000       -0.29679479    0.00000000
                                                     2        0.1400000        0.36849872    0.00000000
                                                     2        0.2400000        0.02793449    0.00000000
                                                     2        0.4000000       -0.46312857    0.00000000
                                                     2        0.7000000        0.97587598    0.00000000
                                                     2        1.5000000       -2.43431102    0.00000000
 ======================================================================================================
   339 basis functions,   593 primitive gaussians,   363 cartesian basis functions
    42 alpha electrons       42 beta electrons
       nuclear repulsion energy       657.3401390619 Hartrees.
 NAtoms=   19 NActive=   19 NUniq=   19 SFac= 1.00D+00 NAtFMM=   60 NAOKFM=F Big=F
   1 Symmetry operations used in ECPInt.
 ECPInt:  NShTT=   10296 NPrTT=   53536 LenC2=   10189 LenP2D=   37352.
 LDataN:  DoStor=T MaxTD1= 6 Len=  172
 Initial guess from the checkpoint file:  "1-2-furylpyridin-2-one.chk"
 B after Tr=     0.000000    0.000000   -0.000000
         Rot=    1.000000    0.000000    0.000000    0.000000 Ang=   0.00 deg.
 >>>>>>>>>> Convergence criterion not met.
 SCF Done:  E(RHF) =  -549.642442446     A.U. after    2 cycles
            NFock=  1  Conv=0.45D-01     -V/T= 2.0023

 **********************************************************************

            Population analysis using the SCF Density.

 **********************************************************************

 Orbital symmetries:
       Occupied  (A) (A) (A) (A) (A) (A) (A) (A) (A) (A) (A) (A)
                 (A) (A) (A) (A) (A) (A) (A) (A) (A) (A) (A) (A)
                 (A) (A) (A) (A) (A) (A) (A) (A) (A) (A) (A) (A)
                 (A) (A) (A) (A) (A) (A)
       Virtual   (A) (A) (A) (A) (A) (A) (A) (A) (A) (A) (A) (A)
                 (A) (A) (A) (A) (A) (A) (A) (A) (A) (A) (A) (A)
                 (A) (A) (A) (A) (A) (A) (A) (A) (A) (A) (A) (A)
                 (A) (A) (A) (A) (A) (A) (A) (A) (A) (A) (A) (A)
                 (A) (A) (A) (A) (A) (A) (A) (A) (A) (A) (A) (A)
                 (A) (A) (A) (A) (A) (A) (A) (A) (A) (A) (A) (A)
                 (A) (A) (A) (A) (A) (A) (A) (A) (A) (A) (A) (A)
                 (A) (A) (A) (A) (A) (A) (A) (A) (A) (A) (A) (A)
                 (A) (A) (A) (A) (A) (A) (A) (A) (A) (A) (A) (A)
                 (A) (A) (A) (A) (A) (A) (A) (A) (A) (A) (A) (A)
                 (A) (A) (A) (A) (A) (A) (A) (A) (A) (A) (A) (A)
                 (A) (A) (A) (A) (A) (A) (A) (A) (A) (A) (A) (A)
                 (A) (A) (A) (A) (A) (A) (A) (A) (A) (A) (A) (A)
                 (A) (A) (A) (A) (A) (A) (A) (A) (A) (A) (A) (A)
                 (A) (A) (A) (A) (A) (A) (A) (A) (A) (A) (A) (A)
                 (A) (A) (A) (A) (A) (A) (A) (A) (A) (A) (A) (A)
                 (A) (A) (A) (A) (A) (A) (A) (A) (A) (A) (A) (A)
                 (A) (A) (A) (A) (A) (A) (A) (A) (A) (A) (A) (A)
                 (A) (A) (A) (A) (A) (A) (A) (A) (A) (A) (A) (A)
                 (A) (A) (A) (A) (A) (A) (A) (A) (A) (A) (A) (A)
                 (A) (A) (A) (A) (A) (A) (A) (A) (A) (A) (A) (A)
                 (A) (A) (A) (A) (A) (A) (A) (A) (A) (A) (A) (A)
                 (A) (A) (A) (A) (A) (A) (A) (A) (A) (A) (A) (A)
                 (A) (A) (A) (A) (A) (A) (A) (A) (A) (A) (A) (A)
                 (A) (A) (A) (A) (A) (A) (A) (A) (A)
 The electronic state is 1-A.
 Alpha  occ. eigenvalues --  -20.61756 -20.50714 -15.57562 -11.36596 -11.33841
 Alpha  occ. eigenvalues --  -11.31765 -11.30329 -11.28192 -11.24989 -11.24932
 Alpha  occ. eigenvalues --  -11.24911 -11.24486  -1.55851  -1.45781  -1.30387
 Alpha  occ. eigenvalues --   -1.13180  -1.10623  -1.04446  -1.01234  -0.90893
 Alpha  occ. eigenvalues --   -0.89450  -0.83287  -0.81342  -0.77280  -0.72820
 Alpha  occ. eigenvalues --   -0.71123  -0.67626  -0.65608  -0.64598  -0.63537
 Alpha  occ. eigenvalues --   -0.62819  -0.59692  -0.58033  -0.57607  -0.56383
 Alpha  occ. eigenvalues --   -0.55379  -0.49878  -0.44844  -0.43018  -0.41097
 Alpha  occ. eigenvalues --   -0.34143  -0.32545
 Alpha virt. eigenvalues --    0.02895   0.03454   0.03673   0.04095   0.04690
 Alpha virt. eigenvalues --    0.05201   0.06268   0.06432   0.09105   0.09936
 Alpha virt. eigenvalues --    0.10232   0.10749   0.11500   0.12064   0.12607
 Alpha virt. eigenvalues --    0.13142   0.13358   0.13922   0.14039   0.14200
 Alpha virt. eigenvalues --    0.14848   0.15115   0.15368   0.15803   0.16378
 Alpha virt. eigenvalues --    0.16565   0.16904   0.17383   0.17543   0.18151
 Alpha virt. eigenvalues --    0.18373   0.19451   0.20054   0.20981   0.21489
 Alpha virt. eigenvalues --    0.22877   0.23657   0.23972   0.24731   0.26023
 Alpha virt. eigenvalues --    0.26904   0.27530   0.28877   0.29642   0.29770
 Alpha virt. eigenvalues --    0.30110   0.30496   0.30958   0.31904   0.32324
 Alpha virt. eigenvalues --    0.32614   0.33396   0.34366   0.35068   0.35388
 Alpha virt. eigenvalues --    0.35856   0.36034   0.36428   0.37213   0.37791
 Alpha virt. eigenvalues --    0.38333   0.39135   0.39496   0.39809   0.40031
 Alpha virt. eigenvalues --    0.41114   0.41244   0.41749   0.43349   0.43985
 Alpha virt. eigenvalues --    0.44730   0.45818   0.46282   0.46997   0.47445
 Alpha virt. eigenvalues --    0.48632   0.49164   0.49497   0.50652   0.51280
 Alpha virt. eigenvalues --    0.52843   0.54097   0.54700   0.55025   0.55725
 Alpha virt. eigenvalues --    0.56176   0.57223   0.58247   0.59549   0.59690
 Alpha virt. eigenvalues --    0.60479   0.61157   0.61662   0.62456   0.62870
 Alpha virt. eigenvalues --    0.63756   0.64309   0.64747   0.65484   0.65722
 Alpha virt. eigenvalues --    0.66054   0.67183   0.68088   0.69162   0.69759
 Alpha virt. eigenvalues --    0.69903   0.71439   0.72106   0.72237   0.72902
 Alpha virt. eigenvalues --    0.74268   0.74503   0.75423   0.75603   0.76672
 Alpha virt. eigenvalues --    0.78044   0.78536   0.80329   0.81283   0.81405
 Alpha virt. eigenvalues --    0.82876   0.83428   0.84882   0.85613   0.85738
 Alpha virt. eigenvalues --    0.87527   0.88362   0.88692   0.89325   0.89773
 Alpha virt. eigenvalues --    0.90368   0.90761   0.92130   0.93038   0.93423
 Alpha virt. eigenvalues --    0.93995   0.94971   0.96190   0.96480   0.98509
 Alpha virt. eigenvalues --    1.00402   1.01004   1.03217   1.03855   1.04485
 Alpha virt. eigenvalues --    1.05920   1.06783   1.07590   1.07769   1.09859
 Alpha virt. eigenvalues --    1.11002   1.12305   1.14384   1.14904   1.16575
 Alpha virt. eigenvalues --    1.16721   1.18316   1.19019   1.20660   1.22070
 Alpha virt. eigenvalues --    1.23680   1.24487   1.27488   1.30076   1.32494
 Alpha virt. eigenvalues --    1.33490   1.35065   1.36896   1.40271   1.41923
 Alpha virt. eigenvalues --    1.42458   1.43132   1.45202   1.46791   1.47501
 Alpha virt. eigenvalues --    1.48962   1.49774   1.52108   1.54499   1.54947
 Alpha virt. eigenvalues --    1.55827   1.57215   1.58869   1.59679   1.60952
 Alpha virt. eigenvalues --    1.61651   1.62681   1.63692   1.63968   1.64915
 Alpha virt. eigenvalues --    1.65529   1.66547   1.67979   1.68536   1.70571
 Alpha virt. eigenvalues --    1.71555   1.73219   1.75115   1.76616   1.80430
 Alpha virt. eigenvalues --    1.80791   1.81776   1.83543   1.84634   1.86304
 Alpha virt. eigenvalues --    1.87334   1.88637   1.89776   1.90642   1.92183
 Alpha virt. eigenvalues --    1.92755   1.93618   1.94614   1.96519   1.97752
 Alpha virt. eigenvalues --    1.99281   2.00041   2.01942   2.02693   2.03818
 Alpha virt. eigenvalues --    2.07479   2.08695   2.09643   2.10519   2.11925
 Alpha virt. eigenvalues --    2.12881   2.15283   2.16814   2.17913   2.18132
 Alpha virt. eigenvalues --    2.19550   2.20476   2.22039   2.24114   2.24958
 Alpha virt. eigenvalues --    2.27319   2.28302   2.29683   2.30821   2.33117
 Alpha virt. eigenvalues --    2.34760   2.35792   2.36827   2.39135   2.40711
 Alpha virt. eigenvalues --    2.42305   2.43585   2.44203   2.45180   2.48991
 Alpha virt. eigenvalues --    2.49983   2.51277   2.54447   2.57963   2.58421
 Alpha virt. eigenvalues --    2.60824   2.62444   2.64473   2.72003   2.74100
 Alpha virt. eigenvalues --    2.76450   2.78912   2.83853   2.85597   2.87341
 Alpha virt. eigenvalues --    2.90960   2.92717   2.96204   2.98003   3.01542
 Alpha virt. eigenvalues --    3.02828   3.10222   3.11491   3.12672   3.14900
 Alpha virt. eigenvalues --    3.21489   3.30233   3.32319   3.35405   3.40772
 Alpha virt. eigenvalues --    3.47306   3.62696   3.65526   3.74611   3.85966
 Alpha virt. eigenvalues --    3.86955   3.93978   3.95266   4.01468   4.07899
 Alpha virt. eigenvalues --    4.08220   4.16858   4.20482   4.23223   4.27825
 Alpha virt. eigenvalues --    4.42417   4.55141
          Condensed to atoms (all electrons):
 Mulliken charges:
               1
     1  C    0.521534
     2  C    0.339656
     3  C    0.709296
     4  C   -0.306672
     5  C    0.028095
     6  C    0.601462
     7  C    0.627159
     8  C   -0.212949
     9  C    0.870388
    10  N    1.579614
    11  O   -1.454853
    12  O   -1.731902
    13  H   -0.130289
    14  H   -0.245276
    15  H   -0.157229
    16  H   -0.192196
    17  H   -0.277039
    18  H   -0.221152
    19  H   -0.347649
 Sum of Mulliken charges =  -0.00000
 Mulliken charges with hydrogens summed into heavy atoms:
               1
     1  C    0.391245
     2  C    0.094380
     3  C    0.552067
     4  C   -0.306672
     5  C   -0.164102
     6  C    0.324423
     7  C    0.406007
     8  C   -0.560598
     9  C    0.870388
    10  N    1.579614
    11  O   -1.454853
    12  O   -1.731902
 Electronic spatial extent (au):  <R**2>=           1935.0021
 Charge=              0.0000 electrons
 Dipole moment (field-independent basis, Debye):
    X=              0.7705    Y=             -3.9965    Z=              0.1788  Tot=              4.0740

 Test job not archived.
 1\1\GINC-SE231\SP\RHF\Aug-CC-pVDZ\C9H7N1O2\OHZDE\05-Apr-2025\0\\#t hf 
 aug-cc-pvdz iop(5/13=1,5/36=2,99/5=2) pseudo=read geom=check guess=(re
 ad,tcheck) scf=(maxcycle=1)\\title\\0,1\C,0,-3.194575,-0.313665,0.5329
 54\C,0,-1.888732,-0.508814,1.083438\C,0,-3.009799,0.096865,-0.744869\C
 ,0,-1.019311,-0.203012,0.09158\C,0,3.135362,-0.257975,-0.067413\C,0,2.
 506179,0.937102,0.061393\C,0,2.396422,-1.469775,-0.153237\C,0,1.044926
 ,-1.406409,-0.107584\C,0,1.064931,1.048883,0.123453\N,0,0.385002,-0.20
 9485,0.027326\O,0,0.429863,2.079331,0.252424\O,0,-1.682395,0.164204,-1
 .036752\H,0,-4.138874,-0.452415,1.029472\H,0,-1.63173,-0.81226,2.08294
 \H,0,-3.678984,0.370087,-1.539794\H,0,4.216627,-0.293566,-0.105985\H,0
 ,3.049817,1.867462,0.131301\H,0,2.886862,-2.424324,-0.258784\H,0,0.409
 095,-2.276074,-0.174091\\Version=ES64L-G16RevC.01\State=1-A\HF=-549.64
 24424\RMSD=4.516e-02\Dipole=0.303126,-1.5723445,0.070362\Quadrupole=10
 .3473873,-6.9677921,-3.3795952,-0.7906531,-0.3381419,-1.4624327\PG=C01
  [X(C9H7N1O2)]\\@


 ... A MOLECULAR SYSTEM ... (PASSES) ... FROM ONE STATE OF EQUILIBRIUM 
 TO ANOTHER ... BY MEANS OF ALL POSSIBLE INTERMEDIATE PATHS, 
 BUT THE PATH MOST ECONOMICAL OF ENERGY WILL BE THE MORE OFTEN TRAVELED.

                      -- HENRY EYRING, 1945
 Job cpu time:       0 days  0 hours  2 minutes 55.5 seconds.
 Elapsed time:       0 days  0 hours  0 minutes 16.8 seconds.
 File lengths (MBytes):  RWF=     18 Int=      0 D2E=      0 Chk=     15 Scr=      1
 Normal termination of Gaussian 16 at Sat Apr  5 22:23:33 2025.
