 Entering Gaussian System, Link 0=g16
 Input=1H-pyrimidin-4-one.gjf
 Output=1H-pyrimidin-4-one.log
 Initial command:
 /arc/software/Gaussian/g16.c01/l1.exe "/tmp/slurm/4814922/Gau-3067931.inp" -scrdir="/tmp/slurm/4814922/"
 Entering Link 1 = /arc/software/Gaussian/g16.c01/l1.exe PID=   3067933.
  
 Copyright (c) 1988-2019, Gaussian, Inc.  All Rights Reserved.
  
 This is part of the Gaussian(R) 16 program.  It is based on
 the Gaussian(R) 09 system (copyright 2009, Gaussian, Inc.),
 the Gaussian(R) 03 system (copyright 2003, Gaussian, Inc.),
 the Gaussian(R) 98 system (copyright 1998, Gaussian, Inc.),
 the Gaussian(R) 94 system (copyright 1995, Gaussian, Inc.),
 the Gaussian 92(TM) system (copyright 1992, Gaussian, Inc.),
 the Gaussian 90(TM) system (copyright 1990, Gaussian, Inc.),
 the Gaussian 88(TM) system (copyright 1988, Gaussian, Inc.),
 the Gaussian 86(TM) system (copyright 1986, Carnegie Mellon
 University), and the Gaussian 82(TM) system (copyright 1983,
 Carnegie Mellon University). Gaussian is a federally registered
 trademark of Gaussian, Inc.
  
 This software contains proprietary and confidential information,
 including trade secrets, belonging to Gaussian, Inc.
  
 This software is provided under written license and may be
 used, copied, transmitted, or stored only in accord with that
 written license.
  
 The following legend is applicable only to US Government
 contracts under FAR:
  
                    RESTRICTED RIGHTS LEGEND
  
 Use, reproduction and disclosure by the US Government is
 subject to restrictions as set forth in subparagraphs (a)
 and (c) of the Commercial Computer Software - Restricted
 Rights clause in FAR 52.227-19.
  
 Gaussian, Inc.
 340 Quinnipiac St., Bldg. 40, Wallingford CT 06492
  
  
 ---------------------------------------------------------------
 Warning -- This program may not be used in any manner that
 competes with the business of Gaussian, Inc. or will provide
 assistance to any competitor of Gaussian, Inc.  The licensee
 of this program is prohibited from giving any competitor of
 Gaussian, Inc. access to this program.  By using this program,
 the user acknowledges that Gaussian, Inc. is engaged in the
 business of creating and licensing software in the field of
 computational chemistry and represents and warrants to the
 licensee that it is not a competitor of Gaussian, Inc. and that
 it will not use this program in any manner prohibited above.
 ---------------------------------------------------------------
  

 Cite this work as:
 Gaussian 16, Revision C.01,
 M. J. Frisch, G. W. Trucks, H. B. Schlegel, G. E. Scuseria, 
 M. A. Robb, J. R. Cheeseman, G. Scalmani, V. Barone, 
 G. A. Petersson, H. Nakatsuji, X. Li, M. Caricato, A. V. Marenich, 
 J. Bloino, B. G. Janesko, R. Gomperts, B. Mennucci, H. P. Hratchian, 
 J. V. Ortiz, A. F. Izmaylov, J. L. Sonnenberg, D. Williams-Young, 
 F. Ding, F. Lipparini, F. Egidi, J. Goings, B. Peng, A. Petrone, 
 T. Henderson, D. Ranasinghe, V. G. Zakrzewski, J. Gao, N. Rega, 
 G. Zheng, W. Liang, M. Hada, M. Ehara, K. Toyota, R. Fukuda, 
 J. Hasegawa, M. Ishida, T. Nakajima, Y. Honda, O. Kitao, H. Nakai, 
 T. Vreven, K. Throssell, J. A. Montgomery, Jr., J. E. Peralta, 
 F. Ogliaro, M. J. Bearpark, J. J. Heyd, E. N. Brothers, K. N. Kudin, 
 V. N. Staroverov, T. A. Keith, R. Kobayashi, J. Normand, 
 K. Raghavachari, A. P. Rendell, J. C. Burant, S. S. Iyengar, 
 J. Tomasi, M. Cossi, J. M. Millam, M. Klene, C. Adamo, R. Cammi, 
 J. W. Ochterski, R. L. Martin, K. Morokuma, O. Farkas, 
 J. B. Foresman, and D. J. Fox, Gaussian, Inc., Wallingford CT, 2019.
 
 ******************************************
 Gaussian 16:  ES64L-G16RevC.01  3-Jul-2019
                 5-Apr-2025 
 ******************************************
 %nprocs=16
 Will use up to   16 processors via shared memory.
 %mem=30GB
 %chk=1H-pyrimidin-4-one.chk
 ----------------------------------------------------------------------
 #t hf aug-cc-pvdz symm=none int=(grid=ultrafine) guess=(read,tcheck) s
 table=(opt,rrhf)
 ----------------------------------------------------------------------
 -----
 title
 -----
 Symbolic Z-matrix:
 Charge =  0 Multiplicity = 1
 C                     1.22373   0.26815   0. 
 C                     1.15671  -1.07379   0. 
 C                    -1.20348  -0.92161   0. 
 C                     0.        1.07608   0. 
 N                    -1.22309   0.35932   0. 
 N                    -0.07257  -1.68884   0. 
 O                     0.01189   2.29139   0. 
 H                     2.17469   0.77805   0. 
 H                     2.01938  -1.72388   0. 
 H                    -2.13516  -1.48019   0. 
 H                    -0.14617  -2.6915    0. 
 
                    Distance matrix (angstroms):
                    1          2          3          4          5
     1  C    0.000000
     2  C    1.343610   0.000000
     3  C    2.703121   2.365087   0.000000
     4  C    1.466380   2.441295   2.332198   0.000000
     5  N    2.448517   2.777989   1.281077   1.417642   0.000000
     6  N    2.347375   1.374553   1.366602   2.765873   2.349178
     7  O    2.358403   3.554580   3.435188   1.215366   2.293055
     8  H    1.079042   2.113198   3.781652   2.195018   3.423487
     9  H    2.145055   1.080200   3.321216   3.452206   3.854005
    10  H    3.786667   3.316860   1.086300   3.330687   2.053211
    11  H    3.261306   2.077129   2.061652   3.770416   3.235310
                    6          7          8          9         10
     6  N    0.000000
     7  O    3.981125   0.000000
     8  H    3.337020   2.639678   0.000000
     9  H    2.092242   4.489149   2.506752   0.000000
    10  H    2.073121   4.339897   4.865646   4.161684   0.000000
    11  H    1.005359   4.985396   4.174225   2.371893   2.328809
                   11
    11  H    0.000000
 Symmetry turned off by external request.
 Rotational constants (GHZ):           5.8844325           2.8494076           1.9197909
   197 basis functions,   345 primitive gaussians,   211 cartesian basis functions
    25 alpha electrons       25 beta electrons
       nuclear repulsion energy       278.2213146563 Hartrees.
 NAtoms=   11 NActive=   11 NUniq=   11 SFac= 1.00D+00 NAtFMM=   60 NAOKFM=F Big=F
 ExpMin= 2.97D-02 ExpMax= 1.17D+04 ExpMxC= 4.01D+02 IAcc=3 IRadAn=         5 AccDes= 0.00D+00
 Harris functional with IExCor=  205 and IRadAn=       5 diagonalized for initial guess.
 HarFok:  IExCor=  205 AccDes= 0.00D+00 IRadAn=         5 IDoV= 1 UseB2=F ITyADJ=14
 ICtDFT=  3500011 ScaDFX=  1.000000  1.000000  1.000000  1.000000
 FoFCou: FMM=F IPFlag=           0 FMFlag=      100000 FMFlg1=           0
         NFxFlg=           0 DoJE=T BraDBF=F KetDBF=T FulRan=T
         wScrn=  0.000000 ICntrl=       500 IOpCl=  0 I1Cent=   200000004 NGrid=           0
         NMat0=    1 NMatS0=      1 NMatT0=    0 NMatD0=    1 NMtDS0=    0 NMtDT0=    0
 Symmetry not used in FoFCou.
 SCF Done:  E(RHF) =  -337.602888055     A.U. after   15 cycles
            NFock= 15  Conv=0.58D-08     -V/T= 2.0013

 **********************************************************************

            Population analysis using the SCF Density.

 **********************************************************************

 Alpha  occ. eigenvalues --  -20.52350 -15.65659 -15.57299 -11.36237 -11.35220
 Alpha  occ. eigenvalues --  -11.32880 -11.25377  -1.38038  -1.34270  -1.21306
 Alpha  occ. eigenvalues --   -1.08585  -0.91637  -0.88394  -0.80207  -0.73429
 Alpha  occ. eigenvalues --   -0.69014  -0.64687  -0.62641  -0.61363  -0.58715
 Alpha  occ. eigenvalues --   -0.52913  -0.46045  -0.43633  -0.40583  -0.35233
 Alpha virt. eigenvalues --    0.01256   0.03230   0.04584   0.06219   0.07172
 Alpha virt. eigenvalues --    0.08973   0.09319   0.10596   0.11637   0.11689
 Alpha virt. eigenvalues --    0.12751   0.12855   0.13771   0.14328   0.14332
 Alpha virt. eigenvalues --    0.15893   0.17379   0.17799   0.18232   0.18502
 Alpha virt. eigenvalues --    0.20464   0.21503   0.22770   0.26860   0.27399
 Alpha virt. eigenvalues --    0.27854   0.28685   0.29019   0.30028   0.31638
 Alpha virt. eigenvalues --    0.33173   0.33654   0.33703   0.35437   0.36357
 Alpha virt. eigenvalues --    0.36404   0.37259   0.37882   0.38111   0.40475
 Alpha virt. eigenvalues --    0.42154   0.43194   0.45784   0.47596   0.47681
 Alpha virt. eigenvalues --    0.48616   0.48962   0.52237   0.52959   0.54878
 Alpha virt. eigenvalues --    0.57200   0.57432   0.58380   0.59873   0.60751
 Alpha virt. eigenvalues --    0.61589   0.62291   0.64565   0.65422   0.65656
 Alpha virt. eigenvalues --    0.67766   0.68344   0.68727   0.71994   0.72801
 Alpha virt. eigenvalues --    0.73005   0.74887   0.78008   0.78555   0.79488
 Alpha virt. eigenvalues --    0.81768   0.83996   0.84715   0.85657   0.86755
 Alpha virt. eigenvalues --    0.88142   0.88250   0.90035   0.94976   0.95162
 Alpha virt. eigenvalues --    0.97050   0.97832   0.99164   1.02442   1.02929
 Alpha virt. eigenvalues --    1.05050   1.07091   1.08587   1.10631   1.13138
 Alpha virt. eigenvalues --    1.14321   1.16326   1.18824   1.21257   1.28156
 Alpha virt. eigenvalues --    1.30053   1.32541   1.35008   1.36769   1.41012
 Alpha virt. eigenvalues --    1.44796   1.45810   1.48142   1.52762   1.53620
 Alpha virt. eigenvalues --    1.56031   1.56057   1.59661   1.61184   1.63331
 Alpha virt. eigenvalues --    1.65628   1.66415   1.70981   1.71049   1.72928
 Alpha virt. eigenvalues --    1.77271   1.77513   1.87293   1.87974   1.89889
 Alpha virt. eigenvalues --    1.91908   1.93127   1.93829   1.96686   1.98012
 Alpha virt. eigenvalues --    2.02719   2.02814   2.06046   2.10509   2.14233
 Alpha virt. eigenvalues --    2.15675   2.19235   2.21785   2.25292   2.27213
 Alpha virt. eigenvalues --    2.29571   2.30714   2.33699   2.33985   2.40566
 Alpha virt. eigenvalues --    2.44032   2.47828   2.50741   2.55251   2.61348
 Alpha virt. eigenvalues --    2.64704   2.66508   2.69287   2.71752   2.73313
 Alpha virt. eigenvalues --    2.78383   2.82265   2.83247   2.90249   2.91822
 Alpha virt. eigenvalues --    2.96848   2.98812   3.06353   3.12702   3.25957
 Alpha virt. eigenvalues --    3.27360   3.36002   3.36615   3.40787   3.58170
 Alpha virt. eigenvalues --    3.66907   3.78728   3.82606   3.85218   4.04172
 Alpha virt. eigenvalues --    4.07228   4.24359
          Condensed to atoms (all electrons):
 Mulliken charges:
               1
     1  C    0.733573
     2  C    0.730949
     3  C    0.849121
     4  C    0.678635
     5  N   -0.672646
     6  N   -0.544480
     7  O   -0.780054
     8  H   -0.400933
     9  H   -0.328240
    10  H   -0.195105
    11  H   -0.070821
 Sum of Mulliken charges =  -0.00000
 Mulliken charges with hydrogens summed into heavy atoms:
               1
     1  C    0.332640
     2  C    0.402710
     3  C    0.654017
     4  C    0.678635
     5  N   -0.672646
     6  N   -0.615300
     7  O   -0.780054
 Electronic spatial extent (au):  <R**2>=            607.0005
 Charge=             -0.0000 electrons
 Dipole moment (field-independent basis, Debye):
    X=              1.6738    Y=             -8.3194    Z=              0.0000  Tot=              8.4861
 NROrb=    197 NOA=    25 NOB=    25 NVA=   172 NVB=   172

 **** Warning!!: The largest alpha MO coefficient is  0.72316534D+02

    12 initial guesses have been made.
 Iteration     1 Dimension    12 NMult     0 NNew     12
 New state      1 was old state      3
 Iteration     2 Dimension    24 NMult    12 NNew     12
 New state      1 was old state      2
 Iteration     3 Dimension    27 NMult    24 NNew      3
 New state      1 was old state      2
 Iteration     4 Dimension    30 NMult    27 NNew      3
 Iteration     5 Dimension    33 NMult    30 NNew      3
 Iteration     6 Dimension    36 NMult    33 NNew      3
 Iteration     7 Dimension    39 NMult    36 NNew      3
 Iteration     8 Dimension    42 NMult    39 NNew      3
 ***********************************************************************
 Stability analysis using <AA,BB:AA,BB> singles matrix:
 ***********************************************************************
 Ground to excited state transition densities written to RWF  633

 Eigenvectors of the stability matrix:
 
 Excited state symmetry could not be determined.
 Eigenvector   1:      Singlet-?Sym  Eigenvalue= 0.2064152  <S**2>=0.000
      23 -> 30        -0.10817
      23 -> 35         0.25740
      25 -> 31         0.54097
      25 -> 36        -0.17998
      25 -> 40         0.13272
      25 -> 44         0.15061
 The wavefunction is stable under the perturbations considered.
 The wavefunction is already stable.

 **********************************************************************

            Population analysis using the SCF Density.

 **********************************************************************

 Alpha  occ. eigenvalues --  -20.52350 -15.65659 -15.57299 -11.36237 -11.35220
 Alpha  occ. eigenvalues --  -11.32880 -11.25377  -1.38038  -1.34270  -1.21306
 Alpha  occ. eigenvalues --   -1.08585  -0.91637  -0.88394  -0.80207  -0.73429
 Alpha  occ. eigenvalues --   -0.69014  -0.64687  -0.62641  -0.61363  -0.58715
 Alpha  occ. eigenvalues --   -0.52913  -0.46045  -0.43633  -0.40583  -0.35233
 Alpha virt. eigenvalues --    0.01256   0.03230   0.04584   0.06219   0.07172
 Alpha virt. eigenvalues --    0.08973   0.09319   0.10596   0.11637   0.11689
 Alpha virt. eigenvalues --    0.12751   0.12855   0.13771   0.14328   0.14332
 Alpha virt. eigenvalues --    0.15893   0.17379   0.17799   0.18232   0.18502
 Alpha virt. eigenvalues --    0.20464   0.21503   0.22770   0.26860   0.27399
 Alpha virt. eigenvalues --    0.27854   0.28685   0.29019   0.30028   0.31638
 Alpha virt. eigenvalues --    0.33173   0.33654   0.33703   0.35437   0.36357
 Alpha virt. eigenvalues --    0.36404   0.37259   0.37882   0.38111   0.40475
 Alpha virt. eigenvalues --    0.42154   0.43194   0.45784   0.47596   0.47681
 Alpha virt. eigenvalues --    0.48616   0.48962   0.52237   0.52959   0.54878
 Alpha virt. eigenvalues --    0.57200   0.57432   0.58380   0.59873   0.60751
 Alpha virt. eigenvalues --    0.61589   0.62291   0.64565   0.65422   0.65656
 Alpha virt. eigenvalues --    0.67766   0.68344   0.68727   0.71994   0.72801
 Alpha virt. eigenvalues --    0.73005   0.74887   0.78008   0.78555   0.79488
 Alpha virt. eigenvalues --    0.81768   0.83996   0.84715   0.85657   0.86755
 Alpha virt. eigenvalues --    0.88142   0.88250   0.90035   0.94976   0.95162
 Alpha virt. eigenvalues --    0.97050   0.97832   0.99164   1.02442   1.02929
 Alpha virt. eigenvalues --    1.05050   1.07091   1.08587   1.10631   1.13138
 Alpha virt. eigenvalues --    1.14321   1.16326   1.18824   1.21257   1.28156
 Alpha virt. eigenvalues --    1.30053   1.32541   1.35008   1.36769   1.41012
 Alpha virt. eigenvalues --    1.44796   1.45810   1.48142   1.52762   1.53620
 Alpha virt. eigenvalues --    1.56031   1.56057   1.59661   1.61184   1.63331
 Alpha virt. eigenvalues --    1.65628   1.66415   1.70981   1.71049   1.72928
 Alpha virt. eigenvalues --    1.77271   1.77513   1.87293   1.87974   1.89889
 Alpha virt. eigenvalues --    1.91908   1.93127   1.93829   1.96686   1.98012
 Alpha virt. eigenvalues --    2.02719   2.02814   2.06046   2.10509   2.14233
 Alpha virt. eigenvalues --    2.15675   2.19235   2.21785   2.25292   2.27213
 Alpha virt. eigenvalues --    2.29571   2.30714   2.33699   2.33985   2.40566
 Alpha virt. eigenvalues --    2.44032   2.47828   2.50741   2.55251   2.61348
 Alpha virt. eigenvalues --    2.64704   2.66508   2.69287   2.71752   2.73313
 Alpha virt. eigenvalues --    2.78383   2.82265   2.83247   2.90249   2.91822
 Alpha virt. eigenvalues --    2.96848   2.98812   3.06353   3.12702   3.25957
 Alpha virt. eigenvalues --    3.27360   3.36002   3.36615   3.40787   3.58170
 Alpha virt. eigenvalues --    3.66907   3.78728   3.82606   3.85218   4.04172
 Alpha virt. eigenvalues --    4.07228   4.24359
          Condensed to atoms (all electrons):
 Mulliken charges:
               1
     1  C    0.733573
     2  C    0.730949
     3  C    0.849121
     4  C    0.678635
     5  N   -0.672646
     6  N   -0.544480
     7  O   -0.780054
     8  H   -0.400933
     9  H   -0.328240
    10  H   -0.195105
    11  H   -0.070821
 Sum of Mulliken charges =  -0.00000
 Mulliken charges with hydrogens summed into heavy atoms:
               1
     1  C    0.332640
     2  C    0.402710
     3  C    0.654017
     4  C    0.678635
     5  N   -0.672646
     6  N   -0.615300
     7  O   -0.780054
 Electronic spatial extent (au):  <R**2>=            607.0005
 Charge=             -0.0000 electrons
 Dipole moment (field-independent basis, Debye):
    X=              1.6738    Y=             -8.3194    Z=              0.0000  Tot=              8.4861
 Unable to Open any file for archive entry.
 1\1\GINC-SE214\Stability\RHF\Aug-CC-pVDZ\C4H4N2O1\OHZDE\05-Apr-2025\0\
 \#t hf aug-cc-pvdz symm=none int=(grid=ultrafine) guess=(read,tcheck) 
 stable=(opt,rrhf)\\title\\0,1\C,0,1.223728,0.268149,0.\C,0,1.156706,-1
 .073788,0.\C,0,-1.20348,-0.92161,0.\C,0,0.,1.076085,0.\N,0,-1.223091,0
 .359317,0.\N,0,-0.072567,-1.688836,0.\O,0,0.011892,2.291393,0.\H,0,2.1
 74691,0.778052,0.\H,0,2.019381,-1.723884,0.\H,0,-2.135162,-1.480194,0.
 \H,0,-0.146168,-2.691497,0.\\Version=ES64L-G16RevC.01\HF=-337.6028881\
 RMSD=5.787e-09\Dipole=0.6585323,-3.2731013,0.\Quadrupole=2.1877189,-0.
 8505901,-1.3371288,2.3370477,0.,0.\PG=Unknown\\@
 The archive entry for this job was punched.


 LENDING MONEY TO FRIENDS CAUSES THEM TO LOSE THEIR MEMORIES.

    --  PETER'S THEORY OF RECIPROCAL INHIBITION OF FISCAL RECALL
 Job cpu time:       0 days  0 hours  1 minutes 53.1 seconds.
 Elapsed time:       0 days  0 hours  1 minutes  3.2 seconds.
 File lengths (MBytes):  RWF=    198 Int=      0 D2E=      0 Chk=      6 Scr=      1
 Normal termination of Gaussian 16 at Sat Apr  5 22:29:13 2025.
 Initial command:
 /arc/software/Gaussian/g16.c01/l1.exe "/tmp/slurm/4814922/Gau-3067931.inp" -scrdir="/tmp/slurm/4814922/"
 Entering Link 1 = /arc/software/Gaussian/g16.c01/l1.exe PID=   3068368.
  
 Copyright (c) 1988-2019, Gaussian, Inc.  All Rights Reserved.
  
 This is part of the Gaussian(R) 16 program.  It is based on
 the Gaussian(R) 09 system (copyright 2009, Gaussian, Inc.),
 the Gaussian(R) 03 system (copyright 2003, Gaussian, Inc.),
 the Gaussian(R) 98 system (copyright 1998, Gaussian, Inc.),
 the Gaussian(R) 94 system (copyright 1995, Gaussian, Inc.),
 the Gaussian 92(TM) system (copyright 1992, Gaussian, Inc.),
 the Gaussian 90(TM) system (copyright 1990, Gaussian, Inc.),
 the Gaussian 88(TM) system (copyright 1988, Gaussian, Inc.),
 the Gaussian 86(TM) system (copyright 1986, Carnegie Mellon
 University), and the Gaussian 82(TM) system (copyright 1983,
 Carnegie Mellon University). Gaussian is a federally registered
 trademark of Gaussian, Inc.
  
 This software contains proprietary and confidential information,
 including trade secrets, belonging to Gaussian, Inc.
  
 This software is provided under written license and may be
 used, copied, transmitted, or stored only in accord with that
 written license.
  
 The following legend is applicable only to US Government
 contracts under FAR:
  
                    RESTRICTED RIGHTS LEGEND
  
 Use, reproduction and disclosure by the US Government is
 subject to restrictions as set forth in subparagraphs (a)
 and (c) of the Commercial Computer Software - Restricted
 Rights clause in FAR 52.227-19.
  
 Gaussian, Inc.
 340 Quinnipiac St., Bldg. 40, Wallingford CT 06492
  
  
 ---------------------------------------------------------------
 Warning -- This program may not be used in any manner that
 competes with the business of Gaussian, Inc. or will provide
 assistance to any competitor of Gaussian, Inc.  The licensee
 of this program is prohibited from giving any competitor of
 Gaussian, Inc. access to this program.  By using this program,
 the user acknowledges that Gaussian, Inc. is engaged in the
 business of creating and licensing software in the field of
 computational chemistry and represents and warrants to the
 licensee that it is not a competitor of Gaussian, Inc. and that
 it will not use this program in any manner prohibited above.
 ---------------------------------------------------------------
  

 Cite this work as:
 Gaussian 16, Revision C.01,
 M. J. Frisch, G. W. Trucks, H. B. Schlegel, G. E. Scuseria, 
 M. A. Robb, J. R. Cheeseman, G. Scalmani, V. Barone, 
 G. A. Petersson, H. Nakatsuji, X. Li, M. Caricato, A. V. Marenich, 
 J. Bloino, B. G. Janesko, R. Gomperts, B. Mennucci, H. P. Hratchian, 
 J. V. Ortiz, A. F. Izmaylov, J. L. Sonnenberg, D. Williams-Young, 
 F. Ding, F. Lipparini, F. Egidi, J. Goings, B. Peng, A. Petrone, 
 T. Henderson, D. Ranasinghe, V. G. Zakrzewski, J. Gao, N. Rega, 
 G. Zheng, W. Liang, M. Hada, M. Ehara, K. Toyota, R. Fukuda, 
 J. Hasegawa, M. Ishida, T. Nakajima, Y. Honda, O. Kitao, H. Nakai, 
 T. Vreven, K. Throssell, J. A. Montgomery, Jr., J. E. Peralta, 
 F. Ogliaro, M. J. Bearpark, J. J. Heyd, E. N. Brothers, K. N. Kudin, 
 V. N. Staroverov, T. A. Keith, R. Kobayashi, J. Normand, 
 K. Raghavachari, A. P. Rendell, J. C. Burant, S. S. Iyengar, 
 J. Tomasi, M. Cossi, J. M. Millam, M. Klene, C. Adamo, R. Cammi, 
 J. W. Ochterski, R. L. Martin, K. Morokuma, O. Farkas, 
 J. B. Foresman, and D. J. Fox, Gaussian, Inc., Wallingford CT, 2019.
 
 ******************************************
 Gaussian 16:  ES64L-G16RevC.01  3-Jul-2019
                 5-Apr-2025 
 ******************************************
 %nprocs=16
 Will use up to   16 processors via shared memory.
 %mem=30GB
 %chk=1H-pyrimidin-4-one.chk
 ----------------------------------------------------------------------
 #t hf aug-cc-pvdz iop(5/13=1,5/36=2,99/5=2) pseudo=read geom=check gue
 ss=(read,tcheck) scf=(maxcycle=1)
 ----------------------------------------------------------------------
 -----
 title
 -----
 Structure from the checkpoint file:  "1H-pyrimidin-4-one.chk"
 Charge =  0 Multiplicity = 1
 Z-Matrix found in chk file.
 C,0,1.223728,0.268149,0.
 C,0,1.156706,-1.073788,0.
 C,0,-1.20348,-0.92161,0.
 C,0,0.,1.076085,0.
 N,0,-1.223091,0.359317,0.
 N,0,-0.072567,-1.688836,0.
 O,0,0.011892,2.291393,0.
 H,0,2.174691,0.778052,0.
 H,0,2.019381,-1.723884,0.
 H,0,-2.135162,-1.480194,0.
 H,0,-0.146168,-2.691497,0.
 Recover connectivity data from disk.
                    Distance matrix (angstroms):
                    1          2          3          4          5
     1  C    0.000000
     2  C    1.343610   0.000000
     3  C    2.703121   2.365087   0.000000
     4  C    1.466380   2.441295   2.332198   0.000000
     5  N    2.448517   2.777989   1.281077   1.417642   0.000000
     6  N    2.347375   1.374553   1.366602   2.765873   2.349178
     7  O    2.358403   3.554580   3.435188   1.215366   2.293055
     8  H    1.079042   2.113198   3.781652   2.195018   3.423487
     9  H    2.145055   1.080200   3.321216   3.452206   3.854005
    10  H    3.786667   3.316860   1.086300   3.330687   2.053211
    11  H    3.261306   2.077129   2.061652   3.770416   3.235310
                    6          7          8          9         10
     6  N    0.000000
     7  O    3.981125   0.000000
     8  H    3.337020   2.639678   0.000000
     9  H    2.092242   4.489149   2.506752   0.000000
    10  H    2.073121   4.339897   4.865646   4.161684   0.000000
    11  H    1.005359   4.985396   4.174225   2.371893   2.328809
                   11
    11  H    0.000000
 Framework group  CS[SG(C4H4N2O)]
 Deg. of freedom    19
                         Standard orientation:                         
 ---------------------------------------------------------------------
 Center     Atomic      Atomic             Coordinates (Angstroms)
 Number     Number       Type             X           Y           Z
 ---------------------------------------------------------------------
      1          6           0        1.223728    0.268149    0.000000
      2          6           0        1.156706   -1.073788   -0.000000
      3          6           0       -1.203480   -0.921610   -0.000000
      4          6           0       -0.000000    1.076085    0.000000
      5          7           0       -1.223091    0.359317    0.000000
      6          7           0       -0.072567   -1.688836   -0.000000
      7          8           0        0.011892    2.291393    0.000000
      8          1           0        2.174691    0.778052    0.000000
      9          1           0        2.019381   -1.723884   -0.000000
     10          1           0       -2.135162   -1.480194   -0.000000
     11          1           0       -0.146168   -2.691497   -0.000000
 ---------------------------------------------------------------------
 Rotational constants (GHZ):           5.8844325           2.8494076           1.9197909
 ======================================================================================================
                                       Pseudopotential Parameters
 ======================================================================================================
  Center     Atomic      Valence      Angular      Power
  Number     Number     Electrons     Momentum     of R      Exponent        Coefficient   SO-Coeffient
 ======================================================================================================
    1          6            6
                                      G and up 
                                                     0        0.0000010       -0.00007288    0.00000000
                                                     2        0.1200000        0.10466671    0.00000000
                                                     2        0.1400000       -0.65716157    0.00000000
                                                     2        0.1600000        1.18890794    0.00000000
                                                     2        0.2000000       -1.25772850    0.00000000
                                                     2        0.2600000        1.01188378    0.00000000
                                                     2        0.4000000       -1.09380874    0.00000000
                                                     2        0.5000000        0.96944888    0.00000000
                                                     2        1.0000000       -0.79256938    0.00000000
                                                     2        3.0000000        1.06443276    0.00000000
                                      S - G
                                                     0        0.0000010       -0.00635295    0.00000000
                                                     2        0.1200000        0.16918955    0.00000000
                                                     2        0.1600000       -0.38862576    0.00000000
                                                     2        0.2800000        0.25638263    0.00000000
                                                     2        0.5000000        0.29628419    0.00000000
                                                     2        0.9000000       -0.28791512    0.00000000
                                      P - G
                                                     0        0.0000010       -0.04756931    0.00000000
                                                     2        0.1200000        0.28430375    0.00000000
                                                     2        0.1600000       -0.69640032    0.00000000
                                                     2        0.2600000        1.13005668    0.00000000
                                                     2        0.4000000       -1.31433324    0.00000000
                                                     2        0.7000000        0.91526469    0.00000000
                                      D - G
                                                     0        0.0000010       -0.11496411    0.00000000
                                                     2        0.1200000        0.16620776    0.00000000
                                                     2        0.1800000       -0.30959819    0.00000000
                                                     2        0.3000000        0.16621458    0.00000000
                                                     2        0.6000000        0.27350556    0.00000000
                                      F - G
                                                     0        0.0000010        0.12037550    0.00000000
                                                     2        0.1200000       -0.48737077    0.00000000
                                                     2        0.1400000        0.58315350    0.00000000
                                                     2        0.3000000        0.00005188    0.00000000
                                                     2        0.5000000       -1.16063549    0.00000000
                                                     2        0.8000000        2.09053308    0.00000000
    2          6            6
                                      G and up 
                                                     0        0.0000010       -0.00007288    0.00000000
                                                     2        0.1200000        0.10466671    0.00000000
                                                     2        0.1400000       -0.65716157    0.00000000
                                                     2        0.1600000        1.18890794    0.00000000
                                                     2        0.2000000       -1.25772850    0.00000000
                                                     2        0.2600000        1.01188378    0.00000000
                                                     2        0.4000000       -1.09380874    0.00000000
                                                     2        0.5000000        0.96944888    0.00000000
                                                     2        1.0000000       -0.79256938    0.00000000
                                                     2        3.0000000        1.06443276    0.00000000
                                      S - G
                                                     0        0.0000010       -0.00635295    0.00000000
                                                     2        0.1200000        0.16918955    0.00000000
                                                     2        0.1600000       -0.38862576    0.00000000
                                                     2        0.2800000        0.25638263    0.00000000
                                                     2        0.5000000        0.29628419    0.00000000
                                                     2        0.9000000       -0.28791512    0.00000000
                                      P - G
                                                     0        0.0000010       -0.04756931    0.00000000
                                                     2        0.1200000        0.28430375    0.00000000
                                                     2        0.1600000       -0.69640032    0.00000000
                                                     2        0.2600000        1.13005668    0.00000000
                                                     2        0.4000000       -1.31433324    0.00000000
                                                     2        0.7000000        0.91526469    0.00000000
                                      D - G
                                                     0        0.0000010       -0.11496411    0.00000000
                                                     2        0.1200000        0.16620776    0.00000000
                                                     2        0.1800000       -0.30959819    0.00000000
                                                     2        0.3000000        0.16621458    0.00000000
                                                     2        0.6000000        0.27350556    0.00000000
                                      F - G
                                                     0        0.0000010        0.12037550    0.00000000
                                                     2        0.1200000       -0.48737077    0.00000000
                                                     2        0.1400000        0.58315350    0.00000000
                                                     2        0.3000000        0.00005188    0.00000000
                                                     2        0.5000000       -1.16063549    0.00000000
                                                     2        0.8000000        2.09053308    0.00000000
    3          6            6
                                      G and up 
                                                     0        0.0000010       -0.00007288    0.00000000
                                                     2        0.1200000        0.10466671    0.00000000
                                                     2        0.1400000       -0.65716157    0.00000000
                                                     2        0.1600000        1.18890794    0.00000000
                                                     2        0.2000000       -1.25772850    0.00000000
                                                     2        0.2600000        1.01188378    0.00000000
                                                     2        0.4000000       -1.09380874    0.00000000
                                                     2        0.5000000        0.96944888    0.00000000
                                                     2        1.0000000       -0.79256938    0.00000000
                                                     2        3.0000000        1.06443276    0.00000000
                                      S - G
                                                     0        0.0000010       -0.00635295    0.00000000
                                                     2        0.1200000        0.16918955    0.00000000
                                                     2        0.1600000       -0.38862576    0.00000000
                                                     2        0.2800000        0.25638263    0.00000000
                                                     2        0.5000000        0.29628419    0.00000000
                                                     2        0.9000000       -0.28791512    0.00000000
                                      P - G
                                                     0        0.0000010       -0.04756931    0.00000000
                                                     2        0.1200000        0.28430375    0.00000000
                                                     2        0.1600000       -0.69640032    0.00000000
                                                     2        0.2600000        1.13005668    0.00000000
                                                     2        0.4000000       -1.31433324    0.00000000
                                                     2        0.7000000        0.91526469    0.00000000
                                      D - G
                                                     0        0.0000010       -0.11496411    0.00000000
                                                     2        0.1200000        0.16620776    0.00000000
                                                     2        0.1800000       -0.30959819    0.00000000
                                                     2        0.3000000        0.16621458    0.00000000
                                                     2        0.6000000        0.27350556    0.00000000
                                      F - G
                                                     0        0.0000010        0.12037550    0.00000000
                                                     2        0.1200000       -0.48737077    0.00000000
                                                     2        0.1400000        0.58315350    0.00000000
                                                     2        0.3000000        0.00005188    0.00000000
                                                     2        0.5000000       -1.16063549    0.00000000
                                                     2        0.8000000        2.09053308    0.00000000
    4          6            6
                                      G and up 
                                                     0        0.0000010       -0.00007288    0.00000000
                                                     2        0.1200000        0.10466671    0.00000000
                                                     2        0.1400000       -0.65716157    0.00000000
                                                     2        0.1600000        1.18890794    0.00000000
                                                     2        0.2000000       -1.25772850    0.00000000
                                                     2        0.2600000        1.01188378    0.00000000
                                                     2        0.4000000       -1.09380874    0.00000000
                                                     2        0.5000000        0.96944888    0.00000000
                                                     2        1.0000000       -0.79256938    0.00000000
                                                     2        3.0000000        1.06443276    0.00000000
                                      S - G
                                                     0        0.0000010       -0.00635295    0.00000000
                                                     2        0.1200000        0.16918955    0.00000000
                                                     2        0.1600000       -0.38862576    0.00000000
                                                     2        0.2800000        0.25638263    0.00000000
                                                     2        0.5000000        0.29628419    0.00000000
                                                     2        0.9000000       -0.28791512    0.00000000
                                      P - G
                                                     0        0.0000010       -0.04756931    0.00000000
                                                     2        0.1200000        0.28430375    0.00000000
                                                     2        0.1600000       -0.69640032    0.00000000
                                                     2        0.2600000        1.13005668    0.00000000
                                                     2        0.4000000       -1.31433324    0.00000000
                                                     2        0.7000000        0.91526469    0.00000000
                                      D - G
                                                     0        0.0000010       -0.11496411    0.00000000
                                                     2        0.1200000        0.16620776    0.00000000
                                                     2        0.1800000       -0.30959819    0.00000000
                                                     2        0.3000000        0.16621458    0.00000000
                                                     2        0.6000000        0.27350556    0.00000000
                                      F - G
                                                     0        0.0000010        0.12037550    0.00000000
                                                     2        0.1200000       -0.48737077    0.00000000
                                                     2        0.1400000        0.58315350    0.00000000
                                                     2        0.3000000        0.00005188    0.00000000
                                                     2        0.5000000       -1.16063549    0.00000000
                                                     2        0.8000000        2.09053308    0.00000000
    5          7            7
                                      G and up 
                                                     0        0.0000010       -0.00039818    0.00000000
                                                     2        0.1200000       -0.37616123    0.00000000
                                                     2        0.1400000        2.13837358    0.00000000
                                                     2        0.1600000       -3.36562035    0.00000000
                                                     2        0.2000000        2.53463289    0.00000000
                                                     2        0.3000000       -1.98118833    0.00000000
                                                     2        0.5000000        4.06642919    0.00000000
                                                     2        0.7000000       -6.15327959    0.00000000
                                                     2        1.2000000       10.22492851    0.00000000
                                                     2        2.0000000      -14.94707511    0.00000000
                                      S - G
                                                     0        0.0000010        0.02721443    0.00000000
                                                     2        0.1200000       -0.60186009    0.00000000
                                                     2        0.1600000        1.10088134    0.00000000
                                                     2        0.2600000       -0.59857981    0.00000000
                                                     2        0.6000000        0.21288222    0.00000000
                                                     2        3.0000000        5.09059205    0.00000000
                                      P - G
                                                     0        0.0000010        0.40558062    0.00000000
                                                     2        0.1200000        0.81809854    0.00000000
                                                     2        0.1600000       -2.44952728    0.00000000
                                                     2        0.2800000        4.16638749    0.00000000
                                                     2        0.5000000       -6.02944147    0.00000000
                                                     2        1.1000000        5.78262914    0.00000000
                                      D - G
                                                     0        0.0000010       -0.62770267    0.00000000
                                                     2        0.1600000        0.91438653    0.00000000
                                                     2        0.2600000       -2.00568466    0.00000000
                                                     2        0.5000000        3.30798839    0.00000000
                                                     2        1.1000000       -3.91526108    0.00000000
                                      F - G
                                                     0        0.0000010        0.29726344    0.00000000
                                                     2        0.1200000       -0.41591527    0.00000000
                                                     2        0.1600000        0.51444439    0.00000000
                                                     2        0.4000000       -0.69401726    0.00000000
                                                     2        0.7000000        0.51478123    0.00000000
    6          7            7
                                      G and up 
                                                     0        0.0000010       -0.00039818    0.00000000
                                                     2        0.1200000       -0.37616123    0.00000000
                                                     2        0.1400000        2.13837358    0.00000000
                                                     2        0.1600000       -3.36562035    0.00000000
                                                     2        0.2000000        2.53463289    0.00000000
                                                     2        0.3000000       -1.98118833    0.00000000
                                                     2        0.5000000        4.06642919    0.00000000
                                                     2        0.7000000       -6.15327959    0.00000000
                                                     2        1.2000000       10.22492851    0.00000000
                                                     2        2.0000000      -14.94707511    0.00000000
                                      S - G
                                                     0        0.0000010        0.02721443    0.00000000
                                                     2        0.1200000       -0.60186009    0.00000000
                                                     2        0.1600000        1.10088134    0.00000000
                                                     2        0.2600000       -0.59857981    0.00000000
                                                     2        0.6000000        0.21288222    0.00000000
                                                     2        3.0000000        5.09059205    0.00000000
                                      P - G
                                                     0        0.0000010        0.40558062    0.00000000
                                                     2        0.1200000        0.81809854    0.00000000
                                                     2        0.1600000       -2.44952728    0.00000000
                                                     2        0.2800000        4.16638749    0.00000000
                                                     2        0.5000000       -6.02944147    0.00000000
                                                     2        1.1000000        5.78262914    0.00000000
                                      D - G
                                                     0        0.0000010       -0.62770267    0.00000000
                                                     2        0.1600000        0.91438653    0.00000000
                                                     2        0.2600000       -2.00568466    0.00000000
                                                     2        0.5000000        3.30798839    0.00000000
                                                     2        1.1000000       -3.91526108    0.00000000
                                      F - G
                                                     0        0.0000010        0.29726344    0.00000000
                                                     2        0.1200000       -0.41591527    0.00000000
                                                     2        0.1600000        0.51444439    0.00000000
                                                     2        0.4000000       -0.69401726    0.00000000
                                                     2        0.7000000        0.51478123    0.00000000
    7          8            8
                                      G and up 
                                                     0        0.0000010        0.00049668    0.00000000
                                                     2        0.1200000       -0.01803391    0.00000000
                                                     2        0.1400000        0.04014195    0.00000000
                                                     2        0.2000000       -0.02692147    0.00000000
                                                     2        0.2800000       -0.04241843    0.00000000
                                                     2        0.4000000        0.15412145    0.00000000
                                                     2        0.7000000       -0.40587006    0.00000000
                                                     2        1.1000000        1.75666647    0.00000000
                                      S - G
                                                     0        0.0000010       -0.01088195    0.00000000
                                                     2        0.1200000        0.09867335    0.00000000
                                                     2        0.2400000       -0.08484177    0.00000000
                                                     2        0.6000000       -1.39011554    0.00000000
                                                     2        2.5000000        1.36225910    0.00000000
                                      P - G
                                                     0        0.0000010        0.05874028    0.00000000
                                                     2        0.1200000       -0.11700340    0.00000000
                                                     2        0.1600000        0.08847775    0.00000000
                                                     2        0.3000000        0.04709907    0.00000000
                                                     2        1.2000000       -1.80388338    0.00000000
                                      D - G
                                                     0        0.0000010       -0.00541262    0.00000000
                                                     2        0.1200000       -0.26547906    0.00000000
                                                     2        0.1600000        1.04289661    0.00000000
                                                     2        0.2400000       -1.92800913    0.00000000
                                                     2        0.4000000        2.26691633    0.00000000
                                                     2        0.7000000       -1.97391482    0.00000000
                                      F - G
                                                     0        0.0000010       -0.02604870    0.00000000
                                                     2        0.1200000        0.37362552    0.00000000
                                                     2        0.1600000       -1.43526367    0.00000000
                                                     2        0.2200000        1.76778079    0.00000000
                                                     2        0.5000000       -1.90846303    0.00000000
    8          1            1
                                      F and up 
                                                     0        0.0000010       -0.00007675    0.00000000
                                                     2        0.1200000        0.05352699    0.00000000
                                                     2        0.1400000       -0.25123645    0.00000000
                                                     2        0.1600000        0.32188106    0.00000000
                                                     2        0.2200000       -0.25206857    0.00000000
                                                     2        0.3000000        0.19290477    0.00000000
                                                     2        0.5000000       -0.10129770    0.00000000
                                                     2        0.9000000        0.00314995    0.00000000
                                                     2        1.5000000        0.18401192    0.00000000
                                      S - F
                                                     0        0.0000010        0.08065976    0.00000000
                                                     2        0.1200000       -0.09231673    0.00000000
                                                     2        0.1600000       -0.03278082    0.00000000
                                                     2        0.2800000        0.38423402    0.00000000
                                                     2        0.6000000       -1.09357590    0.00000000
                                                     2        1.1000000        1.53099489    0.00000000
                                                     2        3.0000000       -2.63300202    0.00000000
                                      P - F
                                                     0        0.0000010       -0.11638665    0.00000000
                                                     2        0.1200000        0.35468655    0.00000000
                                                     2        0.1600000       -0.59160923    0.00000000
                                                     2        0.3000000        0.49390547    0.00000000
                                                     2        0.6000000       -0.37949835    0.00000000
                                                     2        1.6000000        0.89304688    0.00000000
                                      D - F
                                                     0        0.0000010        0.05443663    0.00000000
                                                     2        0.1200000       -0.29679479    0.00000000
                                                     2        0.1400000        0.36849872    0.00000000
                                                     2        0.2400000        0.02793449    0.00000000
                                                     2        0.4000000       -0.46312857    0.00000000
                                                     2        0.7000000        0.97587598    0.00000000
                                                     2        1.5000000       -2.43431102    0.00000000
    9          1            1
                                      F and up 
                                                     0        0.0000010       -0.00007675    0.00000000
                                                     2        0.1200000        0.05352699    0.00000000
                                                     2        0.1400000       -0.25123645    0.00000000
                                                     2        0.1600000        0.32188106    0.00000000
                                                     2        0.2200000       -0.25206857    0.00000000
                                                     2        0.3000000        0.19290477    0.00000000
                                                     2        0.5000000       -0.10129770    0.00000000
                                                     2        0.9000000        0.00314995    0.00000000
                                                     2        1.5000000        0.18401192    0.00000000
                                      S - F
                                                     0        0.0000010        0.08065976    0.00000000
                                                     2        0.1200000       -0.09231673    0.00000000
                                                     2        0.1600000       -0.03278082    0.00000000
                                                     2        0.2800000        0.38423402    0.00000000
                                                     2        0.6000000       -1.09357590    0.00000000
                                                     2        1.1000000        1.53099489    0.00000000
                                                     2        3.0000000       -2.63300202    0.00000000
                                      P - F
                                                     0        0.0000010       -0.11638665    0.00000000
                                                     2        0.1200000        0.35468655    0.00000000
                                                     2        0.1600000       -0.59160923    0.00000000
                                                     2        0.3000000        0.49390547    0.00000000
                                                     2        0.6000000       -0.37949835    0.00000000
                                                     2        1.6000000        0.89304688    0.00000000
                                      D - F
                                                     0        0.0000010        0.05443663    0.00000000
                                                     2        0.1200000       -0.29679479    0.00000000
                                                     2        0.1400000        0.36849872    0.00000000
                                                     2        0.2400000        0.02793449    0.00000000
                                                     2        0.4000000       -0.46312857    0.00000000
                                                     2        0.7000000        0.97587598    0.00000000
                                                     2        1.5000000       -2.43431102    0.00000000
   10          1            1
                                      F and up 
                                                     0        0.0000010       -0.00007675    0.00000000
                                                     2        0.1200000        0.05352699    0.00000000
                                                     2        0.1400000       -0.25123645    0.00000000
                                                     2        0.1600000        0.32188106    0.00000000
                                                     2        0.2200000       -0.25206857    0.00000000
                                                     2        0.3000000        0.19290477    0.00000000
                                                     2        0.5000000       -0.10129770    0.00000000
                                                     2        0.9000000        0.00314995    0.00000000
                                                     2        1.5000000        0.18401192    0.00000000
                                      S - F
                                                     0        0.0000010        0.08065976    0.00000000
                                                     2        0.1200000       -0.09231673    0.00000000
                                                     2        0.1600000       -0.03278082    0.00000000
                                                     2        0.2800000        0.38423402    0.00000000
                                                     2        0.6000000       -1.09357590    0.00000000
                                                     2        1.1000000        1.53099489    0.00000000
                                                     2        3.0000000       -2.63300202    0.00000000
                                      P - F
                                                     0        0.0000010       -0.11638665    0.00000000
                                                     2        0.1200000        0.35468655    0.00000000
                                                     2        0.1600000       -0.59160923    0.00000000
                                                     2        0.3000000        0.49390547    0.00000000
                                                     2        0.6000000       -0.37949835    0.00000000
                                                     2        1.6000000        0.89304688    0.00000000
                                      D - F
                                                     0        0.0000010        0.05443663    0.00000000
                                                     2        0.1200000       -0.29679479    0.00000000
                                                     2        0.1400000        0.36849872    0.00000000
                                                     2        0.2400000        0.02793449    0.00000000
                                                     2        0.4000000       -0.46312857    0.00000000
                                                     2        0.7000000        0.97587598    0.00000000
                                                     2        1.5000000       -2.43431102    0.00000000
   11          1            1
                                      F and up 
                                                     0        0.0000010       -0.00007675    0.00000000
                                                     2        0.1200000        0.05352699    0.00000000
                                                     2        0.1400000       -0.25123645    0.00000000
                                                     2        0.1600000        0.32188106    0.00000000
                                                     2        0.2200000       -0.25206857    0.00000000
                                                     2        0.3000000        0.19290477    0.00000000
                                                     2        0.5000000       -0.10129770    0.00000000
                                                     2        0.9000000        0.00314995    0.00000000
                                                     2        1.5000000        0.18401192    0.00000000
                                      S - F
                                                     0        0.0000010        0.08065976    0.00000000
                                                     2        0.1200000       -0.09231673    0.00000000
                                                     2        0.1600000       -0.03278082    0.00000000
                                                     2        0.2800000        0.38423402    0.00000000
                                                     2        0.6000000       -1.09357590    0.00000000
                                                     2        1.1000000        1.53099489    0.00000000
                                                     2        3.0000000       -2.63300202    0.00000000
                                      P - F
                                                     0        0.0000010       -0.11638665    0.00000000
                                                     2        0.1200000        0.35468655    0.00000000
                                                     2        0.1600000       -0.59160923    0.00000000
                                                     2        0.3000000        0.49390547    0.00000000
                                                     2        0.6000000       -0.37949835    0.00000000
                                                     2        1.6000000        0.89304688    0.00000000
                                      D - F
                                                     0        0.0000010        0.05443663    0.00000000
                                                     2        0.1200000       -0.29679479    0.00000000
                                                     2        0.1400000        0.36849872    0.00000000
                                                     2        0.2400000        0.02793449    0.00000000
                                                     2        0.4000000       -0.46312857    0.00000000
                                                     2        0.7000000        0.97587598    0.00000000
                                                     2        1.5000000       -2.43431102    0.00000000
 ======================================================================================================
   197 basis functions,   345 primitive gaussians,   211 cartesian basis functions
    25 alpha electrons       25 beta electrons
       nuclear repulsion energy       278.2213146563 Hartrees.
 NAtoms=   11 NActive=   11 NUniq=   11 SFac= 1.00D+00 NAtFMM=   60 NAOKFM=F Big=F
   2 Symmetry operations used in ECPInt.
 ECPInt:  NShTT=    3486 NPrTT=   18282 LenC2=    3483 LenP2D=   14083.
 LDataN:  DoStor=T MaxTD1= 6 Len=  172
 Initial guess from the checkpoint file:  "1H-pyrimidin-4-one.chk"
 B after Tr=     0.000000   -0.000000   -0.000000
         Rot=    1.000000   -0.000000    0.000000   -0.000000 Ang=  -0.00 deg.
 Initial guess orbital symmetries:
       Occupied  (A') (A') (A') (A') (A') (A') (A') (A') (A') (A')
                 (A') (A') (A') (A') (A') (A') (A') (A") (A') (A')
                 (A") (A') (A") (A') (A")
       Virtual   (A') (A') (A') (A') (A") (A") (A') (A') (A') (A")
                 (A") (A') (A') (A') (A") (A') (A') (A') (A") (A')
                 (A') (A") (A') (A') (A") (A') (A') (A") (A') (A')
                 (A') (A') (A") (A') (A') (A") (A') (A') (A') (A')
                 (A") (A') (A') (A") (A') (A') (A") (A') (A") (A')
                 (A') (A') (A") (A') (A') (A') (A') (A') (A') (A")
                 (A") (A') (A') (A") (A') (A") (A') (A') (A') (A")
                 (A') (A') (A') (A') (A") (A") (A') (A") (A") (A')
                 (A') (A') (A') (A') (A") (A") (A') (A') (A") (A')
                 (A') (A") (A') (A") (A') (A") (A') (A') (A") (A')
                 (A') (A') (A') (A") (A') (A") (A') (A') (A') (A")
                 (A") (A') (A") (A') (A') (A') (A") (A") (A') (A')
                 (A") (A') (A") (A') (A') (A') (A") (A") (A') (A')
                 (A") (A') (A') (A') (A") (A") (A') (A') (A') (A')
                 (A") (A') (A') (A') (A') (A') (A') (A") (A') (A')
                 (A") (A") (A') (A') (A') (A") (A') (A') (A') (A')
                 (A') (A') (A') (A') (A') (A') (A") (A") (A') (A')
                 (A') (A')
 >>>>>>>>>> Convergence criterion not met.
 SCF Done:  E(RHF) =  -337.940197545     A.U. after    2 cycles
            NFock=  1  Conv=0.26D-01     -V/T= 2.0013

 **********************************************************************

            Population analysis using the SCF Density.

 **********************************************************************

 Orbital symmetries:
       Occupied  (A') (A') (A') (A') (A') (A') (A') (A') (A') (A')
                 (A') (A') (A') (A') (A') (A') (A') (A") (A') (A')
                 (A") (A') (A") (A') (A")
       Virtual   (A') (A') (A') (A') (A") (A") (A') (A') (A") (A')
                 (A") (A') (A") (A') (A') (A') (A') (A') (A") (A')
                 (A') (A") (A') (A') (A') (A") (A') (A") (A') (A')
                 (A') (A') (A") (A') (A') (A") (A') (A') (A') (A')
                 (A") (A') (A') (A') (A") (A') (A") (A') (A") (A')
                 (A') (A') (A") (A') (A') (A') (A') (A') (A') (A")
                 (A") (A') (A') (A") (A') (A") (A') (A') (A') (A")
                 (A') (A') (A') (A') (A") (A") (A') (A") (A') (A")
                 (A') (A') (A') (A") (A') (A") (A') (A') (A") (A')
                 (A') (A") (A') (A") (A') (A") (A') (A') (A") (A')
                 (A') (A') (A') (A") (A") (A') (A') (A') (A') (A")
                 (A") (A') (A") (A') (A') (A") (A') (A') (A') (A")
                 (A') (A") (A") (A') (A') (A') (A") (A') (A") (A')
                 (A") (A') (A") (A') (A") (A') (A') (A') (A") (A")
                 (A') (A') (A') (A") (A') (A') (A') (A") (A') (A")
                 (A') (A') (A') (A') (A') (A') (A') (A') (A') (A')
                 (A') (A') (A') (A') (A') (A') (A") (A') (A") (A')
                 (A') (A')
 The electronic state is 1-A'.
 Alpha  occ. eigenvalues --  -20.50132 -15.58884 -15.50404 -11.36006 -11.35065
 Alpha  occ. eigenvalues --  -11.32858 -11.25488  -1.44579  -1.34400  -1.21989
 Alpha  occ. eigenvalues --   -1.09252  -0.94046  -0.90878  -0.83553  -0.76633
 Alpha  occ. eigenvalues --   -0.70439  -0.66436  -0.65648  -0.63092  -0.59840
 Alpha  occ. eigenvalues --   -0.54555  -0.49095  -0.46099  -0.41317  -0.36801
 Alpha virt. eigenvalues --    0.01224   0.03250   0.04043   0.05993   0.07564
 Alpha virt. eigenvalues --    0.07953   0.08596   0.10275   0.10992   0.11290
 Alpha virt. eigenvalues --    0.11457   0.12519   0.13600   0.13705   0.14645
 Alpha virt. eigenvalues --    0.15466   0.17320   0.17653   0.17913   0.18348
 Alpha virt. eigenvalues --    0.20515   0.21370   0.22758   0.26821   0.27608
 Alpha virt. eigenvalues --    0.27726   0.27894   0.28152   0.29935   0.30781
 Alpha virt. eigenvalues --    0.32643   0.33238   0.33460   0.34778   0.35981
 Alpha virt. eigenvalues --    0.36079   0.36730   0.37388   0.37715   0.40081
 Alpha virt. eigenvalues --    0.41844   0.42299   0.44670   0.46466   0.47254
 Alpha virt. eigenvalues --    0.48393   0.48911   0.51462   0.52248   0.54048
 Alpha virt. eigenvalues --    0.55819   0.56607   0.57921   0.59486   0.59958
 Alpha virt. eigenvalues --    0.60264   0.61329   0.63866   0.64263   0.65411
 Alpha virt. eigenvalues --    0.67629   0.67865   0.68395   0.71859   0.72397
 Alpha virt. eigenvalues --    0.73148   0.73934   0.77225   0.77560   0.79345
 Alpha virt. eigenvalues --    0.81611   0.82766   0.83595   0.85237   0.86732
 Alpha virt. eigenvalues --    0.87891   0.88046   0.89794   0.94907   0.94991
 Alpha virt. eigenvalues --    0.96301   0.97327   0.97886   1.02383   1.02489
 Alpha virt. eigenvalues --    1.04434   1.06264   1.08040   1.09279   1.12942
 Alpha virt. eigenvalues --    1.14194   1.16805   1.18920   1.20717   1.27871
 Alpha virt. eigenvalues --    1.30816   1.31298   1.35186   1.36031   1.40696
 Alpha virt. eigenvalues --    1.44487   1.44719   1.47687   1.48271   1.52901
 Alpha virt. eigenvalues --    1.54340   1.56180   1.59136   1.61905   1.62719
 Alpha virt. eigenvalues --    1.63455   1.65417   1.71405   1.72162   1.74009
 Alpha virt. eigenvalues --    1.75737   1.76985   1.82256   1.86204   1.86349
 Alpha virt. eigenvalues --    1.88640   1.89086   1.94075   1.95915   1.98292
 Alpha virt. eigenvalues --    2.00494   2.03687   2.05725   2.07492   2.12014
 Alpha virt. eigenvalues --    2.12725   2.14619   2.15031   2.16642   2.21100
 Alpha virt. eigenvalues --    2.21154   2.23904   2.26765   2.27606   2.29443
 Alpha virt. eigenvalues --    2.30703   2.32865   2.36434   2.37698   2.43889
 Alpha virt. eigenvalues --    2.48938   2.52101   2.52939   2.54956   2.56735
 Alpha virt. eigenvalues --    2.57437   2.60781   2.65366   2.70399   2.78473
 Alpha virt. eigenvalues --    2.84240   2.92734   2.95870   3.03935   3.09472
 Alpha virt. eigenvalues --    3.13136   3.18413   3.23719   3.29888   3.49862
 Alpha virt. eigenvalues --    3.60101   3.89039   3.92741   3.93017   3.98972
 Alpha virt. eigenvalues --    4.13843   4.31985
          Condensed to atoms (all electrons):
 Mulliken charges:
               1
     1  C    0.713077
     2  C   -0.237854
     3  C   -0.682241
     4  C    0.525283
     5  N    0.811505
     6  N    0.492453
     7  O   -1.310044
     8  H   -0.176111
     9  H   -0.220395
    10  H   -0.047063
    11  H    0.131389
 Sum of Mulliken charges =  -0.00000
 Mulliken charges with hydrogens summed into heavy atoms:
               1
     1  C    0.536966
     2  C   -0.458249
     3  C   -0.729304
     4  C    0.525283
     5  N    0.811505
     6  N    0.623842
     7  O   -1.310044
 Electronic spatial extent (au):  <R**2>=            604.2231
 Charge=             -0.0000 electrons
 Dipole moment (field-independent basis, Debye):
    X=              1.8338    Y=             -8.0254    Z=             -0.0000  Tot=              8.2323

 Test job not archived.
 1\1\GINC-SE214\SP\RHF\Aug-CC-pVDZ\C4H4N2O1\OHZDE\05-Apr-2025\0\\#t hf 
 aug-cc-pvdz iop(5/13=1,5/36=2,99/5=2) pseudo=read geom=check guess=(re
 ad,tcheck) scf=(maxcycle=1)\\title\\0,1\C,0,1.223728,0.268149,0.\C,0,1
 .156706,-1.073788,0.\C,0,-1.20348,-0.92161,0.\C,0,0.,1.076085,0.\N,0,-
 1.223091,0.359317,0.\N,0,-0.072567,-1.688836,0.\O,0,0.011892,2.291393,
 0.\H,0,2.174691,0.778052,0.\H,0,2.019381,-1.723884,0.\H,0,-2.135162,-1
 .480194,0.\H,0,-0.146168,-2.691497,0.\\Version=ES64L-G16RevC.01\State=
 1-A'\HF=-337.9401975\RMSD=2.552e-02\Dipole=0.7214563,-3.1574527,0.\Qua
 drupole=2.1487867,-0.2968989,-1.8518878,2.5462188,0.,0.\PG=CS [SG(C4H4
 N2O1)]\\@


 ERWIN WITH HIS PSI CAN DO
 CALCULATIONS QUITE A FEW.
 BUT ONE THING HAS NOT BEEN SEEN
 JUST WHAT DOES PSI REALLY MEAN.
 -- WALTER HUCKEL, TRANS. BY FELIX BLOCH
 Job cpu time:       0 days  0 hours  0 minutes 57.8 seconds.
 Elapsed time:       0 days  0 hours  0 minutes  4.7 seconds.
 File lengths (MBytes):  RWF=     10 Int=      0 D2E=      0 Chk=      6 Scr=      1
 Normal termination of Gaussian 16 at Sat Apr  5 22:29:26 2025.
