 Entering Gaussian System, Link 0=g16
 Input=2-4-6-trichloro-1-3-5-triazine.gjf
 Output=2-4-6-trichloro-1-3-5-triazine.log
 Initial command:
 /arc/software/Gaussian/g16.c01/l1.exe "/tmp/slurm/4815050/Gau-1873191.inp" -scrdir="/tmp/slurm/4815050/"
 Entering Link 1 = /arc/software/Gaussian/g16.c01/l1.exe PID=   1873194.
  
 Copyright (c) 1988-2019, Gaussian, Inc.  All Rights Reserved.
  
 This is part of the Gaussian(R) 16 program.  It is based on
 the Gaussian(R) 09 system (copyright 2009, Gaussian, Inc.),
 the Gaussian(R) 03 system (copyright 2003, Gaussian, Inc.),
 the Gaussian(R) 98 system (copyright 1998, Gaussian, Inc.),
 the Gaussian(R) 94 system (copyright 1995, Gaussian, Inc.),
 the Gaussian 92(TM) system (copyright 1992, Gaussian, Inc.),
 the Gaussian 90(TM) system (copyright 1990, Gaussian, Inc.),
 the Gaussian 88(TM) system (copyright 1988, Gaussian, Inc.),
 the Gaussian 86(TM) system (copyright 1986, Carnegie Mellon
 University), and the Gaussian 82(TM) system (copyright 1983,
 Carnegie Mellon University). Gaussian is a federally registered
 trademark of Gaussian, Inc.
  
 This software contains proprietary and confidential information,
 including trade secrets, belonging to Gaussian, Inc.
  
 This software is provided under written license and may be
 used, copied, transmitted, or stored only in accord with that
 written license.
  
 The following legend is applicable only to US Government
 contracts under FAR:
  
                    RESTRICTED RIGHTS LEGEND
  
 Use, reproduction and disclosure by the US Government is
 subject to restrictions as set forth in subparagraphs (a)
 and (c) of the Commercial Computer Software - Restricted
 Rights clause in FAR 52.227-19.
  
 Gaussian, Inc.
 340 Quinnipiac St., Bldg. 40, Wallingford CT 06492
  
  
 ---------------------------------------------------------------
 Warning -- This program may not be used in any manner that
 competes with the business of Gaussian, Inc. or will provide
 assistance to any competitor of Gaussian, Inc.  The licensee
 of this program is prohibited from giving any competitor of
 Gaussian, Inc. access to this program.  By using this program,
 the user acknowledges that Gaussian, Inc. is engaged in the
 business of creating and licensing software in the field of
 computational chemistry and represents and warrants to the
 licensee that it is not a competitor of Gaussian, Inc. and that
 it will not use this program in any manner prohibited above.
 ---------------------------------------------------------------
  

 Cite this work as:
 Gaussian 16, Revision C.01,
 M. J. Frisch, G. W. Trucks, H. B. Schlegel, G. E. Scuseria, 
 M. A. Robb, J. R. Cheeseman, G. Scalmani, V. Barone, 
 G. A. Petersson, H. Nakatsuji, X. Li, M. Caricato, A. V. Marenich, 
 J. Bloino, B. G. Janesko, R. Gomperts, B. Mennucci, H. P. Hratchian, 
 J. V. Ortiz, A. F. Izmaylov, J. L. Sonnenberg, D. Williams-Young, 
 F. Ding, F. Lipparini, F. Egidi, J. Goings, B. Peng, A. Petrone, 
 T. Henderson, D. Ranasinghe, V. G. Zakrzewski, J. Gao, N. Rega, 
 G. Zheng, W. Liang, M. Hada, M. Ehara, K. Toyota, R. Fukuda, 
 J. Hasegawa, M. Ishida, T. Nakajima, Y. Honda, O. Kitao, H. Nakai, 
 T. Vreven, K. Throssell, J. A. Montgomery, Jr., J. E. Peralta, 
 F. Ogliaro, M. J. Bearpark, J. J. Heyd, E. N. Brothers, K. N. Kudin, 
 V. N. Staroverov, T. A. Keith, R. Kobayashi, J. Normand, 
 K. Raghavachari, A. P. Rendell, J. C. Burant, S. S. Iyengar, 
 J. Tomasi, M. Cossi, J. M. Millam, M. Klene, C. Adamo, R. Cammi, 
 J. W. Ochterski, R. L. Martin, K. Morokuma, O. Farkas, 
 J. B. Foresman, and D. J. Fox, Gaussian, Inc., Wallingford CT, 2019.
 
 ******************************************
 Gaussian 16:  ES64L-G16RevC.01  3-Jul-2019
                 5-Apr-2025 
 ******************************************
 %nprocs=16
 Will use up to   16 processors via shared memory.
 %mem=30GB
 %chk=2-4-6-trichloro-1-3-5-triazine.chk
 ----------------------------------------------------------------------
 #t hf aug-cc-pvdz symm=none int=(grid=ultrafine) guess=(read,tcheck) s
 table=(opt,rrhf)
 ----------------------------------------------------------------------
 -----
 title
 -----
 Symbolic Z-matrix:
 Charge =  0 Multiplicity = 1
 C                     0.        1.27854   0. 
 C                     1.10725  -0.63927   0. 
 C                    -1.10725  -0.63927   0. 
 N                     0.       -1.36644   0. 
 N                    -1.18337   0.68322   0. 
 N                     1.18337   0.68322   0. 
 Cl                    0.        3.00606   0. 
 Cl                    2.60333  -1.50303   0. 
 Cl                   -2.60333  -1.50303   0. 
 
                    Distance matrix (angstroms):
                    1          2          3          4          5
     1  C    0.000000
     2  C    2.214500   0.000000
     3  C    2.214500   2.214500   0.000000
     4  N    2.644980   1.324679   1.324679   0.000000
     5  N    1.324679   2.644980   1.324679   2.366740   0.000000
     6  N    1.324679   1.324679   2.644980   2.366740   2.366740
     7  Cl   1.727520   3.809784   3.809784   4.372500   2.606907
     8  Cl   3.809784   1.727520   3.809784   2.606907   4.372500
     9  Cl   3.809784   3.809784   1.727520   2.606907   2.606907
                    6          7          8          9
     6  N    0.000000
     7  Cl   2.606907   0.000000
     8  Cl   2.606907   5.206652   0.000000
     9  Cl   4.372500   5.206652   5.206652   0.000000
 Symmetry turned off by external request.
 Rotational constants (GHZ):           0.9313474           0.9313474           0.4656737
   219 basis functions,   501 primitive gaussians,   237 cartesian basis functions
    45 alpha electrons       45 beta electrons
       nuclear repulsion energy       639.5509788138 Hartrees.
 NAtoms=    9 NActive=    9 NUniq=    9 SFac= 1.00D+00 NAtFMM=   60 NAOKFM=F Big=F
 ExpMin= 4.04D-02 ExpMax= 1.28D+05 ExpMxC= 1.24D+03 IAcc=3 IRadAn=         5 AccDes= 0.00D+00
 Harris functional with IExCor=  205 and IRadAn=       5 diagonalized for initial guess.
 HarFok:  IExCor=  205 AccDes= 0.00D+00 IRadAn=         5 IDoV= 1 UseB2=F ITyADJ=14
 ICtDFT=  3500011 ScaDFX=  1.000000  1.000000  1.000000  1.000000
 FoFCou: FMM=F IPFlag=           0 FMFlag=      100000 FMFlg1=           0
         NFxFlg=           0 DoJE=T BraDBF=F KetDBF=T FulRan=T
         wScrn=  0.000000 ICntrl=       500 IOpCl=  0 I1Cent=   200000004 NGrid=           0
         NMat0=    1 NMatS0=      1 NMatT0=    0 NMatD0=    1 NMtDS0=    0 NMtDT0=    0
 Symmetry not used in FoFCou.
 SCF Done:  E(RHF) =  -1655.49319391     A.U. after   12 cycles
            NFock= 12  Conv=0.87D-08     -V/T= 2.0002

 **********************************************************************

            Population analysis using the SCF Density.

 **********************************************************************

 Alpha  occ. eigenvalues -- -104.88084-104.88084-104.88084 -15.63434 -15.63434
 Alpha  occ. eigenvalues --  -15.63429 -11.44354 -11.44354 -11.44353 -10.60739
 Alpha  occ. eigenvalues --  -10.60739 -10.60739  -8.07521  -8.07521  -8.07521
 Alpha  occ. eigenvalues --   -8.07158  -8.07158  -8.07158  -8.07134  -8.07134
 Alpha  occ. eigenvalues --   -8.07134  -1.43531  -1.29389  -1.29389  -1.16470
 Alpha  occ. eigenvalues --   -1.16470  -1.15536  -0.92791  -0.92791  -0.82308
 Alpha  occ. eigenvalues --   -0.72989  -0.68798  -0.63258  -0.63258  -0.61355
 Alpha  occ. eigenvalues --   -0.56132  -0.56132  -0.50527  -0.50527  -0.49112
 Alpha  occ. eigenvalues --   -0.48934  -0.48227  -0.48227  -0.44715  -0.44715
 Alpha virt. eigenvalues --    0.05210   0.05210   0.05426   0.07072   0.07072
 Alpha virt. eigenvalues --    0.07868   0.08889   0.10007   0.10007   0.13155
 Alpha virt. eigenvalues --    0.13935   0.13935   0.14391   0.14391   0.14441
 Alpha virt. eigenvalues --    0.16515   0.18389   0.18389   0.19193   0.19193
 Alpha virt. eigenvalues --    0.21142   0.21142   0.22431   0.23806   0.23878
 Alpha virt. eigenvalues --    0.23878   0.24405   0.24874   0.24874   0.25897
 Alpha virt. eigenvalues --    0.26636   0.26636   0.27446   0.28700   0.31155
 Alpha virt. eigenvalues --    0.31516   0.31516   0.35892   0.35892   0.37820
 Alpha virt. eigenvalues --    0.37820   0.39779   0.40408   0.41595   0.42374
 Alpha virt. eigenvalues --    0.42374   0.45482   0.45482   0.49425   0.49425
 Alpha virt. eigenvalues --    0.51516   0.51668   0.54945   0.54945   0.56431
 Alpha virt. eigenvalues --    0.56431   0.59310   0.62898   0.66293   0.66293
 Alpha virt. eigenvalues --    0.66608   0.68068   0.68419   0.68419   0.69123
 Alpha virt. eigenvalues --    0.69879   0.69879   0.76143   0.76143   0.77590
 Alpha virt. eigenvalues --    0.77590   0.79532   0.79590   0.79590   0.84622
 Alpha virt. eigenvalues --    0.85397   0.85686   0.85686   0.85742   0.85742
 Alpha virt. eigenvalues --    0.87932   0.90086   0.94129   0.94244   0.94711
 Alpha virt. eigenvalues --    0.94711   0.97903   0.97903   0.99166   0.99166
 Alpha virt. eigenvalues --    1.03668   1.10134   1.10134   1.10916   1.10986
 Alpha virt. eigenvalues --    1.13090   1.16426   1.16426   1.16971   1.16971
 Alpha virt. eigenvalues --    1.21607   1.21607   1.24899   1.26748   1.26748
 Alpha virt. eigenvalues --    1.31839   1.32438   1.34818   1.34818   1.35218
 Alpha virt. eigenvalues --    1.38741   1.38741   1.40294   1.41121   1.41121
 Alpha virt. eigenvalues --    1.42099   1.42099   1.42428   1.42780   1.42780
 Alpha virt. eigenvalues --    1.44522   1.49675   1.51578   1.51578   1.53906
 Alpha virt. eigenvalues --    1.56946   1.56946   1.58087   1.61766   1.61766
 Alpha virt. eigenvalues --    1.80588   1.80588   1.80899   1.80899   1.87220
 Alpha virt. eigenvalues --    1.91648   1.91648   1.91659   1.94036   1.94036
 Alpha virt. eigenvalues --    1.96801   1.99410   2.00257   2.10070   2.10070
 Alpha virt. eigenvalues --    2.15717   2.15717   2.25166   2.29257   2.30281
 Alpha virt. eigenvalues --    2.30281   2.45249   2.45249   2.63196   2.63196
 Alpha virt. eigenvalues --    2.64274   2.64817   2.64817   2.68107   2.72304
 Alpha virt. eigenvalues --    2.77378   2.77378   2.83260   2.83260   3.00933
 Alpha virt. eigenvalues --    3.00933   3.02758   3.23765   3.24220   3.24220
 Alpha virt. eigenvalues --    3.31732   3.37813   3.37813   3.66226
          Condensed to atoms (all electrons):
 Mulliken charges:
               1
     1  C    0.366472
     2  C    0.366473
     3  C    0.366473
     4  N   -0.390140
     5  N   -0.390139
     6  N   -0.390139
     7  Cl   0.023666
     8  Cl   0.023667
     9  Cl   0.023667
 Sum of Mulliken charges =  -0.00000
 Mulliken charges with hydrogens summed into heavy atoms:
               1
     1  C    0.366472
     2  C    0.366473
     3  C    0.366473
     4  N   -0.390140
     5  N   -0.390139
     6  N   -0.390139
     7  Cl   0.023666
     8  Cl   0.023667
     9  Cl   0.023667
 Electronic spatial extent (au):  <R**2>=           2051.0259
 Charge=             -0.0000 electrons
 Dipole moment (field-independent basis, Debye):
    X=              0.0000    Y=             -0.0000    Z=             -0.0000  Tot=              0.0000
 NROrb=    219 NOA=    45 NOB=    45 NVA=   174 NVB=   174

 **** Warning!!: The largest alpha MO coefficient is  0.49348591D+02

    12 initial guesses have been made.
 Iteration     1 Dimension    12 NMult     0 NNew     12
 New state      1 was old state      3
 Iteration     2 Dimension    24 NMult    12 NNew     12
 Iteration     3 Dimension    27 NMult    24 NNew      3
 Iteration     4 Dimension    30 NMult    27 NNew      3
 Iteration     5 Dimension    33 NMult    30 NNew      3
 Iteration     6 Dimension    36 NMult    33 NNew      3
 ***********************************************************************
 Stability analysis using <AA,BB:AA,BB> singles matrix:
 ***********************************************************************
 Ground to excited state transition densities written to RWF  633

 Eigenvectors of the stability matrix:
 
 Excited state symmetry could not be determined.
 Eigenvector   1:      Singlet-?Sym  Eigenvalue= 0.2103078  <S**2>=0.000
      36 -> 46        -0.19341
      37 -> 47         0.19341
      44 -> 46         0.45126
      45 -> 47        -0.45126
 The wavefunction is stable under the perturbations considered.
 The wavefunction is already stable.

 **********************************************************************

            Population analysis using the SCF Density.

 **********************************************************************

 Alpha  occ. eigenvalues -- -104.88084-104.88084-104.88084 -15.63434 -15.63434
 Alpha  occ. eigenvalues --  -15.63429 -11.44354 -11.44354 -11.44353 -10.60739
 Alpha  occ. eigenvalues --  -10.60739 -10.60739  -8.07521  -8.07521  -8.07521
 Alpha  occ. eigenvalues --   -8.07158  -8.07158  -8.07158  -8.07134  -8.07134
 Alpha  occ. eigenvalues --   -8.07134  -1.43531  -1.29389  -1.29389  -1.16470
 Alpha  occ. eigenvalues --   -1.16470  -1.15536  -0.92791  -0.92791  -0.82308
 Alpha  occ. eigenvalues --   -0.72989  -0.68798  -0.63258  -0.63258  -0.61355
 Alpha  occ. eigenvalues --   -0.56132  -0.56132  -0.50527  -0.50527  -0.49112
 Alpha  occ. eigenvalues --   -0.48934  -0.48227  -0.48227  -0.44715  -0.44715
 Alpha virt. eigenvalues --    0.05210   0.05210   0.05426   0.07072   0.07072
 Alpha virt. eigenvalues --    0.07868   0.08889   0.10007   0.10007   0.13155
 Alpha virt. eigenvalues --    0.13935   0.13935   0.14391   0.14391   0.14441
 Alpha virt. eigenvalues --    0.16515   0.18389   0.18389   0.19193   0.19193
 Alpha virt. eigenvalues --    0.21142   0.21142   0.22431   0.23806   0.23878
 Alpha virt. eigenvalues --    0.23878   0.24405   0.24874   0.24874   0.25897
 Alpha virt. eigenvalues --    0.26636   0.26636   0.27446   0.28700   0.31155
 Alpha virt. eigenvalues --    0.31516   0.31516   0.35892   0.35892   0.37820
 Alpha virt. eigenvalues --    0.37820   0.39779   0.40408   0.41595   0.42374
 Alpha virt. eigenvalues --    0.42374   0.45482   0.45482   0.49425   0.49425
 Alpha virt. eigenvalues --    0.51516   0.51668   0.54945   0.54945   0.56431
 Alpha virt. eigenvalues --    0.56431   0.59310   0.62898   0.66293   0.66293
 Alpha virt. eigenvalues --    0.66608   0.68068   0.68419   0.68419   0.69123
 Alpha virt. eigenvalues --    0.69879   0.69879   0.76143   0.76143   0.77590
 Alpha virt. eigenvalues --    0.77590   0.79532   0.79590   0.79590   0.84622
 Alpha virt. eigenvalues --    0.85397   0.85686   0.85686   0.85742   0.85742
 Alpha virt. eigenvalues --    0.87932   0.90086   0.94129   0.94244   0.94711
 Alpha virt. eigenvalues --    0.94711   0.97903   0.97903   0.99166   0.99166
 Alpha virt. eigenvalues --    1.03668   1.10134   1.10134   1.10916   1.10986
 Alpha virt. eigenvalues --    1.13090   1.16426   1.16426   1.16971   1.16971
 Alpha virt. eigenvalues --    1.21607   1.21607   1.24899   1.26748   1.26748
 Alpha virt. eigenvalues --    1.31839   1.32438   1.34818   1.34818   1.35218
 Alpha virt. eigenvalues --    1.38741   1.38741   1.40294   1.41121   1.41121
 Alpha virt. eigenvalues --    1.42099   1.42099   1.42428   1.42780   1.42780
 Alpha virt. eigenvalues --    1.44522   1.49675   1.51578   1.51578   1.53906
 Alpha virt. eigenvalues --    1.56946   1.56946   1.58087   1.61766   1.61766
 Alpha virt. eigenvalues --    1.80588   1.80588   1.80899   1.80899   1.87220
 Alpha virt. eigenvalues --    1.91648   1.91648   1.91659   1.94036   1.94036
 Alpha virt. eigenvalues --    1.96801   1.99410   2.00257   2.10070   2.10070
 Alpha virt. eigenvalues --    2.15717   2.15717   2.25166   2.29257   2.30281
 Alpha virt. eigenvalues --    2.30281   2.45249   2.45249   2.63196   2.63196
 Alpha virt. eigenvalues --    2.64274   2.64817   2.64817   2.68107   2.72304
 Alpha virt. eigenvalues --    2.77378   2.77378   2.83260   2.83260   3.00933
 Alpha virt. eigenvalues --    3.00933   3.02758   3.23765   3.24220   3.24220
 Alpha virt. eigenvalues --    3.31732   3.37813   3.37813   3.66226
          Condensed to atoms (all electrons):
 Mulliken charges:
               1
     1  C    0.366472
     2  C    0.366473
     3  C    0.366473
     4  N   -0.390140
     5  N   -0.390139
     6  N   -0.390139
     7  Cl   0.023666
     8  Cl   0.023667
     9  Cl   0.023667
 Sum of Mulliken charges =  -0.00000
 Mulliken charges with hydrogens summed into heavy atoms:
               1
     1  C    0.366472
     2  C    0.366473
     3  C    0.366473
     4  N   -0.390140
     5  N   -0.390139
     6  N   -0.390139
     7  Cl   0.023666
     8  Cl   0.023667
     9  Cl   0.023667
 Electronic spatial extent (au):  <R**2>=           2051.0259
 Charge=             -0.0000 electrons
 Dipole moment (field-independent basis, Debye):
    X=              0.0000    Y=             -0.0000    Z=             -0.0000  Tot=              0.0000
 Unable to Open any file for archive entry.
 1\1\GINC-SE164\Stability\RHF\Aug-CC-pVDZ\C3Cl3N3\OHZDE\05-Apr-2025\0\\
 #t hf aug-cc-pvdz symm=none int=(grid=ultrafine) guess=(read,tcheck) s
 table=(opt,rrhf)\\title\\0,1\C,0,0.,1.278542,0.\C,0,1.10725,-0.639271,
 0.\C,0,-1.10725,-0.639271,0.\N,0,0.,-1.366438,0.\N,0,-1.18337,0.683219
 ,0.\N,0,1.18337,0.683219,0.\Cl,0,0.,3.006062,0.\Cl,0,2.603326,-1.50303
 1,0.\Cl,0,-2.603326,-1.503031,0.\\Version=ES64L-G16RevC.01\HF=-1655.49
 31939\RMSD=8.743e-09\Dipole=0.,-0.0000001,0.\Quadrupole=-0.7684602,-0.
 7684671,1.5369273,0.,0.,0.\PG=Unknown\\@
 The archive entry for this job was punched.


 NOTHING PUZZLES ME MORE THAN TIME AND SPACE; AND YET NOTHING TROUBLES ME LESS
                                                          -- CHARLES LAMB (1810)
 Job cpu time:       0 days  0 hours  2 minutes 26.5 seconds.
 Elapsed time:       0 days  0 hours  0 minutes 27.1 seconds.
 File lengths (MBytes):  RWF=    330 Int=      0 D2E=      0 Chk=      8 Scr=      1
 Normal termination of Gaussian 16 at Sat Apr  5 22:34:06 2025.
 Initial command:
 /arc/software/Gaussian/g16.c01/l1.exe "/tmp/slurm/4815050/Gau-1873191.inp" -scrdir="/tmp/slurm/4815050/"
 Entering Link 1 = /arc/software/Gaussian/g16.c01/l1.exe PID=   1873409.
  
 Copyright (c) 1988-2019, Gaussian, Inc.  All Rights Reserved.
  
 This is part of the Gaussian(R) 16 program.  It is based on
 the Gaussian(R) 09 system (copyright 2009, Gaussian, Inc.),
 the Gaussian(R) 03 system (copyright 2003, Gaussian, Inc.),
 the Gaussian(R) 98 system (copyright 1998, Gaussian, Inc.),
 the Gaussian(R) 94 system (copyright 1995, Gaussian, Inc.),
 the Gaussian 92(TM) system (copyright 1992, Gaussian, Inc.),
 the Gaussian 90(TM) system (copyright 1990, Gaussian, Inc.),
 the Gaussian 88(TM) system (copyright 1988, Gaussian, Inc.),
 the Gaussian 86(TM) system (copyright 1986, Carnegie Mellon
 University), and the Gaussian 82(TM) system (copyright 1983,
 Carnegie Mellon University). Gaussian is a federally registered
 trademark of Gaussian, Inc.
  
 This software contains proprietary and confidential information,
 including trade secrets, belonging to Gaussian, Inc.
  
 This software is provided under written license and may be
 used, copied, transmitted, or stored only in accord with that
 written license.
  
 The following legend is applicable only to US Government
 contracts under FAR:
  
                    RESTRICTED RIGHTS LEGEND
  
 Use, reproduction and disclosure by the US Government is
 subject to restrictions as set forth in subparagraphs (a)
 and (c) of the Commercial Computer Software - Restricted
 Rights clause in FAR 52.227-19.
  
 Gaussian, Inc.
 340 Quinnipiac St., Bldg. 40, Wallingford CT 06492
  
  
 ---------------------------------------------------------------
 Warning -- This program may not be used in any manner that
 competes with the business of Gaussian, Inc. or will provide
 assistance to any competitor of Gaussian, Inc.  The licensee
 of this program is prohibited from giving any competitor of
 Gaussian, Inc. access to this program.  By using this program,
 the user acknowledges that Gaussian, Inc. is engaged in the
 business of creating and licensing software in the field of
 computational chemistry and represents and warrants to the
 licensee that it is not a competitor of Gaussian, Inc. and that
 it will not use this program in any manner prohibited above.
 ---------------------------------------------------------------
  

 Cite this work as:
 Gaussian 16, Revision C.01,
 M. J. Frisch, G. W. Trucks, H. B. Schlegel, G. E. Scuseria, 
 M. A. Robb, J. R. Cheeseman, G. Scalmani, V. Barone, 
 G. A. Petersson, H. Nakatsuji, X. Li, M. Caricato, A. V. Marenich, 
 J. Bloino, B. G. Janesko, R. Gomperts, B. Mennucci, H. P. Hratchian, 
 J. V. Ortiz, A. F. Izmaylov, J. L. Sonnenberg, D. Williams-Young, 
 F. Ding, F. Lipparini, F. Egidi, J. Goings, B. Peng, A. Petrone, 
 T. Henderson, D. Ranasinghe, V. G. Zakrzewski, J. Gao, N. Rega, 
 G. Zheng, W. Liang, M. Hada, M. Ehara, K. Toyota, R. Fukuda, 
 J. Hasegawa, M. Ishida, T. Nakajima, Y. Honda, O. Kitao, H. Nakai, 
 T. Vreven, K. Throssell, J. A. Montgomery, Jr., J. E. Peralta, 
 F. Ogliaro, M. J. Bearpark, J. J. Heyd, E. N. Brothers, K. N. Kudin, 
 V. N. Staroverov, T. A. Keith, R. Kobayashi, J. Normand, 
 K. Raghavachari, A. P. Rendell, J. C. Burant, S. S. Iyengar, 
 J. Tomasi, M. Cossi, J. M. Millam, M. Klene, C. Adamo, R. Cammi, 
 J. W. Ochterski, R. L. Martin, K. Morokuma, O. Farkas, 
 J. B. Foresman, and D. J. Fox, Gaussian, Inc., Wallingford CT, 2019.
 
 ******************************************
 Gaussian 16:  ES64L-G16RevC.01  3-Jul-2019
                 5-Apr-2025 
 ******************************************
 %nprocs=16
 Will use up to   16 processors via shared memory.
 %mem=30GB
 %chk=2-4-6-trichloro-1-3-5-triazine.chk
 ----------------------------------------------------------------------
 #t hf aug-cc-pvdz iop(5/13=1,5/36=2,99/5=2) pseudo=read geom=check gue
 ss=(read,tcheck) scf=(maxcycle=1)
 ----------------------------------------------------------------------
 -----
 title
 -----
 Structure from the checkpoint file:  "2-4-6-trichloro-1-3-5-triazine.chk"
 Charge =  0 Multiplicity = 1
 Z-Matrix found in chk file.
 C,0,0.,1.278542,0.
 C,0,1.10725,-0.639271,0.
 C,0,-1.10725,-0.639271,0.
 N,0,0.,-1.366438,0.
 N,0,-1.18337,0.683219,0.
 N,0,1.18337,0.683219,0.
 Cl,0,0.,3.006062,0.
 Cl,0,2.603326,-1.503031,0.
 Cl,0,-2.603326,-1.503031,0.
 Recover connectivity data from disk.
                    Distance matrix (angstroms):
                    1          2          3          4          5
     1  C    0.000000
     2  C    2.214500   0.000000
     3  C    2.214500   2.214500   0.000000
     4  N    2.644980   1.324679   1.324679   0.000000
     5  N    1.324679   2.644980   1.324679   2.366740   0.000000
     6  N    1.324679   1.324679   2.644980   2.366740   2.366740
     7  Cl   1.727520   3.809784   3.809784   4.372500   2.606907
     8  Cl   3.809784   1.727520   3.809784   2.606907   4.372500
     9  Cl   3.809784   3.809784   1.727520   2.606907   2.606907
                    6          7          8          9
     6  N    0.000000
     7  Cl   2.606907   0.000000
     8  Cl   2.606907   5.206652   0.000000
     9  Cl   4.372500   5.206652   5.206652   0.000000
 This structure is nearly, but not quite of a higher symmetry.
 Consider Symm=Loose if the higher symmetry is desired.
 Framework group  C2V[C2(NCCl),SGV(C2Cl2N2)]
 Deg. of freedom     8
                         Standard orientation:                         
 ---------------------------------------------------------------------
 Center     Atomic      Atomic             Coordinates (Angstroms)
 Number     Number       Type             X           Y           Z
 ---------------------------------------------------------------------
      1          6           0       -0.000000    0.000000    1.278542
      2          6           0        0.000000    1.107250   -0.639271
      3          6           0       -0.000000   -1.107250   -0.639271
      4          7           0        0.000000   -0.000000   -1.366438
      5          7           0        0.000000   -1.183370    0.683219
      6          7           0        0.000000    1.183370    0.683219
      7         17           0       -0.000000    0.000000    3.006062
      8         17           0        0.000000    2.603326   -1.503031
      9         17           0       -0.000000   -2.603326   -1.503031
 ---------------------------------------------------------------------
 Rotational constants (GHZ):           0.9313474           0.9313474           0.4656737
 ======================================================================================================
                                       Pseudopotential Parameters
 ======================================================================================================
  Center     Atomic      Valence      Angular      Power
  Number     Number     Electrons     Momentum     of R      Exponent        Coefficient   SO-Coeffient
 ======================================================================================================
    1          6            6
                                      G and up 
                                                     0        0.0000010       -0.00007288    0.00000000
                                                     2        0.1200000        0.10466671    0.00000000
                                                     2        0.1400000       -0.65716157    0.00000000
                                                     2        0.1600000        1.18890794    0.00000000
                                                     2        0.2000000       -1.25772850    0.00000000
                                                     2        0.2600000        1.01188378    0.00000000
                                                     2        0.4000000       -1.09380874    0.00000000
                                                     2        0.5000000        0.96944888    0.00000000
                                                     2        1.0000000       -0.79256938    0.00000000
                                                     2        3.0000000        1.06443276    0.00000000
                                      S - G
                                                     0        0.0000010       -0.00635295    0.00000000
                                                     2        0.1200000        0.16918955    0.00000000
                                                     2        0.1600000       -0.38862576    0.00000000
                                                     2        0.2800000        0.25638263    0.00000000
                                                     2        0.5000000        0.29628419    0.00000000
                                                     2        0.9000000       -0.28791512    0.00000000
                                      P - G
                                                     0        0.0000010       -0.04756931    0.00000000
                                                     2        0.1200000        0.28430375    0.00000000
                                                     2        0.1600000       -0.69640032    0.00000000
                                                     2        0.2600000        1.13005668    0.00000000
                                                     2        0.4000000       -1.31433324    0.00000000
                                                     2        0.7000000        0.91526469    0.00000000
                                      D - G
                                                     0        0.0000010       -0.11496411    0.00000000
                                                     2        0.1200000        0.16620776    0.00000000
                                                     2        0.1800000       -0.30959819    0.00000000
                                                     2        0.3000000        0.16621458    0.00000000
                                                     2        0.6000000        0.27350556    0.00000000
                                      F - G
                                                     0        0.0000010        0.12037550    0.00000000
                                                     2        0.1200000       -0.48737077    0.00000000
                                                     2        0.1400000        0.58315350    0.00000000
                                                     2        0.3000000        0.00005188    0.00000000
                                                     2        0.5000000       -1.16063549    0.00000000
                                                     2        0.8000000        2.09053308    0.00000000
    2          6            6
                                      G and up 
                                                     0        0.0000010       -0.00007288    0.00000000
                                                     2        0.1200000        0.10466671    0.00000000
                                                     2        0.1400000       -0.65716157    0.00000000
                                                     2        0.1600000        1.18890794    0.00000000
                                                     2        0.2000000       -1.25772850    0.00000000
                                                     2        0.2600000        1.01188378    0.00000000
                                                     2        0.4000000       -1.09380874    0.00000000
                                                     2        0.5000000        0.96944888    0.00000000
                                                     2        1.0000000       -0.79256938    0.00000000
                                                     2        3.0000000        1.06443276    0.00000000
                                      S - G
                                                     0        0.0000010       -0.00635295    0.00000000
                                                     2        0.1200000        0.16918955    0.00000000
                                                     2        0.1600000       -0.38862576    0.00000000
                                                     2        0.2800000        0.25638263    0.00000000
                                                     2        0.5000000        0.29628419    0.00000000
                                                     2        0.9000000       -0.28791512    0.00000000
                                      P - G
                                                     0        0.0000010       -0.04756931    0.00000000
                                                     2        0.1200000        0.28430375    0.00000000
                                                     2        0.1600000       -0.69640032    0.00000000
                                                     2        0.2600000        1.13005668    0.00000000
                                                     2        0.4000000       -1.31433324    0.00000000
                                                     2        0.7000000        0.91526469    0.00000000
                                      D - G
                                                     0        0.0000010       -0.11496411    0.00000000
                                                     2        0.1200000        0.16620776    0.00000000
                                                     2        0.1800000       -0.30959819    0.00000000
                                                     2        0.3000000        0.16621458    0.00000000
                                                     2        0.6000000        0.27350556    0.00000000
                                      F - G
                                                     0        0.0000010        0.12037550    0.00000000
                                                     2        0.1200000       -0.48737077    0.00000000
                                                     2        0.1400000        0.58315350    0.00000000
                                                     2        0.3000000        0.00005188    0.00000000
                                                     2        0.5000000       -1.16063549    0.00000000
                                                     2        0.8000000        2.09053308    0.00000000
    3          6            6
                                      G and up 
                                                     0        0.0000010       -0.00007288    0.00000000
                                                     2        0.1200000        0.10466671    0.00000000
                                                     2        0.1400000       -0.65716157    0.00000000
                                                     2        0.1600000        1.18890794    0.00000000
                                                     2        0.2000000       -1.25772850    0.00000000
                                                     2        0.2600000        1.01188378    0.00000000
                                                     2        0.4000000       -1.09380874    0.00000000
                                                     2        0.5000000        0.96944888    0.00000000
                                                     2        1.0000000       -0.79256938    0.00000000
                                                     2        3.0000000        1.06443276    0.00000000
                                      S - G
                                                     0        0.0000010       -0.00635295    0.00000000
                                                     2        0.1200000        0.16918955    0.00000000
                                                     2        0.1600000       -0.38862576    0.00000000
                                                     2        0.2800000        0.25638263    0.00000000
                                                     2        0.5000000        0.29628419    0.00000000
                                                     2        0.9000000       -0.28791512    0.00000000
                                      P - G
                                                     0        0.0000010       -0.04756931    0.00000000
                                                     2        0.1200000        0.28430375    0.00000000
                                                     2        0.1600000       -0.69640032    0.00000000
                                                     2        0.2600000        1.13005668    0.00000000
                                                     2        0.4000000       -1.31433324    0.00000000
                                                     2        0.7000000        0.91526469    0.00000000
                                      D - G
                                                     0        0.0000010       -0.11496411    0.00000000
                                                     2        0.1200000        0.16620776    0.00000000
                                                     2        0.1800000       -0.30959819    0.00000000
                                                     2        0.3000000        0.16621458    0.00000000
                                                     2        0.6000000        0.27350556    0.00000000
                                      F - G
                                                     0        0.0000010        0.12037550    0.00000000
                                                     2        0.1200000       -0.48737077    0.00000000
                                                     2        0.1400000        0.58315350    0.00000000
                                                     2        0.3000000        0.00005188    0.00000000
                                                     2        0.5000000       -1.16063549    0.00000000
                                                     2        0.8000000        2.09053308    0.00000000
    4          7            7
                                      G and up 
                                                     0        0.0000010       -0.00039818    0.00000000
                                                     2        0.1200000       -0.37616123    0.00000000
                                                     2        0.1400000        2.13837358    0.00000000
                                                     2        0.1600000       -3.36562035    0.00000000
                                                     2        0.2000000        2.53463289    0.00000000
                                                     2        0.3000000       -1.98118833    0.00000000
                                                     2        0.5000000        4.06642919    0.00000000
                                                     2        0.7000000       -6.15327959    0.00000000
                                                     2        1.2000000       10.22492851    0.00000000
                                                     2        2.0000000      -14.94707511    0.00000000
                                      S - G
                                                     0        0.0000010        0.02721443    0.00000000
                                                     2        0.1200000       -0.60186009    0.00000000
                                                     2        0.1600000        1.10088134    0.00000000
                                                     2        0.2600000       -0.59857981    0.00000000
                                                     2        0.6000000        0.21288222    0.00000000
                                                     2        3.0000000        5.09059205    0.00000000
                                      P - G
                                                     0        0.0000010        0.40558062    0.00000000
                                                     2        0.1200000        0.81809854    0.00000000
                                                     2        0.1600000       -2.44952728    0.00000000
                                                     2        0.2800000        4.16638749    0.00000000
                                                     2        0.5000000       -6.02944147    0.00000000
                                                     2        1.1000000        5.78262914    0.00000000
                                      D - G
                                                     0        0.0000010       -0.62770267    0.00000000
                                                     2        0.1600000        0.91438653    0.00000000
                                                     2        0.2600000       -2.00568466    0.00000000
                                                     2        0.5000000        3.30798839    0.00000000
                                                     2        1.1000000       -3.91526108    0.00000000
                                      F - G
                                                     0        0.0000010        0.29726344    0.00000000
                                                     2        0.1200000       -0.41591527    0.00000000
                                                     2        0.1600000        0.51444439    0.00000000
                                                     2        0.4000000       -0.69401726    0.00000000
                                                     2        0.7000000        0.51478123    0.00000000
    5          7            7
                                      G and up 
                                                     0        0.0000010       -0.00039818    0.00000000
                                                     2        0.1200000       -0.37616123    0.00000000
                                                     2        0.1400000        2.13837358    0.00000000
                                                     2        0.1600000       -3.36562035    0.00000000
                                                     2        0.2000000        2.53463289    0.00000000
                                                     2        0.3000000       -1.98118833    0.00000000
                                                     2        0.5000000        4.06642919    0.00000000
                                                     2        0.7000000       -6.15327959    0.00000000
                                                     2        1.2000000       10.22492851    0.00000000
                                                     2        2.0000000      -14.94707511    0.00000000
                                      S - G
                                                     0        0.0000010        0.02721443    0.00000000
                                                     2        0.1200000       -0.60186009    0.00000000
                                                     2        0.1600000        1.10088134    0.00000000
                                                     2        0.2600000       -0.59857981    0.00000000
                                                     2        0.6000000        0.21288222    0.00000000
                                                     2        3.0000000        5.09059205    0.00000000
                                      P - G
                                                     0        0.0000010        0.40558062    0.00000000
                                                     2        0.1200000        0.81809854    0.00000000
                                                     2        0.1600000       -2.44952728    0.00000000
                                                     2        0.2800000        4.16638749    0.00000000
                                                     2        0.5000000       -6.02944147    0.00000000
                                                     2        1.1000000        5.78262914    0.00000000
                                      D - G
                                                     0        0.0000010       -0.62770267    0.00000000
                                                     2        0.1600000        0.91438653    0.00000000
                                                     2        0.2600000       -2.00568466    0.00000000
                                                     2        0.5000000        3.30798839    0.00000000
                                                     2        1.1000000       -3.91526108    0.00000000
                                      F - G
                                                     0        0.0000010        0.29726344    0.00000000
                                                     2        0.1200000       -0.41591527    0.00000000
                                                     2        0.1600000        0.51444439    0.00000000
                                                     2        0.4000000       -0.69401726    0.00000000
                                                     2        0.7000000        0.51478123    0.00000000
    6          7            7
                                      G and up 
                                                     0        0.0000010       -0.00039818    0.00000000
                                                     2        0.1200000       -0.37616123    0.00000000
                                                     2        0.1400000        2.13837358    0.00000000
                                                     2        0.1600000       -3.36562035    0.00000000
                                                     2        0.2000000        2.53463289    0.00000000
                                                     2        0.3000000       -1.98118833    0.00000000
                                                     2        0.5000000        4.06642919    0.00000000
                                                     2        0.7000000       -6.15327959    0.00000000
                                                     2        1.2000000       10.22492851    0.00000000
                                                     2        2.0000000      -14.94707511    0.00000000
                                      S - G
                                                     0        0.0000010        0.02721443    0.00000000
                                                     2        0.1200000       -0.60186009    0.00000000
                                                     2        0.1600000        1.10088134    0.00000000
                                                     2        0.2600000       -0.59857981    0.00000000
                                                     2        0.6000000        0.21288222    0.00000000
                                                     2        3.0000000        5.09059205    0.00000000
                                      P - G
                                                     0        0.0000010        0.40558062    0.00000000
                                                     2        0.1200000        0.81809854    0.00000000
                                                     2        0.1600000       -2.44952728    0.00000000
                                                     2        0.2800000        4.16638749    0.00000000
                                                     2        0.5000000       -6.02944147    0.00000000
                                                     2        1.1000000        5.78262914    0.00000000
                                      D - G
                                                     0        0.0000010       -0.62770267    0.00000000
                                                     2        0.1600000        0.91438653    0.00000000
                                                     2        0.2600000       -2.00568466    0.00000000
                                                     2        0.5000000        3.30798839    0.00000000
                                                     2        1.1000000       -3.91526108    0.00000000
                                      F - G
                                                     0        0.0000010        0.29726344    0.00000000
                                                     2        0.1200000       -0.41591527    0.00000000
                                                     2        0.1600000        0.51444439    0.00000000
                                                     2        0.4000000       -0.69401726    0.00000000
                                                     2        0.7000000        0.51478123    0.00000000
    7         17           17
                                      G and up 
                                                     0        0.0000010        0.00010715    0.00000000
                                                     2        0.1200000       -0.00076261    0.00000000
                                                     2        0.1600000        0.04395058    0.00000000
                                                     2        0.2000000       -0.10504698    0.00000000
                                                     2        0.2800000        0.13950130    0.00000000
                                                     2        0.4000000       -0.12623641    0.00000000
                                                     2        0.7000000       -0.42143984    0.00000000
                                      S - G
                                                     0        0.0000010       -0.00139392    0.00000000
                                                     2        0.1200000       -0.01887585    0.00000000
                                                     2        0.4000000        0.46511854    0.00000000
                                      P - G
                                                     0        0.0000010        0.03235088    0.00000000
                                                     2        0.1200000        0.42220750    0.00000000
                                                     2        0.1600000       -1.02263661    0.00000000
                                                     2        0.2600000        0.81322107    0.00000000
                                      D - G
                                                     0        0.0000010       -0.08073759    0.00000000
                                                     2        0.1200000       -0.02872770    0.00000000
                                                     2        0.2000000        0.11554000    0.00000000
                                      F - G
                                                     0        0.0000010        0.04269408    0.00000000
                                                     2        0.1200000       -0.09796467    0.00000000
                                                     2        0.2000000        0.26850099    0.00000000
    8         17           17
                                      G and up 
                                                     0        0.0000010        0.00010715    0.00000000
                                                     2        0.1200000       -0.00076261    0.00000000
                                                     2        0.1600000        0.04395058    0.00000000
                                                     2        0.2000000       -0.10504698    0.00000000
                                                     2        0.2800000        0.13950130    0.00000000
                                                     2        0.4000000       -0.12623641    0.00000000
                                                     2        0.7000000       -0.42143984    0.00000000
                                      S - G
                                                     0        0.0000010       -0.00139392    0.00000000
                                                     2        0.1200000       -0.01887585    0.00000000
                                                     2        0.4000000        0.46511854    0.00000000
                                      P - G
                                                     0        0.0000010        0.03235088    0.00000000
                                                     2        0.1200000        0.42220750    0.00000000
                                                     2        0.1600000       -1.02263661    0.00000000
                                                     2        0.2600000        0.81322107    0.00000000
                                      D - G
                                                     0        0.0000010       -0.08073759    0.00000000
                                                     2        0.1200000       -0.02872770    0.00000000
                                                     2        0.2000000        0.11554000    0.00000000
                                      F - G
                                                     0        0.0000010        0.04269408    0.00000000
                                                     2        0.1200000       -0.09796467    0.00000000
                                                     2        0.2000000        0.26850099    0.00000000
    9         17           17
                                      G and up 
                                                     0        0.0000010        0.00010715    0.00000000
                                                     2        0.1200000       -0.00076261    0.00000000
                                                     2        0.1600000        0.04395058    0.00000000
                                                     2        0.2000000       -0.10504698    0.00000000
                                                     2        0.2800000        0.13950130    0.00000000
                                                     2        0.4000000       -0.12623641    0.00000000
                                                     2        0.7000000       -0.42143984    0.00000000
                                      S - G
                                                     0        0.0000010       -0.00139392    0.00000000
                                                     2        0.1200000       -0.01887585    0.00000000
                                                     2        0.4000000        0.46511854    0.00000000
                                      P - G
                                                     0        0.0000010        0.03235088    0.00000000
                                                     2        0.1200000        0.42220750    0.00000000
                                                     2        0.1600000       -1.02263661    0.00000000
                                                     2        0.2600000        0.81322107    0.00000000
                                      D - G
                                                     0        0.0000010       -0.08073759    0.00000000
                                                     2        0.1200000       -0.02872770    0.00000000
                                                     2        0.2000000        0.11554000    0.00000000
                                      F - G
                                                     0        0.0000010        0.04269408    0.00000000
                                                     2        0.1200000       -0.09796467    0.00000000
                                                     2        0.2000000        0.26850099    0.00000000
 ======================================================================================================
   219 basis functions,   501 primitive gaussians,   237 cartesian basis functions
    45 alpha electrons       45 beta electrons
       nuclear repulsion energy       639.5509788138 Hartrees.
 NAtoms=    9 NActive=    9 NUniq=    6 SFac= 2.25D+00 NAtFMM=   60 NAOKFM=F Big=F
   4 Symmetry operations used in ECPInt.
 ECPInt:  NShTT=    3828 NPrTT=   36414 LenC2=    3775 LenP2D=   21552.
 LDataN:  DoStor=T MaxTD1= 6 Len=  172
 Initial guess from the checkpoint file:  "2-4-6-trichloro-1-3-5-triazine.chk"
 B after Tr=    -0.000000    0.000000    0.000000
         Rot=    0.500000   -0.500000   -0.500000   -0.500000 Ang=-120.00 deg.
 Initial guess orbital symmetries:
       Occupied  (A1) (B2) (A1) (A1) (B2) (A1) (B2) (A1) (A1) (A1)
                 (B2) (A1) (B2) (A1) (A1) (A2) (B1) (B1) (B2) (A1)
                 (B2) (A1) (B2) (A1) (B2) (A1) (A1) (A1) (B2) (B2)
                 (A1) (B1) (B2) (A1) (A1) (A2) (B1) (A1) (B2) (B2)
                 (B1) (A1) (B2) (A2) (B1)
       Virtual   (B1) (A2) (A1) (B2) (A1) (B1) (A1) (?A) (?A) (A1)
                 (B2) (A1) (A2) (B1) (B2) (B1) (A2) (B1) (A1) (B2)
                 (?A) (?A) (A1) (A1) (?A) (?A) (B2) (B1) (A2) (B1)
                 (A1) (B2) (A1) (B1) (A1) (B2) (A1) (B2) (A1) (?A)
                 (?A) (B2) (A2) (B1) (A1) (B2) (B2) (A1) (B1) (A2)
                 (A1) (B2) (A2) (B1) (B2) (A1) (A1) (A1) (B2) (A1)
                 (A1) (B1) (A1) (B2) (A2) (B1) (A2) (A2) (B1) (A1)
                 (B2) (B1) (?A) (?A) (B2) (A1) (?A) (?A) (A2) (B1)
                 (B2) (A1) (A1) (B1) (?A) (?A) (A2) (B1) (B2) (A1)
                 (B2) (A1) (B2) (A2) (A1) (B1) (B2) (A1) (A2) (B1)
                 (A2) (B1) (B2) (?A) (?A) (A1) (B1) (B2) (A1) (A1)
                 (A2) (B1) (A2) (B2) (A1) (B1) (A2) (A1) (A1) (B2)
                 (B2) (A1) (A1) (B2) (B1) (A1) (B2) (B2) (B1) (A2)
                 (A1) (B2) (A2) (B1) (B2) (B1) (A2) (A1) (B2) (A1)
                 (B1) (A2) (A1) (B2) (A1) (A1) (B2) (A1) (A1) (B2)
                 (A1) (B2) (A1) (A1) (B2) (A1) (B1) (A2) (B2) (B1)
                 (A2) (B1) (B2) (A1) (A1) (B2) (A2) (A1) (B2) (A1)
                 (B2) (A1) (B2) (A1)
 An orbital has undefined symmetry, so N**3 symmetry is turned off.
 >>>>>>>>>> Convergence criterion not met.
 SCF Done:  E(RHF) =  -1655.99192446     A.U. after    2 cycles
            NFock=  1  Conv=0.28D-01     -V/T= 2.0017

 **********************************************************************

            Population analysis using the SCF Density.

 **********************************************************************

 Orbital symmetries:
       Occupied  (A1) (B2) (A1) (A1) (B2) (A1) (A1) (B2) (A1) (A1)
                 (B2) (A1) (A1) (B2) (A1) (A2) (B1) (B1) (B2) (A1)
                 (B2) (A1) (B2) (A1) (B2) (A1) (A1) (A1) (B2) (B2)
                 (A1) (B1) (B2) (A1) (A1) (A2) (B1) (B2) (A1) (A1)
                 (B2) (B2) (B1) (A2) (B1)
       Virtual   (B1) (A2) (A1) (B2) (A1) (A1) (B2) (A1) (B1) (A1)
                 (A2) (B1) (A1) (B2) (B2) (B1) (A2) (B1) (A1) (B2)
                 (A1) (B2) (A1) (A1) (A1) (B2) (B2) (B1) (A2) (B1)
                 (A1) (B2) (A1) (B1) (A1) (A1) (B2) (B2) (A1) (A1)
                 (B2) (A2) (B2) (B1) (A1) (B2) (B2) (A1) (B1) (A2)
                 (B2) (A1) (B1) (A2) (B2) (A1) (A1) (A1) (A1) (B2)
                 (A1) (A1) (B2) (A2) (B1) (A2) (B1) (B1) (A2) (A1)
                 (B2) (B1) (A1) (B2) (B2) (A1) (B1) (A2) (A1) (B2)
                 (B2) (A1) (B1) (A1) (B2) (A1) (A2) (B1) (B2) (A1)
                 (B2) (A2) (A1) (A1) (B2) (B1) (B2) (A1) (A2) (B1)
                 (A2) (B1) (B2) (B2) (A1) (B1) (A1) (A2) (B1) (B2)
                 (A1) (A2) (A1) (B2) (A1) (A2) (B1) (A1) (B2) (A1)
                 (B2) (A1) (A1) (B2) (B1) (B1) (A2) (B2) (B2) (A1)
                 (A1) (B2) (B1) (A2) (B2) (A1) (B2) (A1) (B1) (A2)
                 (B1) (A2) (B2) (A1) (A1) (A1) (A1) (B2) (B2) (A1)
                 (B1) (A2) (A1) (B2) (B1) (A1) (A1) (B1) (A2) (A1)
                 (B2) (A2) (B2) (B2) (A1) (B2) (A1) (B2) (A1) (B2)
                 (A1) (B2) (A1) (A1)
 The electronic state is 1-A1.
 Alpha  occ. eigenvalues -- -105.61360-105.61360-105.61360 -15.56526 -15.56472
 Alpha  occ. eigenvalues --  -15.56472 -11.44115 -11.44115 -11.44093 -10.66249
 Alpha  occ. eigenvalues --  -10.66229 -10.66229  -7.83199  -7.83198  -7.83198
 Alpha  occ. eigenvalues --   -7.82758  -7.82758  -7.82756  -7.82735  -7.82732
 Alpha  occ. eigenvalues --   -7.82732  -1.42713  -1.29041  -1.29041  -1.14153
 Alpha  occ. eigenvalues --   -1.14153  -1.12374  -0.94585  -0.94585  -0.87398
 Alpha  occ. eigenvalues --   -0.75417  -0.71673  -0.65629  -0.65629  -0.64933
 Alpha  occ. eigenvalues --   -0.58462  -0.58462  -0.53316  -0.53316  -0.50967
 Alpha  occ. eigenvalues --   -0.50967  -0.50327  -0.50113  -0.47542  -0.47542
 Alpha virt. eigenvalues --    0.02962   0.02962   0.04859   0.07689   0.07689
 Alpha virt. eigenvalues --    0.08011   0.09389   0.09389   0.09499   0.12597
 Alpha virt. eigenvalues --    0.13100   0.13100   0.13994   0.13994   0.14375
 Alpha virt. eigenvalues --    0.16476   0.18518   0.18518   0.18596   0.18596
 Alpha virt. eigenvalues --    0.20845   0.20845   0.21651   0.22868   0.23064
 Alpha virt. eigenvalues --    0.23064   0.24286   0.24316   0.24316   0.25525
 Alpha virt. eigenvalues --    0.26350   0.26749   0.26749   0.27226   0.30824
 Alpha virt. eigenvalues --    0.31312   0.31312   0.35426   0.35426   0.36688
 Alpha virt. eigenvalues --    0.36688   0.38795   0.39210   0.39905   0.40596
 Alpha virt. eigenvalues --    0.40596   0.42866   0.42866   0.47576   0.47576
 Alpha virt. eigenvalues --    0.49397   0.49590   0.52794   0.52794   0.53572
 Alpha virt. eigenvalues --    0.53572   0.56801   0.61549   0.63641   0.64825
 Alpha virt. eigenvalues --    0.64825   0.66252   0.66252   0.67480   0.67507
 Alpha virt. eigenvalues --    0.69361   0.69361   0.75938   0.75938   0.76055
 Alpha virt. eigenvalues --    0.76055   0.79255   0.79345   0.79345   0.81007
 Alpha virt. eigenvalues --    0.84743   0.85138   0.85138   0.85168   0.85168
 Alpha virt. eigenvalues --    0.87229   0.90576   0.93631   0.93919   0.94107
 Alpha virt. eigenvalues --    0.94107   0.96962   0.96962   0.99302   0.99302
 Alpha virt. eigenvalues --    1.02756   1.08159   1.08264   1.09455   1.09455
 Alpha virt. eigenvalues --    1.12689   1.15303   1.15303   1.16533   1.16533
 Alpha virt. eigenvalues --    1.21318   1.21318   1.23314   1.25492   1.25492
 Alpha virt. eigenvalues --    1.26290   1.26943   1.31796   1.31796   1.31959
 Alpha virt. eigenvalues --    1.31959   1.32074   1.34308   1.35142   1.35142
 Alpha virt. eigenvalues --    1.35223   1.35223   1.35542   1.35542   1.36167
 Alpha virt. eigenvalues --    1.39204   1.44419   1.45543   1.45543   1.47501
 Alpha virt. eigenvalues --    1.53159   1.53159   1.53951   1.54679   1.54679
 Alpha virt. eigenvalues --    1.74578   1.74578   1.75679   1.75679   1.78102
 Alpha virt. eigenvalues --    1.84706   1.85037   1.85037   1.88106   1.88106
 Alpha virt. eigenvalues --    1.92168   1.94096   1.98865   1.98865   1.99062
 Alpha virt. eigenvalues --    2.07051   2.14774   2.14774   2.17455   2.17455
 Alpha virt. eigenvalues --    2.19692   2.19692   2.24400   2.24400   2.24988
 Alpha virt. eigenvalues --    2.26827   2.27925   2.29313   2.29313   2.50074
 Alpha virt. eigenvalues --    2.50074   2.54248   2.61545   2.62368   2.62368
 Alpha virt. eigenvalues --    2.69984   2.69984   2.87282   2.87282   2.89225
 Alpha virt. eigenvalues --    3.03556   3.17933   3.17933   3.27396
          Condensed to atoms (all electrons):
 Mulliken charges:
               1
     1  C   -1.112292
     2  C   -1.112291
     3  C   -1.112291
     4  N    0.984732
     5  N    0.984732
     6  N    0.984732
     7  Cl   0.127559
     8  Cl   0.127559
     9  Cl   0.127559
 Sum of Mulliken charges =  -0.00000
 Mulliken charges with hydrogens summed into heavy atoms:
               1
     1  C   -1.112292
     2  C   -1.112291
     3  C   -1.112291
     4  N    0.984732
     5  N    0.984732
     6  N    0.984732
     7  Cl   0.127559
     8  Cl   0.127559
     9  Cl   0.127559
 Electronic spatial extent (au):  <R**2>=           2046.8767
 Charge=             -0.0000 electrons
 Dipole moment (field-independent basis, Debye):
    X=              0.0000    Y=              0.0000    Z=             -0.0000  Tot=              0.0000

 Test job not archived.
 1\1\GINC-SE164\SP\RHF\Aug-CC-pVDZ\C3Cl3N3\OHZDE\05-Apr-2025\0\\#t hf a
 ug-cc-pvdz iop(5/13=1,5/36=2,99/5=2) pseudo=read geom=check guess=(rea
 d,tcheck) scf=(maxcycle=1)\\title\\0,1\C,0,0.,1.278542,0.\C,0,1.10725,
 -0.639271,0.\C,0,-1.10725,-0.639271,0.\N,0,0.,-1.366438,0.\N,0,-1.1833
 7,0.683219,0.\N,0,1.18337,0.683219,0.\Cl,0,0.,3.006062,0.\Cl,0,2.60332
 6,-1.503031,0.\Cl,0,-2.603326,-1.503031,0.\\Version=ES64L-G16RevC.01\S
 tate=1-A1\HF=-1655.9919245\RMSD=2.773e-02\Dipole=0.,-0.0000006,0.\Quad
 rupole=-0.3325569,-0.3325602,0.6651171,0.,0.,0.\PG=C02V [C2(N1C1Cl1),S
 GV(C2Cl2N2)]\\@


 OUR LITTLE SYSTEMS HAVE THEIR DAY,    
   THEY HAVE THEIR DAY AND CEASE TO BE.
   THEY ARE BUT BROKEN LIGHTS OF THEE, 
 AND THOU, OH LORD, ART MORE THAN THEY.
          -------------------          
 LET KNOWLEDGE GROW FROM MORE TO MORE, 
   BUT MORE OF REVERENCE IN US DWELL.  
   THAT MIND AND SOUL, ACCORDING WELL, 
 MAY MAKE ONE MUSIC AS BEFORE.....     
          -------------------          
                    LORD TENNYSON      
 Job cpu time:       0 days  0 hours  0 minutes 49.3 seconds.
 Elapsed time:       0 days  0 hours  0 minutes  4.2 seconds.
 File lengths (MBytes):  RWF=     10 Int=      0 D2E=      0 Chk=      8 Scr=      1
 Normal termination of Gaussian 16 at Sat Apr  5 22:34:40 2025.
