 Entering Gaussian System, Link 0=g16
 Input=2-methylpropanenitrile.gjf
 Output=2-methylpropanenitrile.log
 Initial command:
 /arc/software/Gaussian/g16.c01/l1.exe "/tmp/slurm/4815367/Gau-2562890.inp" -scrdir="/tmp/slurm/4815367/"
 Entering Link 1 = /arc/software/Gaussian/g16.c01/l1.exe PID=   2562899.
  
 Copyright (c) 1988-2019, Gaussian, Inc.  All Rights Reserved.
  
 This is part of the Gaussian(R) 16 program.  It is based on
 the Gaussian(R) 09 system (copyright 2009, Gaussian, Inc.),
 the Gaussian(R) 03 system (copyright 2003, Gaussian, Inc.),
 the Gaussian(R) 98 system (copyright 1998, Gaussian, Inc.),
 the Gaussian(R) 94 system (copyright 1995, Gaussian, Inc.),
 the Gaussian 92(TM) system (copyright 1992, Gaussian, Inc.),
 the Gaussian 90(TM) system (copyright 1990, Gaussian, Inc.),
 the Gaussian 88(TM) system (copyright 1988, Gaussian, Inc.),
 the Gaussian 86(TM) system (copyright 1986, Carnegie Mellon
 University), and the Gaussian 82(TM) system (copyright 1983,
 Carnegie Mellon University). Gaussian is a federally registered
 trademark of Gaussian, Inc.
  
 This software contains proprietary and confidential information,
 including trade secrets, belonging to Gaussian, Inc.
  
 This software is provided under written license and may be
 used, copied, transmitted, or stored only in accord with that
 written license.
  
 The following legend is applicable only to US Government
 contracts under FAR:
  
                    RESTRICTED RIGHTS LEGEND
  
 Use, reproduction and disclosure by the US Government is
 subject to restrictions as set forth in subparagraphs (a)
 and (c) of the Commercial Computer Software - Restricted
 Rights clause in FAR 52.227-19.
  
 Gaussian, Inc.
 340 Quinnipiac St., Bldg. 40, Wallingford CT 06492
  
  
 ---------------------------------------------------------------
 Warning -- This program may not be used in any manner that
 competes with the business of Gaussian, Inc. or will provide
 assistance to any competitor of Gaussian, Inc.  The licensee
 of this program is prohibited from giving any competitor of
 Gaussian, Inc. access to this program.  By using this program,
 the user acknowledges that Gaussian, Inc. is engaged in the
 business of creating and licensing software in the field of
 computational chemistry and represents and warrants to the
 licensee that it is not a competitor of Gaussian, Inc. and that
 it will not use this program in any manner prohibited above.
 ---------------------------------------------------------------
  

 Cite this work as:
 Gaussian 16, Revision C.01,
 M. J. Frisch, G. W. Trucks, H. B. Schlegel, G. E. Scuseria, 
 M. A. Robb, J. R. Cheeseman, G. Scalmani, V. Barone, 
 G. A. Petersson, H. Nakatsuji, X. Li, M. Caricato, A. V. Marenich, 
 J. Bloino, B. G. Janesko, R. Gomperts, B. Mennucci, H. P. Hratchian, 
 J. V. Ortiz, A. F. Izmaylov, J. L. Sonnenberg, D. Williams-Young, 
 F. Ding, F. Lipparini, F. Egidi, J. Goings, B. Peng, A. Petrone, 
 T. Henderson, D. Ranasinghe, V. G. Zakrzewski, J. Gao, N. Rega, 
 G. Zheng, W. Liang, M. Hada, M. Ehara, K. Toyota, R. Fukuda, 
 J. Hasegawa, M. Ishida, T. Nakajima, Y. Honda, O. Kitao, H. Nakai, 
 T. Vreven, K. Throssell, J. A. Montgomery, Jr., J. E. Peralta, 
 F. Ogliaro, M. J. Bearpark, J. J. Heyd, E. N. Brothers, K. N. Kudin, 
 V. N. Staroverov, T. A. Keith, R. Kobayashi, J. Normand, 
 K. Raghavachari, A. P. Rendell, J. C. Burant, S. S. Iyengar, 
 J. Tomasi, M. Cossi, J. M. Millam, M. Klene, C. Adamo, R. Cammi, 
 J. W. Ochterski, R. L. Martin, K. Morokuma, O. Farkas, 
 J. B. Foresman, and D. J. Fox, Gaussian, Inc., Wallingford CT, 2019.
 
 ******************************************
 Gaussian 16:  ES64L-G16RevC.01  3-Jul-2019
                 5-Apr-2025 
 ******************************************
 %nprocs=16
 Will use up to   16 processors via shared memory.
 %mem=30GB
 %chk=2-methylpropanenitrile.chk
 ----------------------------------------------------------------------
 #t hf aug-cc-pvdz symm=none int=(grid=ultrafine) guess=(read,tcheck) s
 table=(opt,rrhf)
 ----------------------------------------------------------------------
 -----
 title
 -----
 Symbolic Z-matrix:
 Charge =  0 Multiplicity = 1
 N                    -0.40075  -2.17301   0. 
 C                    -0.02683  -1.08508   0. 
 H                     1.52741   0.2673    0. 
 C                     0.4346    0.30653   0. 
 H                     0.32295   0.51393   2.17027 
 H                     0.32295   0.51393  -2.17027 
 H                    -1.11456   1.08196  -1.31704 
 H                    -1.11456   1.08196   1.31704 
 C                    -0.02683   1.02799  -1.27648 
 C                    -0.02683   1.02799   1.27648 
 H                     0.36818   2.0437   -1.28487 
 H                     0.36818   2.0437    1.28487 
 
                    Distance matrix (angstroms):
                    1          2          3          4          5
     1  N    0.000000
     2  C    1.150394   0.000000
     3  H    3.110132   2.060241   0.000000
     4  C    2.616474   1.466118   1.093507   0.000000
     5  H    3.528949   2.718320   2.494315   2.183015   0.000000
     6  H    3.528949   2.718320   2.494315   2.183015   4.340540
     7  H    3.583148   2.759316   3.062392   2.176188   3.814505
     8  H    3.583148   2.759316   3.062392   2.176188   1.765526
     9  C    3.466361   2.468704   2.150280   1.537152   3.502385
    10  C    3.466361   2.468704   2.150280   1.537152   1.088791
    11  H    4.474683   3.405318   2.479974   2.161725   3.778916
    12  H    4.474683   3.405318   2.479974   2.161725   1.768099
                    6          7          8          9         10
     6  H    0.000000
     7  H    1.765526   0.000000
     8  H    3.814505   2.634088   0.000000
     9  C    1.088791   1.089823   2.812906   0.000000
    10  C    3.502385   2.812906   1.089823   2.552962   0.000000
    11  H    1.768099   1.767627   3.145379   1.089844   2.783558
    12  H    3.778916   3.145379   1.767627   2.783558   1.089844
                   11         12
    11  H    0.000000
    12  H    2.569734   0.000000
 Symmetry turned off by external request.
 Rotational constants (GHZ):           7.9350409           3.9736050           2.8987879
   178 basis functions,   292 primitive gaussians,   188 cartesian basis functions
    19 alpha electrons       19 beta electrons
       nuclear repulsion energy       159.2454403440 Hartrees.
 NAtoms=   12 NActive=   12 NUniq=   12 SFac= 1.00D+00 NAtFMM=   60 NAOKFM=F Big=F
 ExpMin= 2.97D-02 ExpMax= 9.05D+03 ExpMxC= 3.09D+02 IAcc=3 IRadAn=         5 AccDes= 0.00D+00
 Harris functional with IExCor=  205 and IRadAn=       5 diagonalized for initial guess.
 HarFok:  IExCor=  205 AccDes= 0.00D+00 IRadAn=         5 IDoV= 1 UseB2=F ITyADJ=14
 ICtDFT=  3500011 ScaDFX=  1.000000  1.000000  1.000000  1.000000
 FoFCou: FMM=F IPFlag=           0 FMFlag=      100000 FMFlg1=           0
         NFxFlg=           0 DoJE=T BraDBF=F KetDBF=T FulRan=T
         wScrn=  0.000000 ICntrl=       500 IOpCl=  0 I1Cent=   200000004 NGrid=           0
         NMat0=    1 NMatS0=      1 NMatT0=    0 NMatD0=    1 NMtDS0=    0 NMtDT0=    0
 Symmetry not used in FoFCou.
 SCF Done:  E(RHF) =  -210.022322845     A.U. after   13 cycles
            NFock= 13  Conv=0.93D-08     -V/T= 2.0013

 **********************************************************************

            Population analysis using the SCF Density.

 **********************************************************************

 Alpha  occ. eigenvalues --  -15.57544 -11.29340 -11.27640 -11.25083 -11.25081
 Alpha  occ. eigenvalues --   -1.22379  -1.11001  -0.96320  -0.88074  -0.70573
 Alpha  occ. eigenvalues --   -0.64398  -0.59978  -0.57415  -0.56595  -0.53423
 Alpha  occ. eigenvalues --   -0.52649  -0.52318  -0.45408  -0.45336
 Alpha virt. eigenvalues --    0.02854   0.04371   0.04418   0.05263   0.06904
 Alpha virt. eigenvalues --    0.07099   0.07256   0.09630   0.11210   0.12875
 Alpha virt. eigenvalues --    0.14108   0.14565   0.14942   0.15594   0.15824
 Alpha virt. eigenvalues --    0.16236   0.16699   0.17514   0.17958   0.19315
 Alpha virt. eigenvalues --    0.19436   0.20495   0.22193   0.22677   0.23061
 Alpha virt. eigenvalues --    0.26516   0.29004   0.29497   0.30466   0.31470
 Alpha virt. eigenvalues --    0.32271   0.33205   0.33618   0.35852   0.38691
 Alpha virt. eigenvalues --    0.38742   0.39806   0.41832   0.44124   0.44558
 Alpha virt. eigenvalues --    0.44706   0.45279   0.45735   0.45745   0.47596
 Alpha virt. eigenvalues --    0.48369   0.49900   0.52205   0.52759   0.55186
 Alpha virt. eigenvalues --    0.56841   0.56973   0.57490   0.58270   0.59940
 Alpha virt. eigenvalues --    0.60072   0.60821   0.62009   0.65232   0.65294
 Alpha virt. eigenvalues --    0.65835   0.67087   0.68887   0.69326   0.70753
 Alpha virt. eigenvalues --    0.71843   0.72600   0.75339   0.77366   0.78240
 Alpha virt. eigenvalues --    0.79239   0.79401   0.80539   0.84358   0.86514
 Alpha virt. eigenvalues --    0.86595   0.89765   0.89993   0.92660   0.93565
 Alpha virt. eigenvalues --    0.94795   0.99452   0.99922   1.02924   1.06156
 Alpha virt. eigenvalues --    1.07776   1.10574   1.11918   1.12965   1.15519
 Alpha virt. eigenvalues --    1.17237   1.21269   1.25007   1.26626   1.30612
 Alpha virt. eigenvalues --    1.34452   1.38149   1.38740   1.45880   1.47640
 Alpha virt. eigenvalues --    1.51641   1.54591   1.57000   1.63515   1.64813
 Alpha virt. eigenvalues --    1.69669   1.70323   1.74110   1.77934   1.78469
 Alpha virt. eigenvalues --    1.79247   1.81277   1.85984   1.86429   1.91315
 Alpha virt. eigenvalues --    1.92256   1.96077   1.96578   2.02688   2.05205
 Alpha virt. eigenvalues --    2.06383   2.12028   2.13745   2.15038   2.21148
 Alpha virt. eigenvalues --    2.21444   2.23673   2.23803   2.27217   2.27991
 Alpha virt. eigenvalues --    2.34290   2.37299   2.37967   2.42435   2.44369
 Alpha virt. eigenvalues --    2.49189   2.51180   2.51815   2.58181   2.63311
 Alpha virt. eigenvalues --    2.66088   2.66579   2.70307   2.72261   2.72652
 Alpha virt. eigenvalues --    2.81167   2.86333   2.87724   2.91452   2.95423
 Alpha virt. eigenvalues --    3.02146   3.04791   3.11730   3.13624   3.17629
 Alpha virt. eigenvalues --    3.22257   3.29217   3.49391   3.68756
          Condensed to atoms (all electrons):
 Mulliken charges:
               1
     1  N   -0.323639
     2  C   -0.233471
     3  H   -0.004187
     4  C   -0.582916
     5  H   -0.074775
     6  H   -0.074775
     7  H   -0.016958
     8  H   -0.016958
     9  C    0.729949
    10  C    0.729949
    11  H   -0.066110
    12  H   -0.066110
 Sum of Mulliken charges =  -0.00000
 Mulliken charges with hydrogens summed into heavy atoms:
               1
     1  N   -0.323639
     2  C   -0.233471
     4  C   -0.587103
     9  C    0.572106
    10  C    0.572106
 Electronic spatial extent (au):  <R**2>=            461.4978
 Charge=             -0.0000 electrons
 Dipole moment (field-independent basis, Debye):
    X=              1.2658    Y=              4.2261    Z=              0.0000  Tot=              4.4116
 NROrb=    178 NOA=    19 NOB=    19 NVA=   159 NVB=   159

 **** Warning!!: The largest alpha MO coefficient is  0.59142024D+02

    12 initial guesses have been made.
 Iteration     1 Dimension    12 NMult     0 NNew     12
 New state      1 was old state      4
 Iteration     2 Dimension    24 NMult    12 NNew     12
 Iteration     3 Dimension    27 NMult    24 NNew      3
 New state      1 was old state      2
 Iteration     4 Dimension    30 NMult    27 NNew      3
 Iteration     5 Dimension    33 NMult    30 NNew      3
 Iteration     6 Dimension    36 NMult    33 NNew      3
 ***********************************************************************
 Stability analysis using <AA,BB:AA,BB> singles matrix:
 ***********************************************************************
 Ground to excited state transition densities written to RWF  633

 Eigenvectors of the stability matrix:
 
 Excited state symmetry could not be determined.
 Eigenvector   1:      Singlet-?Sym  Eigenvalue= 0.2286525  <S**2>=0.000
      18 -> 32        -0.12808
      18 -> 40         0.33120
      18 -> 44         0.14064
      18 -> 49        -0.10290
      19 -> 30         0.13000
      19 -> 33         0.10230
      19 -> 39        -0.27906
      19 -> 41        -0.18853
      19 -> 42         0.17214
      19 -> 48        -0.16343
 The wavefunction is stable under the perturbations considered.
 The wavefunction is already stable.

 **********************************************************************

            Population analysis using the SCF Density.

 **********************************************************************

 Alpha  occ. eigenvalues --  -15.57544 -11.29340 -11.27640 -11.25083 -11.25081
 Alpha  occ. eigenvalues --   -1.22379  -1.11001  -0.96320  -0.88074  -0.70573
 Alpha  occ. eigenvalues --   -0.64398  -0.59978  -0.57415  -0.56595  -0.53423
 Alpha  occ. eigenvalues --   -0.52649  -0.52318  -0.45408  -0.45336
 Alpha virt. eigenvalues --    0.02854   0.04371   0.04418   0.05263   0.06904
 Alpha virt. eigenvalues --    0.07099   0.07256   0.09630   0.11210   0.12875
 Alpha virt. eigenvalues --    0.14108   0.14565   0.14942   0.15594   0.15824
 Alpha virt. eigenvalues --    0.16236   0.16699   0.17514   0.17958   0.19315
 Alpha virt. eigenvalues --    0.19436   0.20495   0.22193   0.22677   0.23061
 Alpha virt. eigenvalues --    0.26516   0.29004   0.29497   0.30466   0.31470
 Alpha virt. eigenvalues --    0.32271   0.33205   0.33618   0.35852   0.38691
 Alpha virt. eigenvalues --    0.38742   0.39806   0.41832   0.44124   0.44558
 Alpha virt. eigenvalues --    0.44706   0.45279   0.45735   0.45745   0.47596
 Alpha virt. eigenvalues --    0.48369   0.49900   0.52205   0.52759   0.55186
 Alpha virt. eigenvalues --    0.56841   0.56973   0.57490   0.58270   0.59940
 Alpha virt. eigenvalues --    0.60072   0.60821   0.62009   0.65232   0.65294
 Alpha virt. eigenvalues --    0.65835   0.67087   0.68887   0.69326   0.70753
 Alpha virt. eigenvalues --    0.71843   0.72600   0.75339   0.77366   0.78240
 Alpha virt. eigenvalues --    0.79239   0.79401   0.80539   0.84358   0.86514
 Alpha virt. eigenvalues --    0.86595   0.89765   0.89993   0.92660   0.93565
 Alpha virt. eigenvalues --    0.94795   0.99452   0.99922   1.02924   1.06156
 Alpha virt. eigenvalues --    1.07776   1.10574   1.11918   1.12965   1.15519
 Alpha virt. eigenvalues --    1.17237   1.21269   1.25007   1.26626   1.30612
 Alpha virt. eigenvalues --    1.34452   1.38149   1.38740   1.45880   1.47640
 Alpha virt. eigenvalues --    1.51641   1.54591   1.57000   1.63515   1.64813
 Alpha virt. eigenvalues --    1.69669   1.70323   1.74110   1.77934   1.78469
 Alpha virt. eigenvalues --    1.79247   1.81277   1.85984   1.86429   1.91315
 Alpha virt. eigenvalues --    1.92256   1.96077   1.96578   2.02688   2.05205
 Alpha virt. eigenvalues --    2.06383   2.12028   2.13745   2.15038   2.21148
 Alpha virt. eigenvalues --    2.21444   2.23673   2.23803   2.27217   2.27991
 Alpha virt. eigenvalues --    2.34290   2.37299   2.37967   2.42435   2.44369
 Alpha virt. eigenvalues --    2.49189   2.51180   2.51815   2.58181   2.63311
 Alpha virt. eigenvalues --    2.66088   2.66579   2.70307   2.72261   2.72652
 Alpha virt. eigenvalues --    2.81167   2.86333   2.87724   2.91452   2.95423
 Alpha virt. eigenvalues --    3.02146   3.04791   3.11730   3.13624   3.17629
 Alpha virt. eigenvalues --    3.22257   3.29217   3.49391   3.68756
          Condensed to atoms (all electrons):
 Mulliken charges:
               1
     1  N   -0.323639
     2  C   -0.233471
     3  H   -0.004187
     4  C   -0.582916
     5  H   -0.074775
     6  H   -0.074775
     7  H   -0.016958
     8  H   -0.016958
     9  C    0.729949
    10  C    0.729949
    11  H   -0.066110
    12  H   -0.066110
 Sum of Mulliken charges =  -0.00000
 Mulliken charges with hydrogens summed into heavy atoms:
               1
     1  N   -0.323639
     2  C   -0.233471
     4  C   -0.587103
     9  C    0.572106
    10  C    0.572106
 Electronic spatial extent (au):  <R**2>=            461.4978
 Charge=             -0.0000 electrons
 Dipole moment (field-independent basis, Debye):
    X=              1.2658    Y=              4.2261    Z=              0.0000  Tot=              4.4116
 Unable to Open any file for archive entry.
 1\1\GINC-SE225\Stability\RHF\Aug-CC-pVDZ\C4H7N1\OHZDE\05-Apr-2025\0\\#
 t hf aug-cc-pvdz symm=none int=(grid=ultrafine) guess=(read,tcheck) st
 able=(opt,rrhf)\\title\\0,1\N,0,-0.40075,-2.173012,0.\C,0,-0.026829,-1
 .085083,0.\H,0,1.527406,0.267302,0.\C,0,0.434603,0.306529,0.\H,0,0.322
 951,0.513931,2.17027\H,0,0.322951,0.513931,-2.17027\H,0,-1.114559,1.08
 1957,-1.317044\H,0,-1.114559,1.081957,1.317044\C,0,-0.026829,1.027994,
 -1.276481\C,0,-0.026829,1.027994,1.276481\H,0,0.368182,2.043699,-1.284
 867\H,0,0.368182,2.043699,1.284867\\Version=ES64L-G16RevC.01\HF=-210.0
 223228\RMSD=9.254e-09\Dipole=0.4980178,1.6626766,0.\Quadrupole=2.21508
 03,-4.8160663,2.600986,-1.3905334,0.,0.\PG=Unknown\\@
 The archive entry for this job was punched.


 Statistics are no substitute for judgment.
                            -- Henry Clay
 Job cpu time:       0 days  0 hours  1 minutes 11.1 seconds.
 Elapsed time:       0 days  0 hours  0 minutes 10.1 seconds.
 File lengths (MBytes):  RWF=    150 Int=      0 D2E=      0 Chk=      5 Scr=      1
 Normal termination of Gaussian 16 at Sat Apr  5 22:40:29 2025.
 Initial command:
 /arc/software/Gaussian/g16.c01/l1.exe "/tmp/slurm/4815367/Gau-2562890.inp" -scrdir="/tmp/slurm/4815367/"
 Entering Link 1 = /arc/software/Gaussian/g16.c01/l1.exe PID=   2563235.
  
 Copyright (c) 1988-2019, Gaussian, Inc.  All Rights Reserved.
  
 This is part of the Gaussian(R) 16 program.  It is based on
 the Gaussian(R) 09 system (copyright 2009, Gaussian, Inc.),
 the Gaussian(R) 03 system (copyright 2003, Gaussian, Inc.),
 the Gaussian(R) 98 system (copyright 1998, Gaussian, Inc.),
 the Gaussian(R) 94 system (copyright 1995, Gaussian, Inc.),
 the Gaussian 92(TM) system (copyright 1992, Gaussian, Inc.),
 the Gaussian 90(TM) system (copyright 1990, Gaussian, Inc.),
 the Gaussian 88(TM) system (copyright 1988, Gaussian, Inc.),
 the Gaussian 86(TM) system (copyright 1986, Carnegie Mellon
 University), and the Gaussian 82(TM) system (copyright 1983,
 Carnegie Mellon University). Gaussian is a federally registered
 trademark of Gaussian, Inc.
  
 This software contains proprietary and confidential information,
 including trade secrets, belonging to Gaussian, Inc.
  
 This software is provided under written license and may be
 used, copied, transmitted, or stored only in accord with that
 written license.
  
 The following legend is applicable only to US Government
 contracts under FAR:
  
                    RESTRICTED RIGHTS LEGEND
  
 Use, reproduction and disclosure by the US Government is
 subject to restrictions as set forth in subparagraphs (a)
 and (c) of the Commercial Computer Software - Restricted
 Rights clause in FAR 52.227-19.
  
 Gaussian, Inc.
 340 Quinnipiac St., Bldg. 40, Wallingford CT 06492
  
  
 ---------------------------------------------------------------
 Warning -- This program may not be used in any manner that
 competes with the business of Gaussian, Inc. or will provide
 assistance to any competitor of Gaussian, Inc.  The licensee
 of this program is prohibited from giving any competitor of
 Gaussian, Inc. access to this program.  By using this program,
 the user acknowledges that Gaussian, Inc. is engaged in the
 business of creating and licensing software in the field of
 computational chemistry and represents and warrants to the
 licensee that it is not a competitor of Gaussian, Inc. and that
 it will not use this program in any manner prohibited above.
 ---------------------------------------------------------------
  

 Cite this work as:
 Gaussian 16, Revision C.01,
 M. J. Frisch, G. W. Trucks, H. B. Schlegel, G. E. Scuseria, 
 M. A. Robb, J. R. Cheeseman, G. Scalmani, V. Barone, 
 G. A. Petersson, H. Nakatsuji, X. Li, M. Caricato, A. V. Marenich, 
 J. Bloino, B. G. Janesko, R. Gomperts, B. Mennucci, H. P. Hratchian, 
 J. V. Ortiz, A. F. Izmaylov, J. L. Sonnenberg, D. Williams-Young, 
 F. Ding, F. Lipparini, F. Egidi, J. Goings, B. Peng, A. Petrone, 
 T. Henderson, D. Ranasinghe, V. G. Zakrzewski, J. Gao, N. Rega, 
 G. Zheng, W. Liang, M. Hada, M. Ehara, K. Toyota, R. Fukuda, 
 J. Hasegawa, M. Ishida, T. Nakajima, Y. Honda, O. Kitao, H. Nakai, 
 T. Vreven, K. Throssell, J. A. Montgomery, Jr., J. E. Peralta, 
 F. Ogliaro, M. J. Bearpark, J. J. Heyd, E. N. Brothers, K. N. Kudin, 
 V. N. Staroverov, T. A. Keith, R. Kobayashi, J. Normand, 
 K. Raghavachari, A. P. Rendell, J. C. Burant, S. S. Iyengar, 
 J. Tomasi, M. Cossi, J. M. Millam, M. Klene, C. Adamo, R. Cammi, 
 J. W. Ochterski, R. L. Martin, K. Morokuma, O. Farkas, 
 J. B. Foresman, and D. J. Fox, Gaussian, Inc., Wallingford CT, 2019.
 
 ******************************************
 Gaussian 16:  ES64L-G16RevC.01  3-Jul-2019
                 5-Apr-2025 
 ******************************************
 %nprocs=16
 Will use up to   16 processors via shared memory.
 %mem=30GB
 %chk=2-methylpropanenitrile.chk
 ----------------------------------------------------------------------
 #t hf aug-cc-pvdz iop(5/13=1,5/36=2,99/5=2) pseudo=read geom=check gue
 ss=(read,tcheck) scf=(maxcycle=1)
 ----------------------------------------------------------------------
 -----
 title
 -----
 Structure from the checkpoint file:  "2-methylpropanenitrile.chk"
 Charge =  0 Multiplicity = 1
 Z-Matrix found in chk file.
 N,0,-0.40075,-2.173012,0.
 C,0,-0.026829,-1.085083,0.
 H,0,1.527406,0.267302,0.
 C,0,0.434603,0.306529,0.
 H,0,0.322951,0.513931,2.17027
 H,0,0.322951,0.513931,-2.17027
 H,0,-1.114559,1.081957,-1.317044
 H,0,-1.114559,1.081957,1.317044
 C,0,-0.026829,1.027994,-1.276481
 C,0,-0.026829,1.027994,1.276481
 H,0,0.368182,2.043699,-1.284867
 H,0,0.368182,2.043699,1.284867
 Recover connectivity data from disk.
                    Distance matrix (angstroms):
                    1          2          3          4          5
     1  N    0.000000
     2  C    1.150394   0.000000
     3  H    3.110132   2.060241   0.000000
     4  C    2.616474   1.466118   1.093507   0.000000
     5  H    3.528949   2.718320   2.494315   2.183015   0.000000
     6  H    3.528949   2.718320   2.494315   2.183015   4.340540
     7  H    3.583148   2.759316   3.062392   2.176188   3.814505
     8  H    3.583148   2.759316   3.062392   2.176188   1.765526
     9  C    3.466361   2.468704   2.150280   1.537152   3.502385
    10  C    3.466361   2.468704   2.150280   1.537152   1.088791
    11  H    4.474683   3.405318   2.479974   2.161725   3.778916
    12  H    4.474683   3.405318   2.479974   2.161725   1.768099
                    6          7          8          9         10
     6  H    0.000000
     7  H    1.765526   0.000000
     8  H    3.814505   2.634088   0.000000
     9  C    1.088791   1.089823   2.812906   0.000000
    10  C    3.502385   2.812906   1.089823   2.552962   0.000000
    11  H    1.768099   1.767627   3.145379   1.089844   2.783558
    12  H    3.778916   3.145379   1.767627   2.783558   1.089844
                   11         12
    11  H    0.000000
    12  H    2.569734   0.000000
 Framework group  CS[SG(C2HN),X(C2H6)]
 Deg. of freedom    17
                         Standard orientation:                         
 ---------------------------------------------------------------------
 Center     Atomic      Atomic             Coordinates (Angstroms)
 Number     Number       Type             X           Y           Z
 ---------------------------------------------------------------------
      1          7           0       -0.400750   -2.173012   -0.000000
      2          6           0       -0.026829   -1.085083   -0.000000
      3          1           0        1.527406    0.267302    0.000000
      4          6           0        0.434603    0.306529    0.000000
      5          1           0        0.322951    0.513931    2.170270
      6          1           0        0.322951    0.513931   -2.170270
      7          1           0       -1.114559    1.081957   -1.317044
      8          1           0       -1.114559    1.081957    1.317044
      9          6           0       -0.026829    1.027994   -1.276481
     10          6           0       -0.026829    1.027994    1.276481
     11          1           0        0.368182    2.043699   -1.284867
     12          1           0        0.368182    2.043699    1.284867
 ---------------------------------------------------------------------
 Rotational constants (GHZ):           7.9350409           3.9736050           2.8987879
 ======================================================================================================
                                       Pseudopotential Parameters
 ======================================================================================================
  Center     Atomic      Valence      Angular      Power
  Number     Number     Electrons     Momentum     of R      Exponent        Coefficient   SO-Coeffient
 ======================================================================================================
    1          7            7
                                      G and up 
                                                     0        0.0000010       -0.00039818    0.00000000
                                                     2        0.1200000       -0.37616123    0.00000000
                                                     2        0.1400000        2.13837358    0.00000000
                                                     2        0.1600000       -3.36562035    0.00000000
                                                     2        0.2000000        2.53463289    0.00000000
                                                     2        0.3000000       -1.98118833    0.00000000
                                                     2        0.5000000        4.06642919    0.00000000
                                                     2        0.7000000       -6.15327959    0.00000000
                                                     2        1.2000000       10.22492851    0.00000000
                                                     2        2.0000000      -14.94707511    0.00000000
                                      S - G
                                                     0        0.0000010        0.02721443    0.00000000
                                                     2        0.1200000       -0.60186009    0.00000000
                                                     2        0.1600000        1.10088134    0.00000000
                                                     2        0.2600000       -0.59857981    0.00000000
                                                     2        0.6000000        0.21288222    0.00000000
                                                     2        3.0000000        5.09059205    0.00000000
                                      P - G
                                                     0        0.0000010        0.40558062    0.00000000
                                                     2        0.1200000        0.81809854    0.00000000
                                                     2        0.1600000       -2.44952728    0.00000000
                                                     2        0.2800000        4.16638749    0.00000000
                                                     2        0.5000000       -6.02944147    0.00000000
                                                     2        1.1000000        5.78262914    0.00000000
                                      D - G
                                                     0        0.0000010       -0.62770267    0.00000000
                                                     2        0.1600000        0.91438653    0.00000000
                                                     2        0.2600000       -2.00568466    0.00000000
                                                     2        0.5000000        3.30798839    0.00000000
                                                     2        1.1000000       -3.91526108    0.00000000
                                      F - G
                                                     0        0.0000010        0.29726344    0.00000000
                                                     2        0.1200000       -0.41591527    0.00000000
                                                     2        0.1600000        0.51444439    0.00000000
                                                     2        0.4000000       -0.69401726    0.00000000
                                                     2        0.7000000        0.51478123    0.00000000
    2          6            6
                                      G and up 
                                                     0        0.0000010       -0.00007288    0.00000000
                                                     2        0.1200000        0.10466671    0.00000000
                                                     2        0.1400000       -0.65716157    0.00000000
                                                     2        0.1600000        1.18890794    0.00000000
                                                     2        0.2000000       -1.25772850    0.00000000
                                                     2        0.2600000        1.01188378    0.00000000
                                                     2        0.4000000       -1.09380874    0.00000000
                                                     2        0.5000000        0.96944888    0.00000000
                                                     2        1.0000000       -0.79256938    0.00000000
                                                     2        3.0000000        1.06443276    0.00000000
                                      S - G
                                                     0        0.0000010       -0.00635295    0.00000000
                                                     2        0.1200000        0.16918955    0.00000000
                                                     2        0.1600000       -0.38862576    0.00000000
                                                     2        0.2800000        0.25638263    0.00000000
                                                     2        0.5000000        0.29628419    0.00000000
                                                     2        0.9000000       -0.28791512    0.00000000
                                      P - G
                                                     0        0.0000010       -0.04756931    0.00000000
                                                     2        0.1200000        0.28430375    0.00000000
                                                     2        0.1600000       -0.69640032    0.00000000
                                                     2        0.2600000        1.13005668    0.00000000
                                                     2        0.4000000       -1.31433324    0.00000000
                                                     2        0.7000000        0.91526469    0.00000000
                                      D - G
                                                     0        0.0000010       -0.11496411    0.00000000
                                                     2        0.1200000        0.16620776    0.00000000
                                                     2        0.1800000       -0.30959819    0.00000000
                                                     2        0.3000000        0.16621458    0.00000000
                                                     2        0.6000000        0.27350556    0.00000000
                                      F - G
                                                     0        0.0000010        0.12037550    0.00000000
                                                     2        0.1200000       -0.48737077    0.00000000
                                                     2        0.1400000        0.58315350    0.00000000
                                                     2        0.3000000        0.00005188    0.00000000
                                                     2        0.5000000       -1.16063549    0.00000000
                                                     2        0.8000000        2.09053308    0.00000000
    3          1            1
                                      F and up 
                                                     0        0.0000010       -0.00007675    0.00000000
                                                     2        0.1200000        0.05352699    0.00000000
                                                     2        0.1400000       -0.25123645    0.00000000
                                                     2        0.1600000        0.32188106    0.00000000
                                                     2        0.2200000       -0.25206857    0.00000000
                                                     2        0.3000000        0.19290477    0.00000000
                                                     2        0.5000000       -0.10129770    0.00000000
                                                     2        0.9000000        0.00314995    0.00000000
                                                     2        1.5000000        0.18401192    0.00000000
                                      S - F
                                                     0        0.0000010        0.08065976    0.00000000
                                                     2        0.1200000       -0.09231673    0.00000000
                                                     2        0.1600000       -0.03278082    0.00000000
                                                     2        0.2800000        0.38423402    0.00000000
                                                     2        0.6000000       -1.09357590    0.00000000
                                                     2        1.1000000        1.53099489    0.00000000
                                                     2        3.0000000       -2.63300202    0.00000000
                                      P - F
                                                     0        0.0000010       -0.11638665    0.00000000
                                                     2        0.1200000        0.35468655    0.00000000
                                                     2        0.1600000       -0.59160923    0.00000000
                                                     2        0.3000000        0.49390547    0.00000000
                                                     2        0.6000000       -0.37949835    0.00000000
                                                     2        1.6000000        0.89304688    0.00000000
                                      D - F
                                                     0        0.0000010        0.05443663    0.00000000
                                                     2        0.1200000       -0.29679479    0.00000000
                                                     2        0.1400000        0.36849872    0.00000000
                                                     2        0.2400000        0.02793449    0.00000000
                                                     2        0.4000000       -0.46312857    0.00000000
                                                     2        0.7000000        0.97587598    0.00000000
                                                     2        1.5000000       -2.43431102    0.00000000
    4          6            6
                                      G and up 
                                                     0        0.0000010       -0.00007288    0.00000000
                                                     2        0.1200000        0.10466671    0.00000000
                                                     2        0.1400000       -0.65716157    0.00000000
                                                     2        0.1600000        1.18890794    0.00000000
                                                     2        0.2000000       -1.25772850    0.00000000
                                                     2        0.2600000        1.01188378    0.00000000
                                                     2        0.4000000       -1.09380874    0.00000000
                                                     2        0.5000000        0.96944888    0.00000000
                                                     2        1.0000000       -0.79256938    0.00000000
                                                     2        3.0000000        1.06443276    0.00000000
                                      S - G
                                                     0        0.0000010       -0.00635295    0.00000000
                                                     2        0.1200000        0.16918955    0.00000000
                                                     2        0.1600000       -0.38862576    0.00000000
                                                     2        0.2800000        0.25638263    0.00000000
                                                     2        0.5000000        0.29628419    0.00000000
                                                     2        0.9000000       -0.28791512    0.00000000
                                      P - G
                                                     0        0.0000010       -0.04756931    0.00000000
                                                     2        0.1200000        0.28430375    0.00000000
                                                     2        0.1600000       -0.69640032    0.00000000
                                                     2        0.2600000        1.13005668    0.00000000
                                                     2        0.4000000       -1.31433324    0.00000000
                                                     2        0.7000000        0.91526469    0.00000000
                                      D - G
                                                     0        0.0000010       -0.11496411    0.00000000
                                                     2        0.1200000        0.16620776    0.00000000
                                                     2        0.1800000       -0.30959819    0.00000000
                                                     2        0.3000000        0.16621458    0.00000000
                                                     2        0.6000000        0.27350556    0.00000000
                                      F - G
                                                     0        0.0000010        0.12037550    0.00000000
                                                     2        0.1200000       -0.48737077    0.00000000
                                                     2        0.1400000        0.58315350    0.00000000
                                                     2        0.3000000        0.00005188    0.00000000
                                                     2        0.5000000       -1.16063549    0.00000000
                                                     2        0.8000000        2.09053308    0.00000000
    5          1            1
                                      F and up 
                                                     0        0.0000010       -0.00007675    0.00000000
                                                     2        0.1200000        0.05352699    0.00000000
                                                     2        0.1400000       -0.25123645    0.00000000
                                                     2        0.1600000        0.32188106    0.00000000
                                                     2        0.2200000       -0.25206857    0.00000000
                                                     2        0.3000000        0.19290477    0.00000000
                                                     2        0.5000000       -0.10129770    0.00000000
                                                     2        0.9000000        0.00314995    0.00000000
                                                     2        1.5000000        0.18401192    0.00000000
                                      S - F
                                                     0        0.0000010        0.08065976    0.00000000
                                                     2        0.1200000       -0.09231673    0.00000000
                                                     2        0.1600000       -0.03278082    0.00000000
                                                     2        0.2800000        0.38423402    0.00000000
                                                     2        0.6000000       -1.09357590    0.00000000
                                                     2        1.1000000        1.53099489    0.00000000
                                                     2        3.0000000       -2.63300202    0.00000000
                                      P - F
                                                     0        0.0000010       -0.11638665    0.00000000
                                                     2        0.1200000        0.35468655    0.00000000
                                                     2        0.1600000       -0.59160923    0.00000000
                                                     2        0.3000000        0.49390547    0.00000000
                                                     2        0.6000000       -0.37949835    0.00000000
                                                     2        1.6000000        0.89304688    0.00000000
                                      D - F
                                                     0        0.0000010        0.05443663    0.00000000
                                                     2        0.1200000       -0.29679479    0.00000000
                                                     2        0.1400000        0.36849872    0.00000000
                                                     2        0.2400000        0.02793449    0.00000000
                                                     2        0.4000000       -0.46312857    0.00000000
                                                     2        0.7000000        0.97587598    0.00000000
                                                     2        1.5000000       -2.43431102    0.00000000
    6          1            1
                                      F and up 
                                                     0        0.0000010       -0.00007675    0.00000000
                                                     2        0.1200000        0.05352699    0.00000000
                                                     2        0.1400000       -0.25123645    0.00000000
                                                     2        0.1600000        0.32188106    0.00000000
                                                     2        0.2200000       -0.25206857    0.00000000
                                                     2        0.3000000        0.19290477    0.00000000
                                                     2        0.5000000       -0.10129770    0.00000000
                                                     2        0.9000000        0.00314995    0.00000000
                                                     2        1.5000000        0.18401192    0.00000000
                                      S - F
                                                     0        0.0000010        0.08065976    0.00000000
                                                     2        0.1200000       -0.09231673    0.00000000
                                                     2        0.1600000       -0.03278082    0.00000000
                                                     2        0.2800000        0.38423402    0.00000000
                                                     2        0.6000000       -1.09357590    0.00000000
                                                     2        1.1000000        1.53099489    0.00000000
                                                     2        3.0000000       -2.63300202    0.00000000
                                      P - F
                                                     0        0.0000010       -0.11638665    0.00000000
                                                     2        0.1200000        0.35468655    0.00000000
                                                     2        0.1600000       -0.59160923    0.00000000
                                                     2        0.3000000        0.49390547    0.00000000
                                                     2        0.6000000       -0.37949835    0.00000000
                                                     2        1.6000000        0.89304688    0.00000000
                                      D - F
                                                     0        0.0000010        0.05443663    0.00000000
                                                     2        0.1200000       -0.29679479    0.00000000
                                                     2        0.1400000        0.36849872    0.00000000
                                                     2        0.2400000        0.02793449    0.00000000
                                                     2        0.4000000       -0.46312857    0.00000000
                                                     2        0.7000000        0.97587598    0.00000000
                                                     2        1.5000000       -2.43431102    0.00000000
    7          1            1
                                      F and up 
                                                     0        0.0000010       -0.00007675    0.00000000
                                                     2        0.1200000        0.05352699    0.00000000
                                                     2        0.1400000       -0.25123645    0.00000000
                                                     2        0.1600000        0.32188106    0.00000000
                                                     2        0.2200000       -0.25206857    0.00000000
                                                     2        0.3000000        0.19290477    0.00000000
                                                     2        0.5000000       -0.10129770    0.00000000
                                                     2        0.9000000        0.00314995    0.00000000
                                                     2        1.5000000        0.18401192    0.00000000
                                      S - F
                                                     0        0.0000010        0.08065976    0.00000000
                                                     2        0.1200000       -0.09231673    0.00000000
                                                     2        0.1600000       -0.03278082    0.00000000
                                                     2        0.2800000        0.38423402    0.00000000
                                                     2        0.6000000       -1.09357590    0.00000000
                                                     2        1.1000000        1.53099489    0.00000000
                                                     2        3.0000000       -2.63300202    0.00000000
                                      P - F
                                                     0        0.0000010       -0.11638665    0.00000000
                                                     2        0.1200000        0.35468655    0.00000000
                                                     2        0.1600000       -0.59160923    0.00000000
                                                     2        0.3000000        0.49390547    0.00000000
                                                     2        0.6000000       -0.37949835    0.00000000
                                                     2        1.6000000        0.89304688    0.00000000
                                      D - F
                                                     0        0.0000010        0.05443663    0.00000000
                                                     2        0.1200000       -0.29679479    0.00000000
                                                     2        0.1400000        0.36849872    0.00000000
                                                     2        0.2400000        0.02793449    0.00000000
                                                     2        0.4000000       -0.46312857    0.00000000
                                                     2        0.7000000        0.97587598    0.00000000
                                                     2        1.5000000       -2.43431102    0.00000000
    8          1            1
                                      F and up 
                                                     0        0.0000010       -0.00007675    0.00000000
                                                     2        0.1200000        0.05352699    0.00000000
                                                     2        0.1400000       -0.25123645    0.00000000
                                                     2        0.1600000        0.32188106    0.00000000
                                                     2        0.2200000       -0.25206857    0.00000000
                                                     2        0.3000000        0.19290477    0.00000000
                                                     2        0.5000000       -0.10129770    0.00000000
                                                     2        0.9000000        0.00314995    0.00000000
                                                     2        1.5000000        0.18401192    0.00000000
                                      S - F
                                                     0        0.0000010        0.08065976    0.00000000
                                                     2        0.1200000       -0.09231673    0.00000000
                                                     2        0.1600000       -0.03278082    0.00000000
                                                     2        0.2800000        0.38423402    0.00000000
                                                     2        0.6000000       -1.09357590    0.00000000
                                                     2        1.1000000        1.53099489    0.00000000
                                                     2        3.0000000       -2.63300202    0.00000000
                                      P - F
                                                     0        0.0000010       -0.11638665    0.00000000
                                                     2        0.1200000        0.35468655    0.00000000
                                                     2        0.1600000       -0.59160923    0.00000000
                                                     2        0.3000000        0.49390547    0.00000000
                                                     2        0.6000000       -0.37949835    0.00000000
                                                     2        1.6000000        0.89304688    0.00000000
                                      D - F
                                                     0        0.0000010        0.05443663    0.00000000
                                                     2        0.1200000       -0.29679479    0.00000000
                                                     2        0.1400000        0.36849872    0.00000000
                                                     2        0.2400000        0.02793449    0.00000000
                                                     2        0.4000000       -0.46312857    0.00000000
                                                     2        0.7000000        0.97587598    0.00000000
                                                     2        1.5000000       -2.43431102    0.00000000
    9          6            6
                                      G and up 
                                                     0        0.0000010       -0.00007288    0.00000000
                                                     2        0.1200000        0.10466671    0.00000000
                                                     2        0.1400000       -0.65716157    0.00000000
                                                     2        0.1600000        1.18890794    0.00000000
                                                     2        0.2000000       -1.25772850    0.00000000
                                                     2        0.2600000        1.01188378    0.00000000
                                                     2        0.4000000       -1.09380874    0.00000000
                                                     2        0.5000000        0.96944888    0.00000000
                                                     2        1.0000000       -0.79256938    0.00000000
                                                     2        3.0000000        1.06443276    0.00000000
                                      S - G
                                                     0        0.0000010       -0.00635295    0.00000000
                                                     2        0.1200000        0.16918955    0.00000000
                                                     2        0.1600000       -0.38862576    0.00000000
                                                     2        0.2800000        0.25638263    0.00000000
                                                     2        0.5000000        0.29628419    0.00000000
                                                     2        0.9000000       -0.28791512    0.00000000
                                      P - G
                                                     0        0.0000010       -0.04756931    0.00000000
                                                     2        0.1200000        0.28430375    0.00000000
                                                     2        0.1600000       -0.69640032    0.00000000
                                                     2        0.2600000        1.13005668    0.00000000
                                                     2        0.4000000       -1.31433324    0.00000000
                                                     2        0.7000000        0.91526469    0.00000000
                                      D - G
                                                     0        0.0000010       -0.11496411    0.00000000
                                                     2        0.1200000        0.16620776    0.00000000
                                                     2        0.1800000       -0.30959819    0.00000000
                                                     2        0.3000000        0.16621458    0.00000000
                                                     2        0.6000000        0.27350556    0.00000000
                                      F - G
                                                     0        0.0000010        0.12037550    0.00000000
                                                     2        0.1200000       -0.48737077    0.00000000
                                                     2        0.1400000        0.58315350    0.00000000
                                                     2        0.3000000        0.00005188    0.00000000
                                                     2        0.5000000       -1.16063549    0.00000000
                                                     2        0.8000000        2.09053308    0.00000000
   10          6            6
                                      G and up 
                                                     0        0.0000010       -0.00007288    0.00000000
                                                     2        0.1200000        0.10466671    0.00000000
                                                     2        0.1400000       -0.65716157    0.00000000
                                                     2        0.1600000        1.18890794    0.00000000
                                                     2        0.2000000       -1.25772850    0.00000000
                                                     2        0.2600000        1.01188378    0.00000000
                                                     2        0.4000000       -1.09380874    0.00000000
                                                     2        0.5000000        0.96944888    0.00000000
                                                     2        1.0000000       -0.79256938    0.00000000
                                                     2        3.0000000        1.06443276    0.00000000
                                      S - G
                                                     0        0.0000010       -0.00635295    0.00000000
                                                     2        0.1200000        0.16918955    0.00000000
                                                     2        0.1600000       -0.38862576    0.00000000
                                                     2        0.2800000        0.25638263    0.00000000
                                                     2        0.5000000        0.29628419    0.00000000
                                                     2        0.9000000       -0.28791512    0.00000000
                                      P - G
                                                     0        0.0000010       -0.04756931    0.00000000
                                                     2        0.1200000        0.28430375    0.00000000
                                                     2        0.1600000       -0.69640032    0.00000000
                                                     2        0.2600000        1.13005668    0.00000000
                                                     2        0.4000000       -1.31433324    0.00000000
                                                     2        0.7000000        0.91526469    0.00000000
                                      D - G
                                                     0        0.0000010       -0.11496411    0.00000000
                                                     2        0.1200000        0.16620776    0.00000000
                                                     2        0.1800000       -0.30959819    0.00000000
                                                     2        0.3000000        0.16621458    0.00000000
                                                     2        0.6000000        0.27350556    0.00000000
                                      F - G
                                                     0        0.0000010        0.12037550    0.00000000
                                                     2        0.1200000       -0.48737077    0.00000000
                                                     2        0.1400000        0.58315350    0.00000000
                                                     2        0.3000000        0.00005188    0.00000000
                                                     2        0.5000000       -1.16063549    0.00000000
                                                     2        0.8000000        2.09053308    0.00000000
   11          1            1
                                      F and up 
                                                     0        0.0000010       -0.00007675    0.00000000
                                                     2        0.1200000        0.05352699    0.00000000
                                                     2        0.1400000       -0.25123645    0.00000000
                                                     2        0.1600000        0.32188106    0.00000000
                                                     2        0.2200000       -0.25206857    0.00000000
                                                     2        0.3000000        0.19290477    0.00000000
                                                     2        0.5000000       -0.10129770    0.00000000
                                                     2        0.9000000        0.00314995    0.00000000
                                                     2        1.5000000        0.18401192    0.00000000
                                      S - F
                                                     0        0.0000010        0.08065976    0.00000000
                                                     2        0.1200000       -0.09231673    0.00000000
                                                     2        0.1600000       -0.03278082    0.00000000
                                                     2        0.2800000        0.38423402    0.00000000
                                                     2        0.6000000       -1.09357590    0.00000000
                                                     2        1.1000000        1.53099489    0.00000000
                                                     2        3.0000000       -2.63300202    0.00000000
                                      P - F
                                                     0        0.0000010       -0.11638665    0.00000000
                                                     2        0.1200000        0.35468655    0.00000000
                                                     2        0.1600000       -0.59160923    0.00000000
                                                     2        0.3000000        0.49390547    0.00000000
                                                     2        0.6000000       -0.37949835    0.00000000
                                                     2        1.6000000        0.89304688    0.00000000
                                      D - F
                                                     0        0.0000010        0.05443663    0.00000000
                                                     2        0.1200000       -0.29679479    0.00000000
                                                     2        0.1400000        0.36849872    0.00000000
                                                     2        0.2400000        0.02793449    0.00000000
                                                     2        0.4000000       -0.46312857    0.00000000
                                                     2        0.7000000        0.97587598    0.00000000
                                                     2        1.5000000       -2.43431102    0.00000000
   12          1            1
                                      F and up 
                                                     0        0.0000010       -0.00007675    0.00000000
                                                     2        0.1200000        0.05352699    0.00000000
                                                     2        0.1400000       -0.25123645    0.00000000
                                                     2        0.1600000        0.32188106    0.00000000
                                                     2        0.2200000       -0.25206857    0.00000000
                                                     2        0.3000000        0.19290477    0.00000000
                                                     2        0.5000000       -0.10129770    0.00000000
                                                     2        0.9000000        0.00314995    0.00000000
                                                     2        1.5000000        0.18401192    0.00000000
                                      S - F
                                                     0        0.0000010        0.08065976    0.00000000
                                                     2        0.1200000       -0.09231673    0.00000000
                                                     2        0.1600000       -0.03278082    0.00000000
                                                     2        0.2800000        0.38423402    0.00000000
                                                     2        0.6000000       -1.09357590    0.00000000
                                                     2        1.1000000        1.53099489    0.00000000
                                                     2        3.0000000       -2.63300202    0.00000000
                                      P - F
                                                     0        0.0000010       -0.11638665    0.00000000
                                                     2        0.1200000        0.35468655    0.00000000
                                                     2        0.1600000       -0.59160923    0.00000000
                                                     2        0.3000000        0.49390547    0.00000000
                                                     2        0.6000000       -0.37949835    0.00000000
                                                     2        1.6000000        0.89304688    0.00000000
                                      D - F
                                                     0        0.0000010        0.05443663    0.00000000
                                                     2        0.1200000       -0.29679479    0.00000000
                                                     2        0.1400000        0.36849872    0.00000000
                                                     2        0.2400000        0.02793449    0.00000000
                                                     2        0.4000000       -0.46312857    0.00000000
                                                     2        0.7000000        0.97587598    0.00000000
                                                     2        1.5000000       -2.43431102    0.00000000
 ======================================================================================================
   178 basis functions,   292 primitive gaussians,   188 cartesian basis functions
    19 alpha electrons       19 beta electrons
       nuclear repulsion energy       159.2454403440 Hartrees.
 NAtoms=   12 NActive=   12 NUniq=    8 SFac= 2.25D+00 NAtFMM=   60 NAOKFM=F Big=F
   2 Symmetry operations used in ECPInt.
 ECPInt:  NShTT=    3240 NPrTT=   13776 LenC2=    3239 LenP2D=   11450.
 LDataN:  DoStor=T MaxTD1= 6 Len=  172
 Initial guess from the checkpoint file:  "2-methylpropanenitrile.chk"
 B after Tr=    -0.000000    0.000000    0.000000
         Rot=    1.000000   -0.000000   -0.000000    0.000000 Ang=   0.00 deg.
 Initial guess orbital symmetries:
       Occupied  (A') (A') (A') (A") (A') (A') (A') (A") (A') (A')
                 (A') (A") (A') (A") (A') (A') (A") (A") (A')
       Virtual   (A') (A") (A') (A') (A') (A") (A") (A') (A') (A')
                 (A") (A") (A') (A") (A') (A') (A') (A") (A') (A")
                 (A') (A") (A") (A') (A') (A') (A') (A') (A") (A')
                 (A") (A') (A") (A') (A') (A") (A") (A') (A') (A")
                 (A') (A") (A") (A') (A') (A') (A') (A") (A') (A")
                 (A') (A") (A') (A') (A') (A") (A") (A') (A") (A')
                 (A") (A') (A") (A') (A") (A') (A") (A') (A') (A")
                 (A') (A") (A') (A") (A') (A") (A') (A") (A') (A")
                 (A') (A") (A') (A') (A') (A") (A') (A') (A') (A")
                 (A") (A') (A") (A') (A') (A") (A') (A") (A") (A')
                 (A') (A") (A') (A') (A") (A') (A") (A') (A") (A")
                 (A') (A') (A") (A') (A') (A") (A") (A') (A') (A")
                 (A') (A") (A') (A") (A') (A') (A") (A') (A') (A")
                 (A") (A') (A') (A') (A") (A") (A') (A") (A') (A")
                 (A') (A") (A') (A') (A") (A') (A') (A") (A') (A")
                 (A') (A") (A') (A") (A') (A") (A') (A') (A')
 >>>>>>>>>> Convergence criterion not met.
 SCF Done:  E(RHF) =  -210.243601591     A.U. after    2 cycles
            NFock=  1  Conv=0.18D-01     -V/T= 1.9992

 **********************************************************************

            Population analysis using the SCF Density.

 **********************************************************************

 Orbital symmetries:
       Occupied  (A') (A') (A') (A") (A') (A') (A') (A") (A') (A')
                 (A') (A") (A') (A") (A') (A') (A") (A") (A')
       Virtual   (A') (A") (A') (A') (A') (A") (A") (A') (A') (A')
                 (A") (A') (A") (A') (A") (A') (A') (A") (A') (A')
                 (A") (A") (A") (A') (A') (A') (A') (A') (A") (A')
                 (A") (A') (A") (A') (A') (A") (A") (A') (A') (A")
                 (A') (A") (A') (A") (A') (A') (A') (A") (A') (A")
                 (A') (A") (A') (A') (A') (A") (A") (A') (A") (A')
                 (A") (A') (A") (A') (A") (A') (A") (A') (A') (A")
                 (A') (A") (A') (A") (A') (A") (A') (A") (A') (A")
                 (A') (A") (A') (A') (A') (A") (A') (A') (A') (A")
                 (A") (A') (A") (A') (A') (A') (A") (A") (A") (A')
                 (A') (A") (A') (A') (A") (A") (A') (A') (A") (A')
                 (A") (A') (A") (A') (A') (A") (A') (A") (A') (A")
                 (A') (A") (A') (A") (A') (A") (A') (A') (A") (A')
                 (A') (A") (A') (A") (A") (A') (A') (A') (A") (A')
                 (A") (A") (A') (A") (A') (A') (A') (A") (A') (A")
                 (A') (A") (A') (A") (A') (A') (A") (A') (A')
 The electronic state is 1-A'.
 Alpha  occ. eigenvalues --  -15.50694 -11.29462 -11.27422 -11.25410 -11.25399
 Alpha  occ. eigenvalues --   -1.23161  -1.11357  -0.96459  -0.88594  -0.71582
 Alpha  occ. eigenvalues --   -0.65404  -0.61153  -0.60823  -0.57368  -0.55351
 Alpha  occ. eigenvalues --   -0.53943  -0.53525  -0.48530  -0.48285
 Alpha virt. eigenvalues --    0.02908   0.03844   0.03876   0.04687   0.06292
 Alpha virt. eigenvalues --    0.06821   0.07277   0.09418   0.11174   0.13066
 Alpha virt. eigenvalues --    0.13696   0.14490   0.14868   0.15739   0.15799
 Alpha virt. eigenvalues --    0.16348   0.16973   0.17354   0.17777   0.18419
 Alpha virt. eigenvalues --    0.18558   0.20227   0.21748   0.22386   0.22551
 Alpha virt. eigenvalues --    0.26333   0.28837   0.29306   0.29823   0.30929
 Alpha virt. eigenvalues --    0.32090   0.32729   0.33515   0.35339   0.38213
 Alpha virt. eigenvalues --    0.38542   0.39530   0.41614   0.43914   0.44420
 Alpha virt. eigenvalues --    0.44515   0.45174   0.45447   0.45666   0.47417
 Alpha virt. eigenvalues --    0.48269   0.49553   0.51909   0.52611   0.55097
 Alpha virt. eigenvalues --    0.56713   0.56838   0.57309   0.58103   0.59801
 Alpha virt. eigenvalues --    0.60025   0.60887   0.61999   0.65276   0.65442
 Alpha virt. eigenvalues --    0.65786   0.66936   0.68923   0.69043   0.70808
 Alpha virt. eigenvalues --    0.71769   0.72555   0.74808   0.76683   0.78234
 Alpha virt. eigenvalues --    0.79106   0.79418   0.80493   0.84290   0.86061
 Alpha virt. eigenvalues --    0.86726   0.90009   0.90117   0.92786   0.93406
 Alpha virt. eigenvalues --    0.94498   0.99294   1.00088   1.01831   1.05846
 Alpha virt. eigenvalues --    1.07885   1.11477   1.12741   1.13324   1.15708
 Alpha virt. eigenvalues --    1.18588   1.22494   1.26637   1.27386   1.31487
 Alpha virt. eigenvalues --    1.34004   1.36218   1.39470   1.47244   1.48633
 Alpha virt. eigenvalues --    1.51456   1.56746   1.58171   1.63888   1.64118
 Alpha virt. eigenvalues --    1.68394   1.69732   1.70916   1.75158   1.76023
 Alpha virt. eigenvalues --    1.78076   1.79556   1.85107   1.85730   1.91769
 Alpha virt. eigenvalues --    1.94049   1.94585   1.97104   1.99344   2.00835
 Alpha virt. eigenvalues --    2.02619   2.11598   2.14177   2.16110   2.17754
 Alpha virt. eigenvalues --    2.20649   2.20754   2.23957   2.26356   2.28134
 Alpha virt. eigenvalues --    2.30523   2.33807   2.36615   2.37311   2.40513
 Alpha virt. eigenvalues --    2.41932   2.45050   2.50853   2.51765   2.52897
 Alpha virt. eigenvalues --    2.54076   2.57885   2.63406   2.72899   2.73919
 Alpha virt. eigenvalues --    2.81229   2.86589   2.89516   2.92121   2.94448
 Alpha virt. eigenvalues --    2.97997   3.01146   3.06731   3.16167   3.20276
 Alpha virt. eigenvalues --    3.22003   3.22182   3.33815   3.61097
          Condensed to atoms (all electrons):
 Mulliken charges:
               1
     1  N    0.974521
     2  C   -1.561764
     3  H    0.243555
     4  C   -0.785915
     5  H    0.145556
     6  H    0.145556
     7  H    0.236427
     8  H    0.236427
     9  C    0.034937
    10  C    0.034937
    11  H    0.147882
    12  H    0.147882
 Sum of Mulliken charges =  -0.00000
 Mulliken charges with hydrogens summed into heavy atoms:
               1
     1  N    0.974521
     2  C   -1.561764
     4  C   -0.542359
     9  C    0.564801
    10  C    0.564801
 Electronic spatial extent (au):  <R**2>=            460.9935
 Charge=              0.0000 electrons
 Dipole moment (field-independent basis, Debye):
    X=              1.4303    Y=              4.7058    Z=              0.0000  Tot=              4.9183

 Test job not archived.
 1\1\GINC-SE225\SP\RHF\Aug-CC-pVDZ\C4H7N1\OHZDE\05-Apr-2025\0\\#t hf au
 g-cc-pvdz iop(5/13=1,5/36=2,99/5=2) pseudo=read geom=check guess=(read
 ,tcheck) scf=(maxcycle=1)\\title\\0,1\N,0,-0.40075,-2.173012,0.\C,0,-0
 .026829,-1.085083,0.\H,0,1.527406,0.267302,0.\C,0,0.434603,0.306529,0.
 \H,0,0.322951,0.513931,2.17027\H,0,0.322951,0.513931,-2.17027\H,0,-1.1
 14559,1.081957,-1.317044\H,0,-1.114559,1.081957,1.317044\C,0,-0.026829
 ,1.027994,-1.276481\C,0,-0.026829,1.027994,1.276481\H,0,0.368182,2.043
 699,-1.284867\H,0,0.368182,2.043699,1.284867\\Version=ES64L-G16RevC.01
 \State=1-A'\HF=-210.2436016\RMSD=1.821e-02\Dipole=0.5627119,1.8513976,
 0.\Quadrupole=2.4654723,-5.3741854,2.9087132,-1.5588765,0.,0.\PG=CS [S
 G(C2H1N1),X(C2H6)]\\@


 LOGIC IS A SYSTEMATIC METHOD OF COMING TO THE
 WRONG CONCLUSION WITH CONFIDENCE.
 Job cpu time:       0 days  0 hours  0 minutes 29.8 seconds.
 Elapsed time:       0 days  0 hours  0 minutes  2.7 seconds.
 File lengths (MBytes):  RWF=     10 Int=      0 D2E=      0 Chk=      5 Scr=      1
 Normal termination of Gaussian 16 at Sat Apr  5 22:40:54 2025.
