 Entering Gaussian System, Link 0=g16
 Input=3-3-dichloropropyne.gjf
 Output=3-3-dichloropropyne.log
 Initial command:
 /arc/software/Gaussian/g16.c01/l1.exe "/tmp/slurm/4815454/Gau-3647032.inp" -scrdir="/tmp/slurm/4815454/"
 Entering Link 1 = /arc/software/Gaussian/g16.c01/l1.exe PID=   3647033.
  
 Copyright (c) 1988-2019, Gaussian, Inc.  All Rights Reserved.
  
 This is part of the Gaussian(R) 16 program.  It is based on
 the Gaussian(R) 09 system (copyright 2009, Gaussian, Inc.),
 the Gaussian(R) 03 system (copyright 2003, Gaussian, Inc.),
 the Gaussian(R) 98 system (copyright 1998, Gaussian, Inc.),
 the Gaussian(R) 94 system (copyright 1995, Gaussian, Inc.),
 the Gaussian 92(TM) system (copyright 1992, Gaussian, Inc.),
 the Gaussian 90(TM) system (copyright 1990, Gaussian, Inc.),
 the Gaussian 88(TM) system (copyright 1988, Gaussian, Inc.),
 the Gaussian 86(TM) system (copyright 1986, Carnegie Mellon
 University), and the Gaussian 82(TM) system (copyright 1983,
 Carnegie Mellon University). Gaussian is a federally registered
 trademark of Gaussian, Inc.
  
 This software contains proprietary and confidential information,
 including trade secrets, belonging to Gaussian, Inc.
  
 This software is provided under written license and may be
 used, copied, transmitted, or stored only in accord with that
 written license.
  
 The following legend is applicable only to US Government
 contracts under FAR:
  
                    RESTRICTED RIGHTS LEGEND
  
 Use, reproduction and disclosure by the US Government is
 subject to restrictions as set forth in subparagraphs (a)
 and (c) of the Commercial Computer Software - Restricted
 Rights clause in FAR 52.227-19.
  
 Gaussian, Inc.
 340 Quinnipiac St., Bldg. 40, Wallingford CT 06492
  
  
 ---------------------------------------------------------------
 Warning -- This program may not be used in any manner that
 competes with the business of Gaussian, Inc. or will provide
 assistance to any competitor of Gaussian, Inc.  The licensee
 of this program is prohibited from giving any competitor of
 Gaussian, Inc. access to this program.  By using this program,
 the user acknowledges that Gaussian, Inc. is engaged in the
 business of creating and licensing software in the field of
 computational chemistry and represents and warrants to the
 licensee that it is not a competitor of Gaussian, Inc. and that
 it will not use this program in any manner prohibited above.
 ---------------------------------------------------------------
  

 Cite this work as:
 Gaussian 16, Revision C.01,
 M. J. Frisch, G. W. Trucks, H. B. Schlegel, G. E. Scuseria, 
 M. A. Robb, J. R. Cheeseman, G. Scalmani, V. Barone, 
 G. A. Petersson, H. Nakatsuji, X. Li, M. Caricato, A. V. Marenich, 
 J. Bloino, B. G. Janesko, R. Gomperts, B. Mennucci, H. P. Hratchian, 
 J. V. Ortiz, A. F. Izmaylov, J. L. Sonnenberg, D. Williams-Young, 
 F. Ding, F. Lipparini, F. Egidi, J. Goings, B. Peng, A. Petrone, 
 T. Henderson, D. Ranasinghe, V. G. Zakrzewski, J. Gao, N. Rega, 
 G. Zheng, W. Liang, M. Hada, M. Ehara, K. Toyota, R. Fukuda, 
 J. Hasegawa, M. Ishida, T. Nakajima, Y. Honda, O. Kitao, H. Nakai, 
 T. Vreven, K. Throssell, J. A. Montgomery, Jr., J. E. Peralta, 
 F. Ogliaro, M. J. Bearpark, J. J. Heyd, E. N. Brothers, K. N. Kudin, 
 V. N. Staroverov, T. A. Keith, R. Kobayashi, J. Normand, 
 K. Raghavachari, A. P. Rendell, J. C. Burant, S. S. Iyengar, 
 J. Tomasi, M. Cossi, J. M. Millam, M. Klene, C. Adamo, R. Cammi, 
 J. W. Ochterski, R. L. Martin, K. Morokuma, O. Farkas, 
 J. B. Foresman, and D. J. Fox, Gaussian, Inc., Wallingford CT, 2019.
 
 ******************************************
 Gaussian 16:  ES64L-G16RevC.01  3-Jul-2019
                 5-Apr-2025 
 ******************************************
 %nprocs=16
 Will use up to   16 processors via shared memory.
 %mem=30GB
 %chk=3-3-dichloropropyne.chk
 ----------------------------------------------------------------------
 #t hf aug-cc-pvdz symm=none int=(grid=ultrafine) guess=(read,tcheck) s
 table=(opt,rrhf)
 ----------------------------------------------------------------------
 -----
 title
 -----
 Symbolic Z-matrix:
 Charge =  0 Multiplicity = 1
 Cl                    0.81128   1.48638  -0.11306 
 Cl                    0.8114   -1.48632  -0.11298 
 C                    -0.02364   0.00001   0.49078 
 C                    -1.41427  -0.00005   0.12166 
 C                    -2.57754  -0.00009  -0.16298 
 H                     0.11506   0.00004   1.56516 
 H                    -3.60796  -0.00012  -0.41921 
 
                    Distance matrix (angstroms):
                    1          2          3          4          5
     1  Cl   0.000000
     2  Cl   2.972699   0.000000
     3  C    1.808591   1.808591   0.000000
     4  C    2.686563   2.686567   1.438782   0.000000
     5  C    3.700830   3.700846   2.636246   1.197588   0.000000
     6  H    2.347411   2.347409   1.083296   2.102984   3.199464
     7  H    4.672592   4.672614   3.698035   2.259391   1.061807
                    6          7
     6  H    0.000000
     7  H    4.218846   0.000000
 Symmetry turned off by external request.
 Rotational constants (GHZ):           3.1312791           2.9802264           1.5932602
   141 basis functions,   313 primitive gaussians,   151 cartesian basis functions
    27 alpha electrons       27 beta electrons
       nuclear repulsion energy       239.1880178750 Hartrees.
 NAtoms=    7 NActive=    7 NUniq=    7 SFac= 1.00D+00 NAtFMM=   60 NAOKFM=F Big=F
 ExpMin= 2.97D-02 ExpMax= 1.28D+05 ExpMxC= 1.24D+03 IAcc=3 IRadAn=         5 AccDes= 0.00D+00
 Harris functional with IExCor=  205 and IRadAn=       5 diagonalized for initial guess.
 HarFok:  IExCor=  205 AccDes= 0.00D+00 IRadAn=         5 IDoV= 1 UseB2=F ITyADJ=14
 ICtDFT=  3500011 ScaDFX=  1.000000  1.000000  1.000000  1.000000
 FoFCou: FMM=F IPFlag=           0 FMFlag=      100000 FMFlg1=           0
         NFxFlg=           0 DoJE=T BraDBF=F KetDBF=T FulRan=T
         wScrn=  0.000000 ICntrl=       500 IOpCl=  0 I1Cent=   200000004 NGrid=           0
         NMat0=    1 NMatS0=      1 NMatT0=    0 NMatD0=    1 NMtDS0=    0 NMtDT0=    0
 Symmetry not used in FoFCou.
 SCF Done:  E(RHF) =  -1033.70680617     A.U. after   14 cycles
            NFock= 14  Conv=0.47D-08     -V/T= 2.0001

 **********************************************************************

            Population analysis using the SCF Density.

 **********************************************************************

 Alpha  occ. eigenvalues -- -104.85464-104.85464 -11.40807 -11.27588 -11.27158
 Alpha  occ. eigenvalues --  -10.58030 -10.58028  -8.04794  -8.04794  -8.04443
 Alpha  occ. eigenvalues --   -8.04443  -8.04436  -8.04436  -1.20937  -1.10053
 Alpha  occ. eigenvalues --   -1.06526  -0.93486  -0.75999  -0.70562  -0.63522
 Alpha  occ. eigenvalues --   -0.60401  -0.48886  -0.48307  -0.46092  -0.45241
 Alpha  occ. eigenvalues --   -0.42257  -0.41882
 Alpha virt. eigenvalues --    0.03364   0.04124   0.07484   0.08149   0.08925
 Alpha virt. eigenvalues --    0.09148   0.10031   0.12579   0.14436   0.14493
 Alpha virt. eigenvalues --    0.14608   0.15538   0.16283   0.16359   0.17685
 Alpha virt. eigenvalues --    0.18214   0.19151   0.19221   0.21187   0.21620
 Alpha virt. eigenvalues --    0.23852   0.27672   0.28040   0.30804   0.30852
 Alpha virt. eigenvalues --    0.31972   0.33129   0.36811   0.40825   0.41112
 Alpha virt. eigenvalues --    0.42394   0.42983   0.43737   0.46882   0.48052
 Alpha virt. eigenvalues --    0.49068   0.50176   0.50605   0.51971   0.54324
 Alpha virt. eigenvalues --    0.55866   0.57413   0.58227   0.60185   0.61361
 Alpha virt. eigenvalues --    0.63363   0.68165   0.68788   0.69954   0.69985
 Alpha virt. eigenvalues --    0.75890   0.77441   0.77947   0.80217   0.81082
 Alpha virt. eigenvalues --    0.83668   0.85653   0.86672   0.88134   0.92445
 Alpha virt. eigenvalues --    0.94476   0.95572   0.98407   1.00336   1.03690
 Alpha virt. eigenvalues --    1.09605   1.10196   1.12439   1.14119   1.17910
 Alpha virt. eigenvalues --    1.21602   1.24141   1.24352   1.26969   1.37107
 Alpha virt. eigenvalues --    1.40050   1.41745   1.42404   1.43396   1.45501
 Alpha virt. eigenvalues --    1.45630   1.49766   1.49813   1.51690   1.51763
 Alpha virt. eigenvalues --    1.58071   1.58394   1.63740   1.67243   1.69345
 Alpha virt. eigenvalues --    1.70260   1.72396   1.72960   1.88076   1.89619
 Alpha virt. eigenvalues --    1.89963   1.90810   1.92346   2.02562   2.10180
 Alpha virt. eigenvalues --    2.23642   2.26586   2.27057   2.33129   2.37575
 Alpha virt. eigenvalues --    2.41027   2.59711   2.62028   2.71418   2.78520
 Alpha virt. eigenvalues --    2.81598   2.95534   3.56025   4.10242
          Condensed to atoms (all electrons):
 Mulliken charges:
               1
     1  Cl   0.030401
     2  Cl   0.030402
     3  C   -0.986910
     4  C    0.460234
     5  C    0.676081
     6  H    0.190871
     7  H   -0.401079
 Sum of Mulliken charges =  -0.00000
 Mulliken charges with hydrogens summed into heavy atoms:
               1
     1  Cl   0.030401
     2  Cl   0.030402
     3  C   -0.796039
     4  C    0.460234
     5  C    0.275002
 Electronic spatial extent (au):  <R**2>=            689.5002
 Charge=             -0.0000 electrons
 Dipole moment (field-independent basis, Debye):
    X=             -1.7887    Y=             -0.0000    Z=              0.9629  Tot=              2.0314
 NROrb=    141 NOA=    27 NOB=    27 NVA=   114 NVB=   114

 **** Warning!!: The largest alpha MO coefficient is  0.52569419D+02

    12 initial guesses have been made.
 Iteration     1 Dimension    12 NMult     0 NNew     12
 New state      1 was old state      4
 Iteration     2 Dimension    24 NMult    12 NNew     12
 New state      1 was old state      2
 Iteration     3 Dimension    27 NMult    24 NNew      3
 Iteration     4 Dimension    30 NMult    27 NNew      3
 New state      1 was old state      2
 Iteration     5 Dimension    33 NMult    30 NNew      3
 Iteration     6 Dimension    36 NMult    33 NNew      3
 Iteration     7 Dimension    39 NMult    36 NNew      3
 ***********************************************************************
 Stability analysis using <AA,BB:AA,BB> singles matrix:
 ***********************************************************************
 Ground to excited state transition densities written to RWF  633

 Eigenvectors of the stability matrix:
 
 Excited state symmetry could not be determined.
 Eigenvector   1:      Singlet-?Sym  Eigenvalue= 0.1884241  <S**2>=0.000
      26 -> 31         0.23177
      26 -> 32         0.26516
      26 -> 40        -0.27622
      26 -> 49        -0.15784
      27 -> 30        -0.14063
      27 -> 33         0.25997
      27 -> 36         0.17388
      27 -> 44        -0.16905
      27 -> 48        -0.16329
 The wavefunction is stable under the perturbations considered.
 The wavefunction is already stable.

 **********************************************************************

            Population analysis using the SCF Density.

 **********************************************************************

 Alpha  occ. eigenvalues -- -104.85464-104.85464 -11.40807 -11.27588 -11.27158
 Alpha  occ. eigenvalues --  -10.58030 -10.58028  -8.04794  -8.04794  -8.04443
 Alpha  occ. eigenvalues --   -8.04443  -8.04436  -8.04436  -1.20937  -1.10053
 Alpha  occ. eigenvalues --   -1.06526  -0.93486  -0.75999  -0.70562  -0.63522
 Alpha  occ. eigenvalues --   -0.60401  -0.48886  -0.48307  -0.46092  -0.45241
 Alpha  occ. eigenvalues --   -0.42257  -0.41882
 Alpha virt. eigenvalues --    0.03364   0.04124   0.07484   0.08149   0.08925
 Alpha virt. eigenvalues --    0.09148   0.10031   0.12579   0.14436   0.14493
 Alpha virt. eigenvalues --    0.14608   0.15538   0.16283   0.16359   0.17685
 Alpha virt. eigenvalues --    0.18214   0.19151   0.19221   0.21187   0.21620
 Alpha virt. eigenvalues --    0.23852   0.27672   0.28040   0.30804   0.30852
 Alpha virt. eigenvalues --    0.31972   0.33129   0.36811   0.40825   0.41112
 Alpha virt. eigenvalues --    0.42394   0.42983   0.43737   0.46882   0.48052
 Alpha virt. eigenvalues --    0.49068   0.50176   0.50605   0.51971   0.54324
 Alpha virt. eigenvalues --    0.55866   0.57413   0.58227   0.60185   0.61361
 Alpha virt. eigenvalues --    0.63363   0.68165   0.68788   0.69954   0.69985
 Alpha virt. eigenvalues --    0.75890   0.77441   0.77947   0.80217   0.81082
 Alpha virt. eigenvalues --    0.83668   0.85653   0.86672   0.88134   0.92445
 Alpha virt. eigenvalues --    0.94476   0.95572   0.98407   1.00336   1.03690
 Alpha virt. eigenvalues --    1.09605   1.10196   1.12439   1.14119   1.17910
 Alpha virt. eigenvalues --    1.21602   1.24141   1.24352   1.26969   1.37107
 Alpha virt. eigenvalues --    1.40050   1.41745   1.42404   1.43396   1.45501
 Alpha virt. eigenvalues --    1.45630   1.49766   1.49813   1.51690   1.51763
 Alpha virt. eigenvalues --    1.58071   1.58394   1.63740   1.67243   1.69345
 Alpha virt. eigenvalues --    1.70260   1.72396   1.72960   1.88076   1.89619
 Alpha virt. eigenvalues --    1.89963   1.90810   1.92346   2.02562   2.10180
 Alpha virt. eigenvalues --    2.23642   2.26586   2.27057   2.33129   2.37575
 Alpha virt. eigenvalues --    2.41027   2.59711   2.62028   2.71418   2.78520
 Alpha virt. eigenvalues --    2.81598   2.95534   3.56025   4.10242
          Condensed to atoms (all electrons):
 Mulliken charges:
               1
     1  Cl   0.030401
     2  Cl   0.030402
     3  C   -0.986910
     4  C    0.460234
     5  C    0.676081
     6  H    0.190871
     7  H   -0.401079
 Sum of Mulliken charges =  -0.00000
 Mulliken charges with hydrogens summed into heavy atoms:
               1
     1  Cl   0.030401
     2  Cl   0.030402
     3  C   -0.796039
     4  C    0.460234
     5  C    0.275002
 Electronic spatial extent (au):  <R**2>=            689.5002
 Charge=             -0.0000 electrons
 Dipole moment (field-independent basis, Debye):
    X=             -1.7887    Y=             -0.0000    Z=              0.9629  Tot=              2.0314
 Unable to Open any file for archive entry.
 1\1\GINC-SE226\Stability\RHF\Aug-CC-pVDZ\C3H2Cl2\OHZDE\05-Apr-2025\0\\
 #t hf aug-cc-pvdz symm=none int=(grid=ultrafine) guess=(read,tcheck) s
 table=(opt,rrhf)\\title\\0,1\Cl,0,0.811282,1.486375,-0.113059\Cl,0,0.8
 11397,-1.486324,-0.112983\C,0,-0.023639,0.000009,0.490782\C,0,-1.41426
 6,-0.000051,0.121661\C,0,-2.577535,-0.000087,-0.162983\H,0,0.115063,0.
 00004,1.565162\H,0,-3.607963,-0.000119,-0.419211\\Version=ES64L-G16Rev
 C.01\HF=-1033.7068062\RMSD=4.704e-09\Dipole=-0.7037267,-0.0000089,0.37
 88441\Quadrupole=3.5291438,-3.0698692,-0.4592747,0.0002063,1.1157627,0
 .0000903\PG=Unknown\\@
 The archive entry for this job was punched.


 In the beginning there was nothing, which exploded.
 Job cpu time:       0 days  0 hours  0 minutes 43.0 seconds.
 Elapsed time:       0 days  0 hours  0 minutes  5.3 seconds.
 File lengths (MBytes):  RWF=    152 Int=      0 D2E=      0 Chk=      4 Scr=      1
 Normal termination of Gaussian 16 at Sat Apr  5 22:42:25 2025.
 Initial command:
 /arc/software/Gaussian/g16.c01/l1.exe "/tmp/slurm/4815454/Gau-3647032.inp" -scrdir="/tmp/slurm/4815454/"
 Entering Link 1 = /arc/software/Gaussian/g16.c01/l1.exe PID=   3647244.
  
 Copyright (c) 1988-2019, Gaussian, Inc.  All Rights Reserved.
  
 This is part of the Gaussian(R) 16 program.  It is based on
 the Gaussian(R) 09 system (copyright 2009, Gaussian, Inc.),
 the Gaussian(R) 03 system (copyright 2003, Gaussian, Inc.),
 the Gaussian(R) 98 system (copyright 1998, Gaussian, Inc.),
 the Gaussian(R) 94 system (copyright 1995, Gaussian, Inc.),
 the Gaussian 92(TM) system (copyright 1992, Gaussian, Inc.),
 the Gaussian 90(TM) system (copyright 1990, Gaussian, Inc.),
 the Gaussian 88(TM) system (copyright 1988, Gaussian, Inc.),
 the Gaussian 86(TM) system (copyright 1986, Carnegie Mellon
 University), and the Gaussian 82(TM) system (copyright 1983,
 Carnegie Mellon University). Gaussian is a federally registered
 trademark of Gaussian, Inc.
  
 This software contains proprietary and confidential information,
 including trade secrets, belonging to Gaussian, Inc.
  
 This software is provided under written license and may be
 used, copied, transmitted, or stored only in accord with that
 written license.
  
 The following legend is applicable only to US Government
 contracts under FAR:
  
                    RESTRICTED RIGHTS LEGEND
  
 Use, reproduction and disclosure by the US Government is
 subject to restrictions as set forth in subparagraphs (a)
 and (c) of the Commercial Computer Software - Restricted
 Rights clause in FAR 52.227-19.
  
 Gaussian, Inc.
 340 Quinnipiac St., Bldg. 40, Wallingford CT 06492
  
  
 ---------------------------------------------------------------
 Warning -- This program may not be used in any manner that
 competes with the business of Gaussian, Inc. or will provide
 assistance to any competitor of Gaussian, Inc.  The licensee
 of this program is prohibited from giving any competitor of
 Gaussian, Inc. access to this program.  By using this program,
 the user acknowledges that Gaussian, Inc. is engaged in the
 business of creating and licensing software in the field of
 computational chemistry and represents and warrants to the
 licensee that it is not a competitor of Gaussian, Inc. and that
 it will not use this program in any manner prohibited above.
 ---------------------------------------------------------------
  

 Cite this work as:
 Gaussian 16, Revision C.01,
 M. J. Frisch, G. W. Trucks, H. B. Schlegel, G. E. Scuseria, 
 M. A. Robb, J. R. Cheeseman, G. Scalmani, V. Barone, 
 G. A. Petersson, H. Nakatsuji, X. Li, M. Caricato, A. V. Marenich, 
 J. Bloino, B. G. Janesko, R. Gomperts, B. Mennucci, H. P. Hratchian, 
 J. V. Ortiz, A. F. Izmaylov, J. L. Sonnenberg, D. Williams-Young, 
 F. Ding, F. Lipparini, F. Egidi, J. Goings, B. Peng, A. Petrone, 
 T. Henderson, D. Ranasinghe, V. G. Zakrzewski, J. Gao, N. Rega, 
 G. Zheng, W. Liang, M. Hada, M. Ehara, K. Toyota, R. Fukuda, 
 J. Hasegawa, M. Ishida, T. Nakajima, Y. Honda, O. Kitao, H. Nakai, 
 T. Vreven, K. Throssell, J. A. Montgomery, Jr., J. E. Peralta, 
 F. Ogliaro, M. J. Bearpark, J. J. Heyd, E. N. Brothers, K. N. Kudin, 
 V. N. Staroverov, T. A. Keith, R. Kobayashi, J. Normand, 
 K. Raghavachari, A. P. Rendell, J. C. Burant, S. S. Iyengar, 
 J. Tomasi, M. Cossi, J. M. Millam, M. Klene, C. Adamo, R. Cammi, 
 J. W. Ochterski, R. L. Martin, K. Morokuma, O. Farkas, 
 J. B. Foresman, and D. J. Fox, Gaussian, Inc., Wallingford CT, 2019.
 
 ******************************************
 Gaussian 16:  ES64L-G16RevC.01  3-Jul-2019
                 5-Apr-2025 
 ******************************************
 %nprocs=16
 Will use up to   16 processors via shared memory.
 %mem=30GB
 %chk=3-3-dichloropropyne.chk
 ----------------------------------------------------------------------
 #t hf aug-cc-pvdz iop(5/13=1,5/36=2,99/5=2) pseudo=read geom=check gue
 ss=(read,tcheck) scf=(maxcycle=1)
 ----------------------------------------------------------------------
 -----
 title
 -----
 Structure from the checkpoint file:  "3-3-dichloropropyne.chk"
 Charge =  0 Multiplicity = 1
 Z-Matrix found in chk file.
 Cl,0,0.811282,1.486375,-0.113059
 Cl,0,0.811397,-1.486324,-0.112983
 C,0,-0.023639,0.000009,0.490782
 C,0,-1.414266,-0.000051,0.121661
 C,0,-2.577535,-0.000087,-0.162983
 H,0,0.115063,0.00004,1.565162
 H,0,-3.607963,-0.000119,-0.419211
 Recover connectivity data from disk.
                    Distance matrix (angstroms):
                    1          2          3          4          5
     1  Cl   0.000000
     2  Cl   2.972699   0.000000
     3  C    1.808591   1.808591   0.000000
     4  C    2.686563   2.686567   1.438782   0.000000
     5  C    3.700830   3.700846   2.636246   1.197588   0.000000
     6  H    2.347411   2.347409   1.083296   2.102984   3.199464
     7  H    4.672592   4.672614   3.698035   2.259391   1.061807
                    6          7
     6  H    0.000000
     7  H    4.218846   0.000000
 Framework group  C1[X(C3H2Cl2)]
 Deg. of freedom    15
                         Standard orientation:                         
 ---------------------------------------------------------------------
 Center     Atomic      Atomic             Coordinates (Angstroms)
 Number     Number       Type             X           Y           Z
 ---------------------------------------------------------------------
      1         17           0        0.811283    1.486374   -0.113059
      2         17           0        0.811396   -1.486325   -0.112983
      3          6           0       -0.023639    0.000009    0.490782
      4          6           0       -1.414266   -0.000050    0.121661
      5          6           0       -2.577535   -0.000085   -0.162983
      6          1           0        0.115063    0.000040    1.565162
      7          1           0       -3.607963   -0.000117   -0.419211
 ---------------------------------------------------------------------
 Rotational constants (GHZ):           3.1312791           2.9802264           1.5932602
 ======================================================================================================
                                       Pseudopotential Parameters
 ======================================================================================================
  Center     Atomic      Valence      Angular      Power
  Number     Number     Electrons     Momentum     of R      Exponent        Coefficient   SO-Coeffient
 ======================================================================================================
    1         17           17
                                      G and up 
                                                     0        0.0000010        0.00010715    0.00000000
                                                     2        0.1200000       -0.00076261    0.00000000
                                                     2        0.1600000        0.04395058    0.00000000
                                                     2        0.2000000       -0.10504698    0.00000000
                                                     2        0.2800000        0.13950130    0.00000000
                                                     2        0.4000000       -0.12623641    0.00000000
                                                     2        0.7000000       -0.42143984    0.00000000
                                      S - G
                                                     0        0.0000010       -0.00139392    0.00000000
                                                     2        0.1200000       -0.01887585    0.00000000
                                                     2        0.4000000        0.46511854    0.00000000
                                      P - G
                                                     0        0.0000010        0.03235088    0.00000000
                                                     2        0.1200000        0.42220750    0.00000000
                                                     2        0.1600000       -1.02263661    0.00000000
                                                     2        0.2600000        0.81322107    0.00000000
                                      D - G
                                                     0        0.0000010       -0.08073759    0.00000000
                                                     2        0.1200000       -0.02872770    0.00000000
                                                     2        0.2000000        0.11554000    0.00000000
                                      F - G
                                                     0        0.0000010        0.04269408    0.00000000
                                                     2        0.1200000       -0.09796467    0.00000000
                                                     2        0.2000000        0.26850099    0.00000000
    2         17           17
                                      G and up 
                                                     0        0.0000010        0.00010715    0.00000000
                                                     2        0.1200000       -0.00076261    0.00000000
                                                     2        0.1600000        0.04395058    0.00000000
                                                     2        0.2000000       -0.10504698    0.00000000
                                                     2        0.2800000        0.13950130    0.00000000
                                                     2        0.4000000       -0.12623641    0.00000000
                                                     2        0.7000000       -0.42143984    0.00000000
                                      S - G
                                                     0        0.0000010       -0.00139392    0.00000000
                                                     2        0.1200000       -0.01887585    0.00000000
                                                     2        0.4000000        0.46511854    0.00000000
                                      P - G
                                                     0        0.0000010        0.03235088    0.00000000
                                                     2        0.1200000        0.42220750    0.00000000
                                                     2        0.1600000       -1.02263661    0.00000000
                                                     2        0.2600000        0.81322107    0.00000000
                                      D - G
                                                     0        0.0000010       -0.08073759    0.00000000
                                                     2        0.1200000       -0.02872770    0.00000000
                                                     2        0.2000000        0.11554000    0.00000000
                                      F - G
                                                     0        0.0000010        0.04269408    0.00000000
                                                     2        0.1200000       -0.09796467    0.00000000
                                                     2        0.2000000        0.26850099    0.00000000
    3          6            6
                                      G and up 
                                                     0        0.0000010       -0.00007288    0.00000000
                                                     2        0.1200000        0.10466671    0.00000000
                                                     2        0.1400000       -0.65716157    0.00000000
                                                     2        0.1600000        1.18890794    0.00000000
                                                     2        0.2000000       -1.25772850    0.00000000
                                                     2        0.2600000        1.01188378    0.00000000
                                                     2        0.4000000       -1.09380874    0.00000000
                                                     2        0.5000000        0.96944888    0.00000000
                                                     2        1.0000000       -0.79256938    0.00000000
                                                     2        3.0000000        1.06443276    0.00000000
                                      S - G
                                                     0        0.0000010       -0.00635295    0.00000000
                                                     2        0.1200000        0.16918955    0.00000000
                                                     2        0.1600000       -0.38862576    0.00000000
                                                     2        0.2800000        0.25638263    0.00000000
                                                     2        0.5000000        0.29628419    0.00000000
                                                     2        0.9000000       -0.28791512    0.00000000
                                      P - G
                                                     0        0.0000010       -0.04756931    0.00000000
                                                     2        0.1200000        0.28430375    0.00000000
                                                     2        0.1600000       -0.69640032    0.00000000
                                                     2        0.2600000        1.13005668    0.00000000
                                                     2        0.4000000       -1.31433324    0.00000000
                                                     2        0.7000000        0.91526469    0.00000000
                                      D - G
                                                     0        0.0000010       -0.11496411    0.00000000
                                                     2        0.1200000        0.16620776    0.00000000
                                                     2        0.1800000       -0.30959819    0.00000000
                                                     2        0.3000000        0.16621458    0.00000000
                                                     2        0.6000000        0.27350556    0.00000000
                                      F - G
                                                     0        0.0000010        0.12037550    0.00000000
                                                     2        0.1200000       -0.48737077    0.00000000
                                                     2        0.1400000        0.58315350    0.00000000
                                                     2        0.3000000        0.00005188    0.00000000
                                                     2        0.5000000       -1.16063549    0.00000000
                                                     2        0.8000000        2.09053308    0.00000000
    4          6            6
                                      G and up 
                                                     0        0.0000010       -0.00007288    0.00000000
                                                     2        0.1200000        0.10466671    0.00000000
                                                     2        0.1400000       -0.65716157    0.00000000
                                                     2        0.1600000        1.18890794    0.00000000
                                                     2        0.2000000       -1.25772850    0.00000000
                                                     2        0.2600000        1.01188378    0.00000000
                                                     2        0.4000000       -1.09380874    0.00000000
                                                     2        0.5000000        0.96944888    0.00000000
                                                     2        1.0000000       -0.79256938    0.00000000
                                                     2        3.0000000        1.06443276    0.00000000
                                      S - G
                                                     0        0.0000010       -0.00635295    0.00000000
                                                     2        0.1200000        0.16918955    0.00000000
                                                     2        0.1600000       -0.38862576    0.00000000
                                                     2        0.2800000        0.25638263    0.00000000
                                                     2        0.5000000        0.29628419    0.00000000
                                                     2        0.9000000       -0.28791512    0.00000000
                                      P - G
                                                     0        0.0000010       -0.04756931    0.00000000
                                                     2        0.1200000        0.28430375    0.00000000
                                                     2        0.1600000       -0.69640032    0.00000000
                                                     2        0.2600000        1.13005668    0.00000000
                                                     2        0.4000000       -1.31433324    0.00000000
                                                     2        0.7000000        0.91526469    0.00000000
                                      D - G
                                                     0        0.0000010       -0.11496411    0.00000000
                                                     2        0.1200000        0.16620776    0.00000000
                                                     2        0.1800000       -0.30959819    0.00000000
                                                     2        0.3000000        0.16621458    0.00000000
                                                     2        0.6000000        0.27350556    0.00000000
                                      F - G
                                                     0        0.0000010        0.12037550    0.00000000
                                                     2        0.1200000       -0.48737077    0.00000000
                                                     2        0.1400000        0.58315350    0.00000000
                                                     2        0.3000000        0.00005188    0.00000000
                                                     2        0.5000000       -1.16063549    0.00000000
                                                     2        0.8000000        2.09053308    0.00000000
    5          6            6
                                      G and up 
                                                     0        0.0000010       -0.00007288    0.00000000
                                                     2        0.1200000        0.10466671    0.00000000
                                                     2        0.1400000       -0.65716157    0.00000000
                                                     2        0.1600000        1.18890794    0.00000000
                                                     2        0.2000000       -1.25772850    0.00000000
                                                     2        0.2600000        1.01188378    0.00000000
                                                     2        0.4000000       -1.09380874    0.00000000
                                                     2        0.5000000        0.96944888    0.00000000
                                                     2        1.0000000       -0.79256938    0.00000000
                                                     2        3.0000000        1.06443276    0.00000000
                                      S - G
                                                     0        0.0000010       -0.00635295    0.00000000
                                                     2        0.1200000        0.16918955    0.00000000
                                                     2        0.1600000       -0.38862576    0.00000000
                                                     2        0.2800000        0.25638263    0.00000000
                                                     2        0.5000000        0.29628419    0.00000000
                                                     2        0.9000000       -0.28791512    0.00000000
                                      P - G
                                                     0        0.0000010       -0.04756931    0.00000000
                                                     2        0.1200000        0.28430375    0.00000000
                                                     2        0.1600000       -0.69640032    0.00000000
                                                     2        0.2600000        1.13005668    0.00000000
                                                     2        0.4000000       -1.31433324    0.00000000
                                                     2        0.7000000        0.91526469    0.00000000
                                      D - G
                                                     0        0.0000010       -0.11496411    0.00000000
                                                     2        0.1200000        0.16620776    0.00000000
                                                     2        0.1800000       -0.30959819    0.00000000
                                                     2        0.3000000        0.16621458    0.00000000
                                                     2        0.6000000        0.27350556    0.00000000
                                      F - G
                                                     0        0.0000010        0.12037550    0.00000000
                                                     2        0.1200000       -0.48737077    0.00000000
                                                     2        0.1400000        0.58315350    0.00000000
                                                     2        0.3000000        0.00005188    0.00000000
                                                     2        0.5000000       -1.16063549    0.00000000
                                                     2        0.8000000        2.09053308    0.00000000
    6          1            1
                                      F and up 
                                                     0        0.0000010       -0.00007675    0.00000000
                                                     2        0.1200000        0.05352699    0.00000000
                                                     2        0.1400000       -0.25123645    0.00000000
                                                     2        0.1600000        0.32188106    0.00000000
                                                     2        0.2200000       -0.25206857    0.00000000
                                                     2        0.3000000        0.19290477    0.00000000
                                                     2        0.5000000       -0.10129770    0.00000000
                                                     2        0.9000000        0.00314995    0.00000000
                                                     2        1.5000000        0.18401192    0.00000000
                                      S - F
                                                     0        0.0000010        0.08065976    0.00000000
                                                     2        0.1200000       -0.09231673    0.00000000
                                                     2        0.1600000       -0.03278082    0.00000000
                                                     2        0.2800000        0.38423402    0.00000000
                                                     2        0.6000000       -1.09357590    0.00000000
                                                     2        1.1000000        1.53099489    0.00000000
                                                     2        3.0000000       -2.63300202    0.00000000
                                      P - F
                                                     0        0.0000010       -0.11638665    0.00000000
                                                     2        0.1200000        0.35468655    0.00000000
                                                     2        0.1600000       -0.59160923    0.00000000
                                                     2        0.3000000        0.49390547    0.00000000
                                                     2        0.6000000       -0.37949835    0.00000000
                                                     2        1.6000000        0.89304688    0.00000000
                                      D - F
                                                     0        0.0000010        0.05443663    0.00000000
                                                     2        0.1200000       -0.29679479    0.00000000
                                                     2        0.1400000        0.36849872    0.00000000
                                                     2        0.2400000        0.02793449    0.00000000
                                                     2        0.4000000       -0.46312857    0.00000000
                                                     2        0.7000000        0.97587598    0.00000000
                                                     2        1.5000000       -2.43431102    0.00000000
    7          1            1
                                      F and up 
                                                     0        0.0000010       -0.00007675    0.00000000
                                                     2        0.1200000        0.05352699    0.00000000
                                                     2        0.1400000       -0.25123645    0.00000000
                                                     2        0.1600000        0.32188106    0.00000000
                                                     2        0.2200000       -0.25206857    0.00000000
                                                     2        0.3000000        0.19290477    0.00000000
                                                     2        0.5000000       -0.10129770    0.00000000
                                                     2        0.9000000        0.00314995    0.00000000
                                                     2        1.5000000        0.18401192    0.00000000
                                      S - F
                                                     0        0.0000010        0.08065976    0.00000000
                                                     2        0.1200000       -0.09231673    0.00000000
                                                     2        0.1600000       -0.03278082    0.00000000
                                                     2        0.2800000        0.38423402    0.00000000
                                                     2        0.6000000       -1.09357590    0.00000000
                                                     2        1.1000000        1.53099489    0.00000000
                                                     2        3.0000000       -2.63300202    0.00000000
                                      P - F
                                                     0        0.0000010       -0.11638665    0.00000000
                                                     2        0.1200000        0.35468655    0.00000000
                                                     2        0.1600000       -0.59160923    0.00000000
                                                     2        0.3000000        0.49390547    0.00000000
                                                     2        0.6000000       -0.37949835    0.00000000
                                                     2        1.6000000        0.89304688    0.00000000
                                      D - F
                                                     0        0.0000010        0.05443663    0.00000000
                                                     2        0.1200000       -0.29679479    0.00000000
                                                     2        0.1400000        0.36849872    0.00000000
                                                     2        0.2400000        0.02793449    0.00000000
                                                     2        0.4000000       -0.46312857    0.00000000
                                                     2        0.7000000        0.97587598    0.00000000
                                                     2        1.5000000       -2.43431102    0.00000000
 ======================================================================================================
   141 basis functions,   313 primitive gaussians,   151 cartesian basis functions
    27 alpha electrons       27 beta electrons
       nuclear repulsion energy       239.1880178750 Hartrees.
 NAtoms=    7 NActive=    7 NUniq=    7 SFac= 1.00D+00 NAtFMM=   60 NAOKFM=F Big=F
   1 Symmetry operations used in ECPInt.
 ECPInt:  NShTT=    1770 NPrTT=   14750 LenC2=    1764 LenP2D=   10332.
 LDataN:  DoStor=T MaxTD1= 6 Len=  172
 Initial guess from the checkpoint file:  "3-3-dichloropropyne.chk"
 B after Tr=    -0.000000   -0.000000    0.000000
         Rot=    1.000000   -0.000000   -0.000000    0.000000 Ang=   0.00 deg.
 >>>>>>>>>> Convergence criterion not met.
 SCF Done:  E(RHF) =  -1033.97474801     A.U. after    2 cycles
            NFock=  1  Conv=0.19D-01     -V/T= 2.0022

 **********************************************************************

            Population analysis using the SCF Density.

 **********************************************************************

 Orbital symmetries:
       Occupied  (A) (A) (A) (A) (A) (A) (A) (A) (A) (A) (A) (A)
                 (A) (A) (A) (A) (A) (A) (A) (A) (A) (A) (A) (A)
                 (A) (A) (A)
       Virtual   (A) (A) (A) (A) (A) (A) (A) (A) (A) (A) (A) (A)
                 (A) (A) (A) (A) (A) (A) (A) (A) (A) (A) (A) (A)
                 (A) (A) (A) (A) (A) (A) (A) (A) (A) (A) (A) (A)
                 (A) (A) (A) (A) (A) (A) (A) (A) (A) (A) (A) (A)
                 (A) (A) (A) (A) (A) (A) (A) (A) (A) (A) (A) (A)
                 (A) (A) (A) (A) (A) (A) (A) (A) (A) (A) (A) (A)
                 (A) (A) (A) (A) (A) (A) (A) (A) (A) (A) (A) (A)
                 (A) (A) (A) (A) (A) (A) (A) (A) (A) (A) (A) (A)
                 (A) (A) (A) (A) (A) (A) (A) (A) (A) (A) (A) (A)
                 (A) (A) (A) (A) (A) (A)
 The electronic state is 1-A.
 Alpha  occ. eigenvalues -- -105.58763-105.58763 -11.41111 -11.27726 -11.27360
 Alpha  occ. eigenvalues --  -10.63541 -10.63537  -7.80486  -7.80482  -7.80068
 Alpha  occ. eigenvalues --   -7.80066  -7.80060  -7.80058  -1.18733  -1.05851
 Alpha  occ. eigenvalues --   -1.05533  -0.92750  -0.76726  -0.71954  -0.64675
 Alpha  occ. eigenvalues --   -0.61593  -0.49937  -0.49338  -0.47018  -0.46213
 Alpha  occ. eigenvalues --   -0.43241  -0.42890
 Alpha virt. eigenvalues --    0.03309   0.03965   0.07364   0.07972   0.08749
 Alpha virt. eigenvalues --    0.08909   0.09881   0.12221   0.14180   0.14309
 Alpha virt. eigenvalues --    0.14340   0.15448   0.15852   0.16168   0.17656
 Alpha virt. eigenvalues --    0.18069   0.18976   0.19131   0.21083   0.21535
 Alpha virt. eigenvalues --    0.23562   0.26893   0.27783   0.30576   0.30908
 Alpha virt. eigenvalues --    0.31623   0.32829   0.36230   0.40161   0.40516
 Alpha virt. eigenvalues --    0.41721   0.42555   0.43333   0.46639   0.47300
 Alpha virt. eigenvalues --    0.47942   0.49098   0.49200   0.51605   0.53204
 Alpha virt. eigenvalues --    0.53718   0.56559   0.57033   0.58598   0.61198
 Alpha virt. eigenvalues --    0.63134   0.67879   0.68370   0.68866   0.69566
 Alpha virt. eigenvalues --    0.76124   0.77188   0.77585   0.80429   0.81115
 Alpha virt. eigenvalues --    0.83805   0.86010   0.86825   0.88931   0.92720
 Alpha virt. eigenvalues --    0.94732   0.96185   0.99254   1.00662   1.04207
 Alpha virt. eigenvalues --    1.09644   1.10707   1.12307   1.15132   1.16831
 Alpha virt. eigenvalues --    1.21191   1.22953   1.24218   1.26835   1.31418
 Alpha virt. eigenvalues --    1.33860   1.34336   1.36706   1.37238   1.37794
 Alpha virt. eigenvalues --    1.40488   1.43564   1.46042   1.47530   1.49066
 Alpha virt. eigenvalues --    1.57527   1.57710   1.64085   1.68048   1.69471
 Alpha virt. eigenvalues --    1.71093   1.72486   1.73504   1.88129   1.89145
 Alpha virt. eigenvalues --    1.89889   1.90878   1.93415   2.04036   2.13169
 Alpha virt. eigenvalues --    2.23451   2.28429   2.28935   2.34397   2.39655
 Alpha virt. eigenvalues --    2.43754   2.62018   2.64212   2.73084   2.78297
 Alpha virt. eigenvalues --    2.83408   3.01067   3.57113   4.17718
          Condensed to atoms (all electrons):
 Mulliken charges:
               1
     1  Cl   0.076987
     2  Cl   0.076989
     3  C   -1.323463
     4  C    0.933441
     5  C    0.185025
     6  H    0.356877
     7  H   -0.305855
 Sum of Mulliken charges =  -0.00000
 Mulliken charges with hydrogens summed into heavy atoms:
               1
     1  Cl   0.076987
     2  Cl   0.076989
     3  C   -0.966587
     4  C    0.933441
     5  C   -0.120830
 Electronic spatial extent (au):  <R**2>=            689.5596
 Charge=              0.0000 electrons
 Dipole moment (field-independent basis, Debye):
    X=             -1.7947    Y=             -0.0000    Z=              0.9615  Tot=              2.0360

 Test job not archived.
 1\1\GINC-SE226\SP\RHF\Aug-CC-pVDZ\C3H2Cl2\OHZDE\05-Apr-2025\0\\#t hf a
 ug-cc-pvdz iop(5/13=1,5/36=2,99/5=2) pseudo=read geom=check guess=(rea
 d,tcheck) scf=(maxcycle=1)\\title\\0,1\Cl,0,0.811282,1.486375,-0.11305
 9\Cl,0,0.811397,-1.486324,-0.112983\C,0,-0.023639,0.000009,0.490782\C,
 0,-1.414266,-0.000051,0.121661\C,0,-2.577535,-0.000087,-0.162983\H,0,0
 .115063,0.00004,1.565162\H,0,-3.607963,-0.000119,-0.419211\\Version=ES
 64L-G16RevC.01\State=1-A\HF=-1033.974748\RMSD=1.876e-02\Dipole=-0.7061
 015,-0.000009,0.378272\Quadrupole=3.6334199,-3.1025888,-0.5308311,0.00
 02112,1.143182,0.0000898\PG=C01 [X(C3H2Cl2)]\\@


 IF YOU'RE NOT PART OF THE SOLUTION,
 THEN YOU'RE PART OF THE PRECIPITATE.
 Job cpu time:       0 days  0 hours  0 minutes 21.1 seconds.
 Elapsed time:       0 days  0 hours  0 minutes  2.2 seconds.
 File lengths (MBytes):  RWF=      6 Int=      0 D2E=      0 Chk=      4 Scr=      1
 Normal termination of Gaussian 16 at Sat Apr  5 22:43:15 2025.
