 Entering Gaussian System, Link 0=g16
 Input=5H-1-2-5-oxathiazole.gjf
 Output=5H-1-2-5-oxathiazole.log
 Initial command:
 /arc/software/Gaussian/g16.c01/l1.exe "/tmp/slurm/4815828/Gau-1366532.inp" -scrdir="/tmp/slurm/4815828/"
 Entering Link 1 = /arc/software/Gaussian/g16.c01/l1.exe PID=   1366533.
  
 Copyright (c) 1988-2019, Gaussian, Inc.  All Rights Reserved.
  
 This is part of the Gaussian(R) 16 program.  It is based on
 the Gaussian(R) 09 system (copyright 2009, Gaussian, Inc.),
 the Gaussian(R) 03 system (copyright 2003, Gaussian, Inc.),
 the Gaussian(R) 98 system (copyright 1998, Gaussian, Inc.),
 the Gaussian(R) 94 system (copyright 1995, Gaussian, Inc.),
 the Gaussian 92(TM) system (copyright 1992, Gaussian, Inc.),
 the Gaussian 90(TM) system (copyright 1990, Gaussian, Inc.),
 the Gaussian 88(TM) system (copyright 1988, Gaussian, Inc.),
 the Gaussian 86(TM) system (copyright 1986, Carnegie Mellon
 University), and the Gaussian 82(TM) system (copyright 1983,
 Carnegie Mellon University). Gaussian is a federally registered
 trademark of Gaussian, Inc.
  
 This software contains proprietary and confidential information,
 including trade secrets, belonging to Gaussian, Inc.
  
 This software is provided under written license and may be
 used, copied, transmitted, or stored only in accord with that
 written license.
  
 The following legend is applicable only to US Government
 contracts under FAR:
  
                    RESTRICTED RIGHTS LEGEND
  
 Use, reproduction and disclosure by the US Government is
 subject to restrictions as set forth in subparagraphs (a)
 and (c) of the Commercial Computer Software - Restricted
 Rights clause in FAR 52.227-19.
  
 Gaussian, Inc.
 340 Quinnipiac St., Bldg. 40, Wallingford CT 06492
  
  
 ---------------------------------------------------------------
 Warning -- This program may not be used in any manner that
 competes with the business of Gaussian, Inc. or will provide
 assistance to any competitor of Gaussian, Inc.  The licensee
 of this program is prohibited from giving any competitor of
 Gaussian, Inc. access to this program.  By using this program,
 the user acknowledges that Gaussian, Inc. is engaged in the
 business of creating and licensing software in the field of
 computational chemistry and represents and warrants to the
 licensee that it is not a competitor of Gaussian, Inc. and that
 it will not use this program in any manner prohibited above.
 ---------------------------------------------------------------
  

 Cite this work as:
 Gaussian 16, Revision C.01,
 M. J. Frisch, G. W. Trucks, H. B. Schlegel, G. E. Scuseria, 
 M. A. Robb, J. R. Cheeseman, G. Scalmani, V. Barone, 
 G. A. Petersson, H. Nakatsuji, X. Li, M. Caricato, A. V. Marenich, 
 J. Bloino, B. G. Janesko, R. Gomperts, B. Mennucci, H. P. Hratchian, 
 J. V. Ortiz, A. F. Izmaylov, J. L. Sonnenberg, D. Williams-Young, 
 F. Ding, F. Lipparini, F. Egidi, J. Goings, B. Peng, A. Petrone, 
 T. Henderson, D. Ranasinghe, V. G. Zakrzewski, J. Gao, N. Rega, 
 G. Zheng, W. Liang, M. Hada, M. Ehara, K. Toyota, R. Fukuda, 
 J. Hasegawa, M. Ishida, T. Nakajima, Y. Honda, O. Kitao, H. Nakai, 
 T. Vreven, K. Throssell, J. A. Montgomery, Jr., J. E. Peralta, 
 F. Ogliaro, M. J. Bearpark, J. J. Heyd, E. N. Brothers, K. N. Kudin, 
 V. N. Staroverov, T. A. Keith, R. Kobayashi, J. Normand, 
 K. Raghavachari, A. P. Rendell, J. C. Burant, S. S. Iyengar, 
 J. Tomasi, M. Cossi, J. M. Millam, M. Klene, C. Adamo, R. Cammi, 
 J. W. Ochterski, R. L. Martin, K. Morokuma, O. Farkas, 
 J. B. Foresman, and D. J. Fox, Gaussian, Inc., Wallingford CT, 2019.
 
 ******************************************
 Gaussian 16:  ES64L-G16RevC.01  3-Jul-2019
                 5-Apr-2025 
 ******************************************
 %nprocs=16
 Will use up to   16 processors via shared memory.
 %mem=30GB
 %chk=5H-1-2-5-oxathiazole.chk
 ----------------------------------------------------------------------
 #t hf aug-cc-pvdz symm=none int=(grid=ultrafine) guess=(read,tcheck) s
 table=(opt,rrhf)
 ----------------------------------------------------------------------
 -----
 title
 -----
 Symbolic Z-matrix:
 Charge =  0 Multiplicity = 1
 S                    -1.22086   0.002     0.09169 
 O                    -0.01873  -1.19417  -0.27141 
 N                     1.27645  -0.70129   0.08198 
 C                     0.00823   1.25259  -0.07022 
 C                     1.22559   0.72144  -0.04519 
 H                     1.43192  -0.96129   1.06134 
 H                    -0.24984   2.29534  -0.14494 
 H                     2.16345   1.25224  -0.09353 
 
                    Distance matrix (angstroms):
                    1          2          3          4          5
     1  S    0.000000
     2  O    1.734289   0.000000
     3  N    2.594466   1.430144   0.000000
     4  C    1.760921   2.455160   2.334347   0.000000
     5  C    2.553710   2.295445   1.429307   1.328422   0.000000
     6  H    2.984189   1.983651   1.025145   2.865057   2.024486
     7  H    2.501663   3.499443   3.370588   1.076814   2.159631
     8  H    3.612614   3.283064   2.152643   2.155349   1.078740
                    6          7          8
     6  H    0.000000
     7  H    3.858636   0.000000
     8  H    2.601646   2.629576   0.000000
 Symmetry turned off by external request.
 Rotational constants (GHZ):           7.7445040           5.1570071           3.2026971
   146 basis functions,   286 primitive gaussians,   156 cartesian basis functions
    23 alpha electrons       23 beta electrons
       nuclear repulsion energy       223.8714585587 Hartrees.
 NAtoms=    8 NActive=    8 NUniq=    8 SFac= 1.00D+00 NAtFMM=   60 NAOKFM=F Big=F
 ExpMin= 2.97D-02 ExpMax= 1.11D+05 ExpMxC= 1.07D+03 IAcc=3 IRadAn=         5 AccDes= 0.00D+00
 Harris functional with IExCor=  205 and IRadAn=       5 diagonalized for initial guess.
 HarFok:  IExCor=  205 AccDes= 0.00D+00 IRadAn=         5 IDoV= 1 UseB2=F ITyADJ=14
 ICtDFT=  3500011 ScaDFX=  1.000000  1.000000  1.000000  1.000000
 FoFCou: FMM=F IPFlag=           0 FMFlag=      100000 FMFlg1=           0
         NFxFlg=           0 DoJE=T BraDBF=F KetDBF=T FulRan=T
         wScrn=  0.000000 ICntrl=       500 IOpCl=  0 I1Cent=   200000004 NGrid=           0
         NMat0=    1 NMatS0=      1 NMatT0=    0 NMatD0=    1 NMtDS0=    0 NMtDT0=    0
 Symmetry not used in FoFCou.
 SCF Done:  E(RHF) =  -604.221839823     A.U. after   16 cycles
            NFock= 16  Conv=0.44D-08     -V/T= 2.0006

 **********************************************************************

            Population analysis using the SCF Density.

 **********************************************************************

 Alpha  occ. eigenvalues --  -92.02084 -20.63398 -15.64651 -11.29399 -11.28350
 Alpha  occ. eigenvalues --   -9.01702  -6.69883  -6.69729  -6.69442  -1.43356
 Alpha  occ. eigenvalues --   -1.15697  -1.08435  -0.89298  -0.80456  -0.72808
 Alpha  occ. eigenvalues --   -0.68247  -0.61159  -0.57740  -0.53609  -0.51728
 Alpha  occ. eigenvalues --   -0.46524  -0.42707  -0.31622
 Alpha virt. eigenvalues --    0.03192   0.04252   0.05132   0.07709   0.08270
 Alpha virt. eigenvalues --    0.10257   0.10940   0.12503   0.12940   0.13990
 Alpha virt. eigenvalues --    0.14606   0.16235   0.16470   0.16863   0.17710
 Alpha virt. eigenvalues --    0.19648   0.20016   0.21941   0.23598   0.25568
 Alpha virt. eigenvalues --    0.26923   0.28329   0.30165   0.31247   0.32854
 Alpha virt. eigenvalues --    0.33890   0.36405   0.36962   0.38491   0.40584
 Alpha virt. eigenvalues --    0.43113   0.44282   0.44507   0.47004   0.47783
 Alpha virt. eigenvalues --    0.49322   0.49967   0.52055   0.53061   0.53804
 Alpha virt. eigenvalues --    0.54933   0.56610   0.60062   0.62844   0.63918
 Alpha virt. eigenvalues --    0.65553   0.66670   0.68329   0.70635   0.73070
 Alpha virt. eigenvalues --    0.73994   0.76097   0.78271   0.80434   0.83637
 Alpha virt. eigenvalues --    0.85931   0.89996   0.90750   0.91546   0.95190
 Alpha virt. eigenvalues --    0.96475   0.97653   1.00422   1.05421   1.08065
 Alpha virt. eigenvalues --    1.09604   1.12166   1.13124   1.17560   1.18752
 Alpha virt. eigenvalues --    1.21022   1.23091   1.25237   1.27919   1.30112
 Alpha virt. eigenvalues --    1.33880   1.39327   1.41740   1.46965   1.50876
 Alpha virt. eigenvalues --    1.52581   1.56063   1.57438   1.60271   1.63273
 Alpha virt. eigenvalues --    1.64147   1.68704   1.70170   1.74876   1.78269
 Alpha virt. eigenvalues --    1.81854   1.88680   1.91013   1.97280   2.01652
 Alpha virt. eigenvalues --    2.07179   2.10454   2.17608   2.22868   2.29984
 Alpha virt. eigenvalues --    2.31808   2.39683   2.41534   2.44739   2.50715
 Alpha virt. eigenvalues --    2.55994   2.62087   2.68617   2.72421   2.74913
 Alpha virt. eigenvalues --    2.79780   2.84834   2.94995   2.98022   3.08615
 Alpha virt. eigenvalues --    3.42080   3.57855   3.67041   3.73980   3.78252
 Alpha virt. eigenvalues --    3.81178   3.90958   4.15689
          Condensed to atoms (all electrons):
 Mulliken charges:
               1
     1  S    0.644177
     2  O   -0.967304
     3  N   -0.104570
     4  C    0.128605
     5  C    0.685150
     6  H    0.136099
     7  H   -0.352620
     8  H   -0.169537
 Sum of Mulliken charges =  -0.00000
 Mulliken charges with hydrogens summed into heavy atoms:
               1
     1  S    0.644177
     2  O   -0.967304
     3  N    0.031529
     4  C   -0.224015
     5  C    0.515613
 Electronic spatial extent (au):  <R**2>=            394.4164
 Charge=             -0.0000 electrons
 Dipole moment (field-independent basis, Debye):
    X=              0.9488    Y=              2.5181    Z=              1.4915  Tot=              3.0766
 NROrb=    146 NOA=    23 NOB=    23 NVA=   123 NVB=   123

 **** Warning!!: The largest alpha MO coefficient is  0.36588831D+02

    12 initial guesses have been made.
 Iteration     1 Dimension    12 NMult     0 NNew     12
 Iteration     2 Dimension    24 NMult    12 NNew     12
 Iteration     3 Dimension    27 NMult    24 NNew      3
 Iteration     4 Dimension    30 NMult    27 NNew      3
 Iteration     5 Dimension    33 NMult    30 NNew      3
 Iteration     6 Dimension    36 NMult    33 NNew      3
 ***********************************************************************
 Stability analysis using <AA,BB:AA,BB> singles matrix:
 ***********************************************************************
 Ground to excited state transition densities written to RWF  633

 Eigenvectors of the stability matrix:
 
 Excited state symmetry could not be determined.
 Eigenvector   1:      Singlet-?Sym  Eigenvalue= 0.1403228  <S**2>=0.000
      22 -> 27         0.12178
      23 -> 25         0.17002
      23 -> 27         0.47860
      23 -> 28        -0.24318
      23 -> 37        -0.22131
      23 -> 38         0.10402
      23 -> 39        -0.11065
 The wavefunction is stable under the perturbations considered.
 The wavefunction is already stable.

 **********************************************************************

            Population analysis using the SCF Density.

 **********************************************************************

 Alpha  occ. eigenvalues --  -92.02084 -20.63398 -15.64651 -11.29399 -11.28350
 Alpha  occ. eigenvalues --   -9.01702  -6.69883  -6.69729  -6.69442  -1.43356
 Alpha  occ. eigenvalues --   -1.15697  -1.08435  -0.89298  -0.80456  -0.72808
 Alpha  occ. eigenvalues --   -0.68247  -0.61159  -0.57740  -0.53609  -0.51728
 Alpha  occ. eigenvalues --   -0.46524  -0.42707  -0.31622
 Alpha virt. eigenvalues --    0.03192   0.04252   0.05132   0.07709   0.08270
 Alpha virt. eigenvalues --    0.10257   0.10940   0.12503   0.12940   0.13990
 Alpha virt. eigenvalues --    0.14606   0.16235   0.16470   0.16863   0.17710
 Alpha virt. eigenvalues --    0.19648   0.20016   0.21941   0.23598   0.25568
 Alpha virt. eigenvalues --    0.26923   0.28329   0.30165   0.31247   0.32854
 Alpha virt. eigenvalues --    0.33890   0.36405   0.36962   0.38491   0.40584
 Alpha virt. eigenvalues --    0.43113   0.44282   0.44507   0.47004   0.47783
 Alpha virt. eigenvalues --    0.49322   0.49967   0.52055   0.53061   0.53804
 Alpha virt. eigenvalues --    0.54933   0.56610   0.60062   0.62844   0.63918
 Alpha virt. eigenvalues --    0.65553   0.66670   0.68329   0.70635   0.73070
 Alpha virt. eigenvalues --    0.73994   0.76097   0.78271   0.80434   0.83637
 Alpha virt. eigenvalues --    0.85931   0.89996   0.90750   0.91546   0.95190
 Alpha virt. eigenvalues --    0.96475   0.97653   1.00422   1.05421   1.08065
 Alpha virt. eigenvalues --    1.09604   1.12166   1.13124   1.17560   1.18752
 Alpha virt. eigenvalues --    1.21022   1.23091   1.25237   1.27919   1.30112
 Alpha virt. eigenvalues --    1.33880   1.39327   1.41740   1.46965   1.50876
 Alpha virt. eigenvalues --    1.52581   1.56063   1.57438   1.60271   1.63273
 Alpha virt. eigenvalues --    1.64147   1.68704   1.70170   1.74876   1.78269
 Alpha virt. eigenvalues --    1.81854   1.88680   1.91013   1.97280   2.01652
 Alpha virt. eigenvalues --    2.07179   2.10454   2.17608   2.22868   2.29984
 Alpha virt. eigenvalues --    2.31808   2.39683   2.41534   2.44739   2.50715
 Alpha virt. eigenvalues --    2.55994   2.62087   2.68617   2.72421   2.74913
 Alpha virt. eigenvalues --    2.79780   2.84834   2.94995   2.98022   3.08615
 Alpha virt. eigenvalues --    3.42080   3.57855   3.67041   3.73980   3.78252
 Alpha virt. eigenvalues --    3.81178   3.90958   4.15689
          Condensed to atoms (all electrons):
 Mulliken charges:
               1
     1  S    0.644177
     2  O   -0.967304
     3  N   -0.104570
     4  C    0.128605
     5  C    0.685150
     6  H    0.136099
     7  H   -0.352620
     8  H   -0.169537
 Sum of Mulliken charges =  -0.00000
 Mulliken charges with hydrogens summed into heavy atoms:
               1
     1  S    0.644177
     2  O   -0.967304
     3  N    0.031529
     4  C   -0.224015
     5  C    0.515613
 Electronic spatial extent (au):  <R**2>=            394.4164
 Charge=             -0.0000 electrons
 Dipole moment (field-independent basis, Debye):
    X=              0.9488    Y=              2.5181    Z=              1.4915  Tot=              3.0766
 Unable to Open any file for archive entry.
 1\1\GINC-SE041\Stability\RHF\Aug-CC-pVDZ\C2H3N1O1S1\OHZDE\05-Apr-2025\
 0\\#t hf aug-cc-pvdz symm=none int=(grid=ultrafine) guess=(read,tcheck
 ) stable=(opt,rrhf)\\title\\0,1\S,0,-1.220858,0.001998,0.091689\O,0,-0
 .018734,-1.194169,-0.271412\N,0,1.276449,-0.701292,0.081978\C,0,0.0082
 31,1.252585,-0.070218\C,0,1.225589,0.721438,-0.045189\H,0,1.431922,-0.
 961286,1.061342\H,0,-0.249835,2.295344,-0.144943\H,0,2.163454,1.252241
 ,-0.093527\\Version=ES64L-G16RevC.01\HF=-604.2218398\RMSD=4.389e-09\Di
 pole=0.3732957,0.9906906,0.5867891\Quadrupole=0.9913471,0.8568389,-1.8
 481861,0.4988585,1.6071002,-1.677161\PG=Unknown\\@
 The archive entry for this job was punched.


 GOD GAVE US TWO ENDS... ONE TO SIT ON...    
 AND THE OTHER TO THINK WITH...              
 YOUR SUCCESS DEPENDS UPON WHICH END YOU     
 USE THE MOST...                             
                                             
 IT'S A CASE OF HEADS YOU WIN TAILS YOU LOSE.
          SOURCE UNKNOWN(IT'S JUST AS WELL.) 
 Job cpu time:       0 days  0 hours  0 minutes 48.4 seconds.
 Elapsed time:       0 days  0 hours  0 minutes  6.4 seconds.
 File lengths (MBytes):  RWF=    140 Int=      0 D2E=      0 Chk=      4 Scr=      1
 Normal termination of Gaussian 16 at Sat Apr  5 22:50:32 2025.
 Initial command:
 /arc/software/Gaussian/g16.c01/l1.exe "/tmp/slurm/4815828/Gau-1366532.inp" -scrdir="/tmp/slurm/4815828/"
 Entering Link 1 = /arc/software/Gaussian/g16.c01/l1.exe PID=   1366744.
  
 Copyright (c) 1988-2019, Gaussian, Inc.  All Rights Reserved.
  
 This is part of the Gaussian(R) 16 program.  It is based on
 the Gaussian(R) 09 system (copyright 2009, Gaussian, Inc.),
 the Gaussian(R) 03 system (copyright 2003, Gaussian, Inc.),
 the Gaussian(R) 98 system (copyright 1998, Gaussian, Inc.),
 the Gaussian(R) 94 system (copyright 1995, Gaussian, Inc.),
 the Gaussian 92(TM) system (copyright 1992, Gaussian, Inc.),
 the Gaussian 90(TM) system (copyright 1990, Gaussian, Inc.),
 the Gaussian 88(TM) system (copyright 1988, Gaussian, Inc.),
 the Gaussian 86(TM) system (copyright 1986, Carnegie Mellon
 University), and the Gaussian 82(TM) system (copyright 1983,
 Carnegie Mellon University). Gaussian is a federally registered
 trademark of Gaussian, Inc.
  
 This software contains proprietary and confidential information,
 including trade secrets, belonging to Gaussian, Inc.
  
 This software is provided under written license and may be
 used, copied, transmitted, or stored only in accord with that
 written license.
  
 The following legend is applicable only to US Government
 contracts under FAR:
  
                    RESTRICTED RIGHTS LEGEND
  
 Use, reproduction and disclosure by the US Government is
 subject to restrictions as set forth in subparagraphs (a)
 and (c) of the Commercial Computer Software - Restricted
 Rights clause in FAR 52.227-19.
  
 Gaussian, Inc.
 340 Quinnipiac St., Bldg. 40, Wallingford CT 06492
  
  
 ---------------------------------------------------------------
 Warning -- This program may not be used in any manner that
 competes with the business of Gaussian, Inc. or will provide
 assistance to any competitor of Gaussian, Inc.  The licensee
 of this program is prohibited from giving any competitor of
 Gaussian, Inc. access to this program.  By using this program,
 the user acknowledges that Gaussian, Inc. is engaged in the
 business of creating and licensing software in the field of
 computational chemistry and represents and warrants to the
 licensee that it is not a competitor of Gaussian, Inc. and that
 it will not use this program in any manner prohibited above.
 ---------------------------------------------------------------
  

 Cite this work as:
 Gaussian 16, Revision C.01,
 M. J. Frisch, G. W. Trucks, H. B. Schlegel, G. E. Scuseria, 
 M. A. Robb, J. R. Cheeseman, G. Scalmani, V. Barone, 
 G. A. Petersson, H. Nakatsuji, X. Li, M. Caricato, A. V. Marenich, 
 J. Bloino, B. G. Janesko, R. Gomperts, B. Mennucci, H. P. Hratchian, 
 J. V. Ortiz, A. F. Izmaylov, J. L. Sonnenberg, D. Williams-Young, 
 F. Ding, F. Lipparini, F. Egidi, J. Goings, B. Peng, A. Petrone, 
 T. Henderson, D. Ranasinghe, V. G. Zakrzewski, J. Gao, N. Rega, 
 G. Zheng, W. Liang, M. Hada, M. Ehara, K. Toyota, R. Fukuda, 
 J. Hasegawa, M. Ishida, T. Nakajima, Y. Honda, O. Kitao, H. Nakai, 
 T. Vreven, K. Throssell, J. A. Montgomery, Jr., J. E. Peralta, 
 F. Ogliaro, M. J. Bearpark, J. J. Heyd, E. N. Brothers, K. N. Kudin, 
 V. N. Staroverov, T. A. Keith, R. Kobayashi, J. Normand, 
 K. Raghavachari, A. P. Rendell, J. C. Burant, S. S. Iyengar, 
 J. Tomasi, M. Cossi, J. M. Millam, M. Klene, C. Adamo, R. Cammi, 
 J. W. Ochterski, R. L. Martin, K. Morokuma, O. Farkas, 
 J. B. Foresman, and D. J. Fox, Gaussian, Inc., Wallingford CT, 2019.
 
 ******************************************
 Gaussian 16:  ES64L-G16RevC.01  3-Jul-2019
                 5-Apr-2025 
 ******************************************
 %nprocs=16
 Will use up to   16 processors via shared memory.
 %mem=30GB
 %chk=5H-1-2-5-oxathiazole.chk
 ----------------------------------------------------------------------
 #t hf aug-cc-pvdz iop(5/13=1,5/36=2,99/5=2) pseudo=read geom=check gue
 ss=(read,tcheck) scf=(maxcycle=1)
 ----------------------------------------------------------------------
 -----
 title
 -----
 Structure from the checkpoint file:  "5H-1-2-5-oxathiazole.chk"
 Charge =  0 Multiplicity = 1
 Z-Matrix found in chk file.
 S,0,-1.220858,0.001998,0.091689
 O,0,-0.018734,-1.194169,-0.271412
 N,0,1.276449,-0.701292,0.081978
 C,0,0.008231,1.252585,-0.070218
 C,0,1.225589,0.721438,-0.045189
 H,0,1.431922,-0.961286,1.061342
 H,0,-0.249835,2.295344,-0.144943
 H,0,2.163454,1.252241,-0.093527
 Recover connectivity data from disk.
                    Distance matrix (angstroms):
                    1          2          3          4          5
     1  S    0.000000
     2  O    1.734289   0.000000
     3  N    2.594466   1.430144   0.000000
     4  C    1.760921   2.455160   2.334347   0.000000
     5  C    2.553710   2.295445   1.429307   1.328422   0.000000
     6  H    2.984189   1.983651   1.025145   2.865057   2.024486
     7  H    2.501663   3.499443   3.370588   1.076814   2.159631
     8  H    3.612614   3.283064   2.152643   2.155349   1.078740
                    6          7          8
     6  H    0.000000
     7  H    3.858636   0.000000
     8  H    2.601646   2.629576   0.000000
 Framework group  C1[X(C2H3NOS)]
 Deg. of freedom    18
                         Standard orientation:                         
 ---------------------------------------------------------------------
 Center     Atomic      Atomic             Coordinates (Angstroms)
 Number     Number       Type             X           Y           Z
 ---------------------------------------------------------------------
      1         16           0       -1.220858    0.001998    0.091689
      2          8           0       -0.018734   -1.194169   -0.271412
      3          7           0        1.276449   -0.701292    0.081978
      4          6           0        0.008231    1.252585   -0.070218
      5          6           0        1.225589    0.721438   -0.045189
      6          1           0        1.431922   -0.961286    1.061342
      7          1           0       -0.249835    2.295344   -0.144943
      8          1           0        2.163454    1.252241   -0.093527
 ---------------------------------------------------------------------
 Rotational constants (GHZ):           7.7445040           5.1570071           3.2026971
 ======================================================================================================
                                       Pseudopotential Parameters
 ======================================================================================================
  Center     Atomic      Valence      Angular      Power
  Number     Number     Electrons     Momentum     of R      Exponent        Coefficient   SO-Coeffient
 ======================================================================================================
    1         16           16
                                      G and up 
                                                     0        0.0000010       -0.00031824    0.00000000
                                                     2        0.1200000       -0.02709645    0.00000000
                                                     2        0.1400000        0.07756871    0.00000000
                                                     2        0.1800000       -0.09276244    0.00000000
                                                     2        0.2400000        0.04926396    0.00000000
                                                     2        0.4000000        0.19256092    0.00000000
                                                     2        0.6000000       -0.68044142    0.00000000
                                                     2        1.2000000        2.88179630    0.00000000
                                      S - G
                                                     0        0.0000010       -0.00682297    0.00000000
                                                     2        0.1200000        0.09894847    0.00000000
                                                     2        0.2400000       -0.09649386    0.00000000
                                                     2        0.5000000       -0.86533519    0.00000000
                                      P - G
                                                     0        0.0000010       -0.03724640    0.00000000
                                                     2        0.1200000        0.13565737    0.00000000
                                                     2        0.1600000       -0.58061535    0.00000000
                                                     2        0.2800000        1.15300814    0.00000000
                                                     2        0.6000000       -1.81693648    0.00000000
                                      D - G
                                                     0        0.0000010       -0.04698793    0.00000000
                                                     2        0.1200000        0.09075241    0.00000000
                                                     2        0.2000000       -0.23702631    0.00000000
                                                     2        0.4000000        0.07730186    0.00000000
                                      F - G
                                                     0        0.0000010        0.08145595    0.00000000
                                                     2        0.1200000       -0.08234030    0.00000000
                                                     2        0.2200000        0.18834854    0.00000000
                                                     2        0.4000000       -0.20344406    0.00000000
    2          8            8
                                      G and up 
                                                     0        0.0000010        0.00049668    0.00000000
                                                     2        0.1200000       -0.01803391    0.00000000
                                                     2        0.1400000        0.04014195    0.00000000
                                                     2        0.2000000       -0.02692147    0.00000000
                                                     2        0.2800000       -0.04241843    0.00000000
                                                     2        0.4000000        0.15412145    0.00000000
                                                     2        0.7000000       -0.40587006    0.00000000
                                                     2        1.1000000        1.75666647    0.00000000
                                      S - G
                                                     0        0.0000010       -0.01088195    0.00000000
                                                     2        0.1200000        0.09867335    0.00000000
                                                     2        0.2400000       -0.08484177    0.00000000
                                                     2        0.6000000       -1.39011554    0.00000000
                                                     2        2.5000000        1.36225910    0.00000000
                                      P - G
                                                     0        0.0000010        0.05874028    0.00000000
                                                     2        0.1200000       -0.11700340    0.00000000
                                                     2        0.1600000        0.08847775    0.00000000
                                                     2        0.3000000        0.04709907    0.00000000
                                                     2        1.2000000       -1.80388338    0.00000000
                                      D - G
                                                     0        0.0000010       -0.00541262    0.00000000
                                                     2        0.1200000       -0.26547906    0.00000000
                                                     2        0.1600000        1.04289661    0.00000000
                                                     2        0.2400000       -1.92800913    0.00000000
                                                     2        0.4000000        2.26691633    0.00000000
                                                     2        0.7000000       -1.97391482    0.00000000
                                      F - G
                                                     0        0.0000010       -0.02604870    0.00000000
                                                     2        0.1200000        0.37362552    0.00000000
                                                     2        0.1600000       -1.43526367    0.00000000
                                                     2        0.2200000        1.76778079    0.00000000
                                                     2        0.5000000       -1.90846303    0.00000000
    3          7            7
                                      G and up 
                                                     0        0.0000010       -0.00039818    0.00000000
                                                     2        0.1200000       -0.37616123    0.00000000
                                                     2        0.1400000        2.13837358    0.00000000
                                                     2        0.1600000       -3.36562035    0.00000000
                                                     2        0.2000000        2.53463289    0.00000000
                                                     2        0.3000000       -1.98118833    0.00000000
                                                     2        0.5000000        4.06642919    0.00000000
                                                     2        0.7000000       -6.15327959    0.00000000
                                                     2        1.2000000       10.22492851    0.00000000
                                                     2        2.0000000      -14.94707511    0.00000000
                                      S - G
                                                     0        0.0000010        0.02721443    0.00000000
                                                     2        0.1200000       -0.60186009    0.00000000
                                                     2        0.1600000        1.10088134    0.00000000
                                                     2        0.2600000       -0.59857981    0.00000000
                                                     2        0.6000000        0.21288222    0.00000000
                                                     2        3.0000000        5.09059205    0.00000000
                                      P - G
                                                     0        0.0000010        0.40558062    0.00000000
                                                     2        0.1200000        0.81809854    0.00000000
                                                     2        0.1600000       -2.44952728    0.00000000
                                                     2        0.2800000        4.16638749    0.00000000
                                                     2        0.5000000       -6.02944147    0.00000000
                                                     2        1.1000000        5.78262914    0.00000000
                                      D - G
                                                     0        0.0000010       -0.62770267    0.00000000
                                                     2        0.1600000        0.91438653    0.00000000
                                                     2        0.2600000       -2.00568466    0.00000000
                                                     2        0.5000000        3.30798839    0.00000000
                                                     2        1.1000000       -3.91526108    0.00000000
                                      F - G
                                                     0        0.0000010        0.29726344    0.00000000
                                                     2        0.1200000       -0.41591527    0.00000000
                                                     2        0.1600000        0.51444439    0.00000000
                                                     2        0.4000000       -0.69401726    0.00000000
                                                     2        0.7000000        0.51478123    0.00000000
    4          6            6
                                      G and up 
                                                     0        0.0000010       -0.00007288    0.00000000
                                                     2        0.1200000        0.10466671    0.00000000
                                                     2        0.1400000       -0.65716157    0.00000000
                                                     2        0.1600000        1.18890794    0.00000000
                                                     2        0.2000000       -1.25772850    0.00000000
                                                     2        0.2600000        1.01188378    0.00000000
                                                     2        0.4000000       -1.09380874    0.00000000
                                                     2        0.5000000        0.96944888    0.00000000
                                                     2        1.0000000       -0.79256938    0.00000000
                                                     2        3.0000000        1.06443276    0.00000000
                                      S - G
                                                     0        0.0000010       -0.00635295    0.00000000
                                                     2        0.1200000        0.16918955    0.00000000
                                                     2        0.1600000       -0.38862576    0.00000000
                                                     2        0.2800000        0.25638263    0.00000000
                                                     2        0.5000000        0.29628419    0.00000000
                                                     2        0.9000000       -0.28791512    0.00000000
                                      P - G
                                                     0        0.0000010       -0.04756931    0.00000000
                                                     2        0.1200000        0.28430375    0.00000000
                                                     2        0.1600000       -0.69640032    0.00000000
                                                     2        0.2600000        1.13005668    0.00000000
                                                     2        0.4000000       -1.31433324    0.00000000
                                                     2        0.7000000        0.91526469    0.00000000
                                      D - G
                                                     0        0.0000010       -0.11496411    0.00000000
                                                     2        0.1200000        0.16620776    0.00000000
                                                     2        0.1800000       -0.30959819    0.00000000
                                                     2        0.3000000        0.16621458    0.00000000
                                                     2        0.6000000        0.27350556    0.00000000
                                      F - G
                                                     0        0.0000010        0.12037550    0.00000000
                                                     2        0.1200000       -0.48737077    0.00000000
                                                     2        0.1400000        0.58315350    0.00000000
                                                     2        0.3000000        0.00005188    0.00000000
                                                     2        0.5000000       -1.16063549    0.00000000
                                                     2        0.8000000        2.09053308    0.00000000
    5          6            6
                                      G and up 
                                                     0        0.0000010       -0.00007288    0.00000000
                                                     2        0.1200000        0.10466671    0.00000000
                                                     2        0.1400000       -0.65716157    0.00000000
                                                     2        0.1600000        1.18890794    0.00000000
                                                     2        0.2000000       -1.25772850    0.00000000
                                                     2        0.2600000        1.01188378    0.00000000
                                                     2        0.4000000       -1.09380874    0.00000000
                                                     2        0.5000000        0.96944888    0.00000000
                                                     2        1.0000000       -0.79256938    0.00000000
                                                     2        3.0000000        1.06443276    0.00000000
                                      S - G
                                                     0        0.0000010       -0.00635295    0.00000000
                                                     2        0.1200000        0.16918955    0.00000000
                                                     2        0.1600000       -0.38862576    0.00000000
                                                     2        0.2800000        0.25638263    0.00000000
                                                     2        0.5000000        0.29628419    0.00000000
                                                     2        0.9000000       -0.28791512    0.00000000
                                      P - G
                                                     0        0.0000010       -0.04756931    0.00000000
                                                     2        0.1200000        0.28430375    0.00000000
                                                     2        0.1600000       -0.69640032    0.00000000
                                                     2        0.2600000        1.13005668    0.00000000
                                                     2        0.4000000       -1.31433324    0.00000000
                                                     2        0.7000000        0.91526469    0.00000000
                                      D - G
                                                     0        0.0000010       -0.11496411    0.00000000
                                                     2        0.1200000        0.16620776    0.00000000
                                                     2        0.1800000       -0.30959819    0.00000000
                                                     2        0.3000000        0.16621458    0.00000000
                                                     2        0.6000000        0.27350556    0.00000000
                                      F - G
                                                     0        0.0000010        0.12037550    0.00000000
                                                     2        0.1200000       -0.48737077    0.00000000
                                                     2        0.1400000        0.58315350    0.00000000
                                                     2        0.3000000        0.00005188    0.00000000
                                                     2        0.5000000       -1.16063549    0.00000000
                                                     2        0.8000000        2.09053308    0.00000000
    6          1            1
                                      F and up 
                                                     0        0.0000010       -0.00007675    0.00000000
                                                     2        0.1200000        0.05352699    0.00000000
                                                     2        0.1400000       -0.25123645    0.00000000
                                                     2        0.1600000        0.32188106    0.00000000
                                                     2        0.2200000       -0.25206857    0.00000000
                                                     2        0.3000000        0.19290477    0.00000000
                                                     2        0.5000000       -0.10129770    0.00000000
                                                     2        0.9000000        0.00314995    0.00000000
                                                     2        1.5000000        0.18401192    0.00000000
                                      S - F
                                                     0        0.0000010        0.08065976    0.00000000
                                                     2        0.1200000       -0.09231673    0.00000000
                                                     2        0.1600000       -0.03278082    0.00000000
                                                     2        0.2800000        0.38423402    0.00000000
                                                     2        0.6000000       -1.09357590    0.00000000
                                                     2        1.1000000        1.53099489    0.00000000
                                                     2        3.0000000       -2.63300202    0.00000000
                                      P - F
                                                     0        0.0000010       -0.11638665    0.00000000
                                                     2        0.1200000        0.35468655    0.00000000
                                                     2        0.1600000       -0.59160923    0.00000000
                                                     2        0.3000000        0.49390547    0.00000000
                                                     2        0.6000000       -0.37949835    0.00000000
                                                     2        1.6000000        0.89304688    0.00000000
                                      D - F
                                                     0        0.0000010        0.05443663    0.00000000
                                                     2        0.1200000       -0.29679479    0.00000000
                                                     2        0.1400000        0.36849872    0.00000000
                                                     2        0.2400000        0.02793449    0.00000000
                                                     2        0.4000000       -0.46312857    0.00000000
                                                     2        0.7000000        0.97587598    0.00000000
                                                     2        1.5000000       -2.43431102    0.00000000
    7          1            1
                                      F and up 
                                                     0        0.0000010       -0.00007675    0.00000000
                                                     2        0.1200000        0.05352699    0.00000000
                                                     2        0.1400000       -0.25123645    0.00000000
                                                     2        0.1600000        0.32188106    0.00000000
                                                     2        0.2200000       -0.25206857    0.00000000
                                                     2        0.3000000        0.19290477    0.00000000
                                                     2        0.5000000       -0.10129770    0.00000000
                                                     2        0.9000000        0.00314995    0.00000000
                                                     2        1.5000000        0.18401192    0.00000000
                                      S - F
                                                     0        0.0000010        0.08065976    0.00000000
                                                     2        0.1200000       -0.09231673    0.00000000
                                                     2        0.1600000       -0.03278082    0.00000000
                                                     2        0.2800000        0.38423402    0.00000000
                                                     2        0.6000000       -1.09357590    0.00000000
                                                     2        1.1000000        1.53099489    0.00000000
                                                     2        3.0000000       -2.63300202    0.00000000
                                      P - F
                                                     0        0.0000010       -0.11638665    0.00000000
                                                     2        0.1200000        0.35468655    0.00000000
                                                     2        0.1600000       -0.59160923    0.00000000
                                                     2        0.3000000        0.49390547    0.00000000
                                                     2        0.6000000       -0.37949835    0.00000000
                                                     2        1.6000000        0.89304688    0.00000000
                                      D - F
                                                     0        0.0000010        0.05443663    0.00000000
                                                     2        0.1200000       -0.29679479    0.00000000
                                                     2        0.1400000        0.36849872    0.00000000
                                                     2        0.2400000        0.02793449    0.00000000
                                                     2        0.4000000       -0.46312857    0.00000000
                                                     2        0.7000000        0.97587598    0.00000000
                                                     2        1.5000000       -2.43431102    0.00000000
    8          1            1
                                      F and up 
                                                     0        0.0000010       -0.00007675    0.00000000
                                                     2        0.1200000        0.05352699    0.00000000
                                                     2        0.1400000       -0.25123645    0.00000000
                                                     2        0.1600000        0.32188106    0.00000000
                                                     2        0.2200000       -0.25206857    0.00000000
                                                     2        0.3000000        0.19290477    0.00000000
                                                     2        0.5000000       -0.10129770    0.00000000
                                                     2        0.9000000        0.00314995    0.00000000
                                                     2        1.5000000        0.18401192    0.00000000
                                      S - F
                                                     0        0.0000010        0.08065976    0.00000000
                                                     2        0.1200000       -0.09231673    0.00000000
                                                     2        0.1600000       -0.03278082    0.00000000
                                                     2        0.2800000        0.38423402    0.00000000
                                                     2        0.6000000       -1.09357590    0.00000000
                                                     2        1.1000000        1.53099489    0.00000000
                                                     2        3.0000000       -2.63300202    0.00000000
                                      P - F
                                                     0        0.0000010       -0.11638665    0.00000000
                                                     2        0.1200000        0.35468655    0.00000000
                                                     2        0.1600000       -0.59160923    0.00000000
                                                     2        0.3000000        0.49390547    0.00000000
                                                     2        0.6000000       -0.37949835    0.00000000
                                                     2        1.6000000        0.89304688    0.00000000
                                      D - F
                                                     0        0.0000010        0.05443663    0.00000000
                                                     2        0.1200000       -0.29679479    0.00000000
                                                     2        0.1400000        0.36849872    0.00000000
                                                     2        0.2400000        0.02793449    0.00000000
                                                     2        0.4000000       -0.46312857    0.00000000
                                                     2        0.7000000        0.97587598    0.00000000
                                                     2        1.5000000       -2.43431102    0.00000000
 ======================================================================================================
   146 basis functions,   286 primitive gaussians,   156 cartesian basis functions
    23 alpha electrons       23 beta electrons
       nuclear repulsion energy       223.8714585587 Hartrees.
 NAtoms=    8 NActive=    8 NUniq=    8 SFac= 1.00D+00 NAtFMM=   60 NAOKFM=F Big=F
   1 Symmetry operations used in ECPInt.
 ECPInt:  NShTT=    1953 NPrTT=   12557 LenC2=    1953 LenP2D=    9735.
 LDataN:  DoStor=T MaxTD1= 6 Len=  172
 Initial guess from the checkpoint file:  "5H-1-2-5-oxathiazole.chk"
 B after Tr=    -0.000000   -0.000000   -0.000000
         Rot=    1.000000    0.000000   -0.000000    0.000000 Ang=   0.00 deg.
 >>>>>>>>>> Convergence criterion not met.
 SCF Done:  E(RHF) =  -604.486809445     A.U. after    2 cycles
            NFock=  1  Conv=0.20D-01     -V/T= 2.0021

 **********************************************************************

            Population analysis using the SCF Density.

 **********************************************************************

 Orbital symmetries:
       Occupied  (A) (A) (A) (A) (A) (A) (A) (A) (A) (A) (A) (A)
                 (A) (A) (A) (A) (A) (A) (A) (A) (A) (A) (A)
       Virtual   (A) (A) (A) (A) (A) (A) (A) (A) (A) (A) (A) (A)
                 (A) (A) (A) (A) (A) (A) (A) (A) (A) (A) (A) (A)
                 (A) (A) (A) (A) (A) (A) (A) (A) (A) (A) (A) (A)
                 (A) (A) (A) (A) (A) (A) (A) (A) (A) (A) (A) (A)
                 (A) (A) (A) (A) (A) (A) (A) (A) (A) (A) (A) (A)
                 (A) (A) (A) (A) (A) (A) (A) (A) (A) (A) (A) (A)
                 (A) (A) (A) (A) (A) (A) (A) (A) (A) (A) (A) (A)
                 (A) (A) (A) (A) (A) (A) (A) (A) (A) (A) (A) (A)
                 (A) (A) (A) (A) (A) (A) (A) (A) (A) (A) (A) (A)
                 (A) (A) (A) (A) (A) (A) (A) (A) (A) (A) (A) (A)
                 (A) (A) (A)
 The electronic state is 1-A.
 Alpha  occ. eigenvalues --  -94.01320 -20.61117 -15.57967 -11.29434 -11.28515
 Alpha  occ. eigenvalues --   -8.28886  -6.26676  -6.26517  -6.26200  -1.50488
 Alpha  occ. eigenvalues --   -1.17570  -1.10196  -0.91869  -0.82144  -0.74999
 Alpha  occ. eigenvalues --   -0.70278  -0.63015  -0.59052  -0.54061  -0.53155
 Alpha  occ. eigenvalues --   -0.47707  -0.44670  -0.32646
 Alpha virt. eigenvalues --    0.03294   0.03936   0.05199   0.07295   0.07914
 Alpha virt. eigenvalues --    0.10098   0.10716   0.12153   0.12586   0.13365
 Alpha virt. eigenvalues --    0.14513   0.15915   0.16199   0.16742   0.17391
 Alpha virt. eigenvalues --    0.19531   0.19783   0.21749   0.23370   0.25448
 Alpha virt. eigenvalues --    0.26837   0.27795   0.29475   0.30683   0.32162
 Alpha virt. eigenvalues --    0.33412   0.35970   0.36460   0.38032   0.40006
 Alpha virt. eigenvalues --    0.42466   0.44053   0.44153   0.46615   0.47477
 Alpha virt. eigenvalues --    0.48698   0.49624   0.51735   0.52741   0.53221
 Alpha virt. eigenvalues --    0.54132   0.56387   0.60002   0.62452   0.63722
 Alpha virt. eigenvalues --    0.65361   0.66379   0.67662   0.70479   0.72999
 Alpha virt. eigenvalues --    0.74093   0.75927   0.77822   0.80483   0.82690
 Alpha virt. eigenvalues --    0.85886   0.90664   0.91029   0.92274   0.94983
 Alpha virt. eigenvalues --    0.96876   0.97553   1.00473   1.05793   1.09602
 Alpha virt. eigenvalues --    1.09943   1.13476   1.14973   1.18124   1.20971
 Alpha virt. eigenvalues --    1.25174   1.26594   1.27079   1.30546   1.32447
 Alpha virt. eigenvalues --    1.35892   1.38479   1.44494   1.47201   1.49736
 Alpha virt. eigenvalues --    1.54284   1.56949   1.58228   1.61835   1.64139
 Alpha virt. eigenvalues --    1.65193   1.69545   1.71348   1.74665   1.77875
 Alpha virt. eigenvalues --    1.82548   1.88406   1.91664   1.94703   2.02298
 Alpha virt. eigenvalues --    2.03988   2.09001   2.12768   2.16907   2.17825
 Alpha virt. eigenvalues --    2.22902   2.25203   2.29256   2.31425   2.39103
 Alpha virt. eigenvalues --    2.42742   2.51742   2.56222   2.60173   2.65535
 Alpha virt. eigenvalues --    2.72482   2.76079   2.83550   2.96322   2.98990
 Alpha virt. eigenvalues --    3.30756   3.60247   3.73602   3.83174   3.87953
 Alpha virt. eigenvalues --    3.89699   3.99594   4.13925
          Condensed to atoms (all electrons):
 Mulliken charges:
               1
     1  S    0.750919
     2  O   -1.373752
     3  N    0.987863
     4  C   -0.001771
     5  C   -0.382818
     6  H    0.241718
     7  H   -0.143631
     8  H   -0.078528
 Sum of Mulliken charges =  -0.00000
 Mulliken charges with hydrogens summed into heavy atoms:
               1
     1  S    0.750919
     2  O   -1.373752
     3  N    1.229581
     4  C   -0.145402
     5  C   -0.461347
 Electronic spatial extent (au):  <R**2>=            393.5896
 Charge=              0.0000 electrons
 Dipole moment (field-independent basis, Debye):
    X=              0.7297    Y=              2.4891    Z=              1.4462  Tot=              2.9698

 Test job not archived.
 1\1\GINC-SE041\SP\RHF\Aug-CC-pVDZ\C2H3N1O1S1\OHZDE\05-Apr-2025\0\\#t h
 f aug-cc-pvdz iop(5/13=1,5/36=2,99/5=2) pseudo=read geom=check guess=(
 read,tcheck) scf=(maxcycle=1)\\title\\0,1\S,0,-1.220858,0.001998,0.091
 689\O,0,-0.018734,-1.194169,-0.271412\N,0,1.276449,-0.701292,0.081978\
 C,0,0.008231,1.252585,-0.070218\C,0,1.225589,0.721438,-0.045189\H,0,1.
 431922,-0.961286,1.061342\H,0,-0.249835,2.295344,-0.144943\H,0,2.16345
 4,1.252241,-0.093527\\Version=ES64L-G16RevC.01\State=1-A\HF=-604.48680
 94\RMSD=1.999e-02\Dipole=0.2870835,0.979279,0.568974\Quadrupole=0.8744
 125,1.1337157,-2.0081282,0.6304724,1.6391145,-1.6527628\PG=C01 [X(C2H3
 N1O1S1)]\\@


 KNOWLEDGE IS EXPERIMENT'S DAUGHTER.
 -- LEONARDO DA VINCI, IN "PENSIERI" CA. 1492
 Job cpu time:       0 days  0 hours  0 minutes 27.6 seconds.
 Elapsed time:       0 days  0 hours  0 minutes  2.6 seconds.
 File lengths (MBytes):  RWF=      6 Int=      0 D2E=      0 Chk=      4 Scr=      1
 Normal termination of Gaussian 16 at Sat Apr  5 22:50:35 2025.
