 Entering Gaussian System, Link 0=g16
 Input=propyl_butanoate.gjf
 Output=propyl_butanoate.log
 Initial command:
 /arc/software/Gaussian/g16.c01/l1.exe "/tmp/slurm/4817070/Gau-3318141.inp" -scrdir="/tmp/slurm/4817070/"
 Entering Link 1 = /arc/software/Gaussian/g16.c01/l1.exe PID=   3318142.
  
 Copyright (c) 1988-2019, Gaussian, Inc.  All Rights Reserved.
  
 This is part of the Gaussian(R) 16 program.  It is based on
 the Gaussian(R) 09 system (copyright 2009, Gaussian, Inc.),
 the Gaussian(R) 03 system (copyright 2003, Gaussian, Inc.),
 the Gaussian(R) 98 system (copyright 1998, Gaussian, Inc.),
 the Gaussian(R) 94 system (copyright 1995, Gaussian, Inc.),
 the Gaussian 92(TM) system (copyright 1992, Gaussian, Inc.),
 the Gaussian 90(TM) system (copyright 1990, Gaussian, Inc.),
 the Gaussian 88(TM) system (copyright 1988, Gaussian, Inc.),
 the Gaussian 86(TM) system (copyright 1986, Carnegie Mellon
 University), and the Gaussian 82(TM) system (copyright 1983,
 Carnegie Mellon University). Gaussian is a federally registered
 trademark of Gaussian, Inc.
  
 This software contains proprietary and confidential information,
 including trade secrets, belonging to Gaussian, Inc.
  
 This software is provided under written license and may be
 used, copied, transmitted, or stored only in accord with that
 written license.
  
 The following legend is applicable only to US Government
 contracts under FAR:
  
                    RESTRICTED RIGHTS LEGEND
  
 Use, reproduction and disclosure by the US Government is
 subject to restrictions as set forth in subparagraphs (a)
 and (c) of the Commercial Computer Software - Restricted
 Rights clause in FAR 52.227-19.
  
 Gaussian, Inc.
 340 Quinnipiac St., Bldg. 40, Wallingford CT 06492
  
  
 ---------------------------------------------------------------
 Warning -- This program may not be used in any manner that
 competes with the business of Gaussian, Inc. or will provide
 assistance to any competitor of Gaussian, Inc.  The licensee
 of this program is prohibited from giving any competitor of
 Gaussian, Inc. access to this program.  By using this program,
 the user acknowledges that Gaussian, Inc. is engaged in the
 business of creating and licensing software in the field of
 computational chemistry and represents and warrants to the
 licensee that it is not a competitor of Gaussian, Inc. and that
 it will not use this program in any manner prohibited above.
 ---------------------------------------------------------------
  

 Cite this work as:
 Gaussian 16, Revision C.01,
 M. J. Frisch, G. W. Trucks, H. B. Schlegel, G. E. Scuseria, 
 M. A. Robb, J. R. Cheeseman, G. Scalmani, V. Barone, 
 G. A. Petersson, H. Nakatsuji, X. Li, M. Caricato, A. V. Marenich, 
 J. Bloino, B. G. Janesko, R. Gomperts, B. Mennucci, H. P. Hratchian, 
 J. V. Ortiz, A. F. Izmaylov, J. L. Sonnenberg, D. Williams-Young, 
 F. Ding, F. Lipparini, F. Egidi, J. Goings, B. Peng, A. Petrone, 
 T. Henderson, D. Ranasinghe, V. G. Zakrzewski, J. Gao, N. Rega, 
 G. Zheng, W. Liang, M. Hada, M. Ehara, K. Toyota, R. Fukuda, 
 J. Hasegawa, M. Ishida, T. Nakajima, Y. Honda, O. Kitao, H. Nakai, 
 T. Vreven, K. Throssell, J. A. Montgomery, Jr., J. E. Peralta, 
 F. Ogliaro, M. J. Bearpark, J. J. Heyd, E. N. Brothers, K. N. Kudin, 
 V. N. Staroverov, T. A. Keith, R. Kobayashi, J. Normand, 
 K. Raghavachari, A. P. Rendell, J. C. Burant, S. S. Iyengar, 
 J. Tomasi, M. Cossi, J. M. Millam, M. Klene, C. Adamo, R. Cammi, 
 J. W. Ochterski, R. L. Martin, K. Morokuma, O. Farkas, 
 J. B. Foresman, and D. J. Fox, Gaussian, Inc., Wallingford CT, 2019.
 
 ******************************************
 Gaussian 16:  ES64L-G16RevC.01  3-Jul-2019
                 5-Apr-2025 
 ******************************************
 %nprocs=16
 Will use up to   16 processors via shared memory.
 %mem=30GB
 %chk=propyl_butanoate.chk
 ----------------------------------------------------------------------
 #t hf aug-cc-pvdz symm=none int=(grid=ultrafine) guess=(read,tcheck) s
 table=(opt,rrhf)
 ----------------------------------------------------------------------
 -----
 title
 -----
 Symbolic Z-matrix:
 Charge =  0 Multiplicity = 1
 C                     0.        0.61212   0. 
 C                     3.00813   3.09072   0. 
 C                    -2.51392  -3.5811    0. 
 C                     1.42832   1.10795   0. 
 C                     1.55259   2.62784   0. 
 C                    -1.17295  -2.84844   0. 
 C                    -1.353    -1.34367   0. 
 O                    -0.98599   1.30677   0. 
 O                    -0.0416   -0.73672   0. 
 H                     3.07375   4.17912   0. 
 H                     3.5417    2.72726   0.88086 
 H                     3.5417    2.72726  -0.88086 
 H                    -3.10634  -3.32803  -0.88119 
 H                    -2.36653  -4.66089   0. 
 H                    -3.10634  -3.32803   0.88119 
 H                     1.92912   0.6731    0.86946 
 H                     1.92912   0.6731   -0.86946 
 H                     1.03192   3.03023  -0.87041 
 H                     1.03192   3.03023   0.87041 
 H                    -0.58797  -3.13632  -0.87617 
 H                    -0.58797  -3.13632   0.87617 
 H                    -1.89918  -1.00182  -0.88048 
 H                    -1.89918  -1.00182   0.88048 
 
                    Distance matrix (angstroms):
                    1          2          3          4          5
     1  C    0.000000
     2  C    3.897733   0.000000
     3  C    4.889056   8.660614   0.000000
     4  C    1.511934   2.535188   6.126046   0.000000
     5  C    2.544343   1.527369   7.422092   1.524961   0.000000
     6  C    3.653943   7.263272   1.528063   4.734942   6.117048
     7  C    2.378175   6.219589   2.520680   3.707585   4.920910
     8  O    1.206119   4.374412   5.121121   2.422482   2.861751
     9  O    1.349480   4.893893   3.768665   2.358705   3.723135
    10  H    4.708650   1.090369   9.562580   3.484174   2.172640
    11  H    4.218216   1.092114   8.788729   2.804359   2.177692
    12  H    4.218216   1.092114   8.788729   2.804359   2.177692
    13  H    5.094174   8.908626   1.091563   6.404496   7.612787
    14  H    5.779713   9.432627   1.089800   6.905101   8.275573
    15  H    5.094174   8.908626   1.091563   6.404496   7.612787
    16  H    2.116878   2.786597   6.212466   1.093551   2.172269
    17  H    2.116878   2.786597   6.212466   1.093551   2.172269
    18  H    2.769431   2.160247   7.552504   2.147066   1.091157
    19  H    2.769431   2.160247   7.552504   2.147066   1.091157
    20  H    3.894121   7.244010   2.162121   4.779849   6.210898
    21  H    3.894121   7.244010   2.162121   4.779849   6.210898
    22  H    2.643280   6.450259   2.793893   4.037157   5.085707
    23  H    2.643280   6.450259   2.793893   4.037157   5.085707
                    6          7          8          9         10
     6  C    0.000000
     7  C    1.515509   0.000000
     8  O    4.159421   2.675732   0.000000
     9  O    2.395688   1.445043   2.251163   0.000000
    10  H    8.211030   7.077940   4.973109   5.819866   0.000000
    11  H    7.354744   6.427007   4.826349   5.061136   1.761471
    12  H    7.354744   6.427007   4.826349   5.061136   1.761471
    13  H    2.178187   2.790767   5.172405   4.109014   9.763564
    14  H    2.170160   3.468601   6.125266   4.561183  10.379898
    15  H    2.178187   2.790767   5.172405   4.109014   9.763564
    16  H    4.772844   3.949128   3.107308   2.574352   3.789232
    17  H    4.772844   3.949128   3.107308   2.574352   3.789232
    18  H    6.338604   5.057319   2.792829   4.012480   2.499317
    19  H    6.338604   5.057319   2.792829   4.012480   2.499317
    20  H    1.092129   2.136948   4.546117   2.612331   8.227482
    21  H    1.092129   2.136948   4.546117   2.612331   8.227482
    22  H    2.170869   1.091063   2.634154   2.072708   7.235146
    23  H    2.170869   1.091063   2.634154   2.072708   7.235146
                   11         12         13         14         15
    11  H    0.000000
    12  H    1.761720   0.000000
    13  H    9.163390   8.992380   0.000000
    14  H    9.500936   9.500936   1.760777   0.000000
    15  H    8.992380   9.163390   1.762380   1.760777   0.000000
    16  H    2.611534   3.143817   6.665556   6.903621   6.431564
    17  H    3.143817   2.611534   6.431564   6.903621   6.665556
    18  H    3.075337   2.528016   7.586357   8.453428   7.785936
    19  H    2.528016   3.075337   7.785936   8.453428   7.586357
    20  H    7.383960   7.171871   2.525662   2.501051   3.076890
    21  H    7.171871   7.383960   3.076890   2.501051   2.525662
    22  H    6.827260   6.596148   2.620779   3.792420   3.157842
    23  H    6.596148   6.827260   3.157842   3.792420   2.620779
                   16         17         18         19         20
    16  H    0.000000
    17  H    1.738912   0.000000
    18  H    3.064012   2.522110   0.000000
    19  H    2.522110   3.064012   1.740818   0.000000
    20  H    4.888212   4.565902   6.375772   6.610670   0.000000
    21  H    4.565902   4.888212   6.610670   6.375772   1.752336
    22  H    4.530288   4.178678   4.984868   5.283410   2.505072
    23  H    4.178678   4.530288   5.283410   4.984868   3.059605
                   21         22         23
    21  H    0.000000
    22  H    3.059605   0.000000
    23  H    2.505072   1.760962   0.000000
 Symmetry turned off by external request.
 Rotational constants (GHZ):           6.0705155           0.5329006           0.4988803
   333 basis functions,   541 primitive gaussians,   351 cartesian basis functions
    36 alpha electrons       36 beta electrons
       nuclear repulsion energy       454.9103579514 Hartrees.
 NAtoms=   23 NActive=   23 NUniq=   23 SFac= 1.00D+00 NAtFMM=   60 NAOKFM=F Big=F
 ExpMin= 2.97D-02 ExpMax= 1.17D+04 ExpMxC= 4.01D+02 IAcc=3 IRadAn=         5 AccDes= 0.00D+00
 Harris functional with IExCor=  205 and IRadAn=       5 diagonalized for initial guess.
 HarFok:  IExCor=  205 AccDes= 0.00D+00 IRadAn=         5 IDoV= 1 UseB2=F ITyADJ=14
 ICtDFT=  3500011 ScaDFX=  1.000000  1.000000  1.000000  1.000000
 FoFCou: FMM=F IPFlag=           0 FMFlag=      100000 FMFlg1=           0
         NFxFlg=           0 DoJE=T BraDBF=F KetDBF=T FulRan=T
         wScrn=  0.000000 ICntrl=       500 IOpCl=  0 I1Cent=   200000004 NGrid=           0
         NMat0=    1 NMatS0=      1 NMatT0=    0 NMatD0=    1 NMtDS0=    0 NMtDT0=    0
 Symmetry not used in FoFCou.
 SCF Done:  E(RHF) =  -423.033539293     A.U. after   13 cycles
            NFock= 13  Conv=0.86D-08     -V/T= 2.0012

 **********************************************************************

            Population analysis using the SCF Density.

 **********************************************************************

 Alpha  occ. eigenvalues --  -20.60460 -20.55031 -11.38198 -11.28980 -11.24481
 Alpha  occ. eigenvalues --  -11.23391 -11.22884 -11.22850 -11.22316  -1.45728
 Alpha  occ. eigenvalues --   -1.35818  -1.08557  -1.06550  -0.98156  -0.93042
 Alpha  occ. eigenvalues --   -0.83631  -0.81242  -0.76717  -0.69086  -0.68630
 Alpha  occ. eigenvalues --   -0.66809  -0.64422  -0.60474  -0.59705  -0.57267
 Alpha  occ. eigenvalues --   -0.55759  -0.54349  -0.52045  -0.51957  -0.49914
 Alpha  occ. eigenvalues --   -0.48842  -0.48513  -0.48467  -0.47637  -0.45349
 Alpha  occ. eigenvalues --   -0.43920
 Alpha virt. eigenvalues --    0.03491   0.03775   0.04565   0.04655   0.05230
 Alpha virt. eigenvalues --    0.05662   0.05743   0.07101   0.07198   0.08020
 Alpha virt. eigenvalues --    0.08058   0.08476   0.09510   0.10575   0.10949
 Alpha virt. eigenvalues --    0.12630   0.12927   0.14035   0.15125   0.15423
 Alpha virt. eigenvalues --    0.15862   0.16040   0.16434   0.16801   0.16867
 Alpha virt. eigenvalues --    0.17065   0.17274   0.17329   0.18651   0.19298
 Alpha virt. eigenvalues --    0.19321   0.20424   0.20564   0.21396   0.21585
 Alpha virt. eigenvalues --    0.21648   0.22480   0.23266   0.24335   0.26758
 Alpha virt. eigenvalues --    0.27518   0.28502   0.28578   0.29402   0.29791
 Alpha virt. eigenvalues --    0.30124   0.30848   0.31192   0.31737   0.32376
 Alpha virt. eigenvalues --    0.32732   0.33312   0.35283   0.35833   0.36468
 Alpha virt. eigenvalues --    0.37360   0.38058   0.38061   0.38850   0.39658
 Alpha virt. eigenvalues --    0.40220   0.40723   0.41355   0.41670   0.43213
 Alpha virt. eigenvalues --    0.43833   0.44275   0.44808   0.45301   0.45950
 Alpha virt. eigenvalues --    0.47049   0.47152   0.47765   0.48160   0.48623
 Alpha virt. eigenvalues --    0.49100   0.49267   0.49428   0.49875   0.50357
 Alpha virt. eigenvalues --    0.50886   0.51496   0.51676   0.53029   0.53099
 Alpha virt. eigenvalues --    0.54565   0.54866   0.55793   0.56431   0.57104
 Alpha virt. eigenvalues --    0.57224   0.58938   0.58995   0.59995   0.60620
 Alpha virt. eigenvalues --    0.60825   0.61217   0.61563   0.62673   0.63846
 Alpha virt. eigenvalues --    0.64262   0.64319   0.64856   0.66079   0.66297
 Alpha virt. eigenvalues --    0.67520   0.67879   0.68299   0.68616   0.70427
 Alpha virt. eigenvalues --    0.70650   0.71117   0.71723   0.72710   0.73957
 Alpha virt. eigenvalues --    0.74048   0.75185   0.75320   0.76418   0.76569
 Alpha virt. eigenvalues --    0.77253   0.77308   0.78384   0.79810   0.80036
 Alpha virt. eigenvalues --    0.81187   0.81846   0.83144   0.83340   0.84111
 Alpha virt. eigenvalues --    0.84953   0.85614   0.86464   0.88291   0.88358
 Alpha virt. eigenvalues --    0.89945   0.90399   0.91039   0.91614   0.92618
 Alpha virt. eigenvalues --    0.94730   0.95968   0.96333   0.96573   0.97687
 Alpha virt. eigenvalues --    0.98570   1.00057   1.04182   1.05077   1.07067
 Alpha virt. eigenvalues --    1.07446   1.09847   1.11946   1.13086   1.13467
 Alpha virt. eigenvalues --    1.14234   1.15181   1.16500   1.19038   1.20385
 Alpha virt. eigenvalues --    1.22044   1.23568   1.24396   1.25953   1.26113
 Alpha virt. eigenvalues --    1.26889   1.27771   1.29518   1.31797   1.33076
 Alpha virt. eigenvalues --    1.33645   1.36114   1.40724   1.41487   1.41807
 Alpha virt. eigenvalues --    1.43973   1.44124   1.45279   1.51726   1.52020
 Alpha virt. eigenvalues --    1.52507   1.54178   1.54589   1.55770   1.57924
 Alpha virt. eigenvalues --    1.58847   1.61114   1.63902   1.65902   1.69884
 Alpha virt. eigenvalues --    1.70587   1.71855   1.77151   1.79854   1.81798
 Alpha virt. eigenvalues --    1.82302   1.82682   1.82761   1.83833   1.86027
 Alpha virt. eigenvalues --    1.86690   1.87107   1.89015   1.91021   1.92229
 Alpha virt. eigenvalues --    1.92494   1.93410   1.95474   1.96543   1.98006
 Alpha virt. eigenvalues --    1.98152   2.02710   2.04338   2.06474   2.06547
 Alpha virt. eigenvalues --    2.07590   2.10217   2.12202   2.12579   2.13294
 Alpha virt. eigenvalues --    2.13985   2.14706   2.15033   2.17666   2.18712
 Alpha virt. eigenvalues --    2.19633   2.20976   2.24036   2.24512   2.25000
 Alpha virt. eigenvalues --    2.26378   2.27058   2.28424   2.28531   2.30030
 Alpha virt. eigenvalues --    2.31899   2.33791   2.37754   2.37873   2.40100
 Alpha virt. eigenvalues --    2.40179   2.41604   2.41858   2.43934   2.45108
 Alpha virt. eigenvalues --    2.45781   2.50680   2.52516   2.53351   2.54584
 Alpha virt. eigenvalues --    2.55560   2.57023   2.60462   2.65285   2.65873
 Alpha virt. eigenvalues --    2.69891   2.70464   2.71265   2.71738   2.74152
 Alpha virt. eigenvalues --    2.76077   2.78437   2.79840   2.82949   2.83758
 Alpha virt. eigenvalues --    2.88777   2.88831   2.89678   2.90877   2.91904
 Alpha virt. eigenvalues --    2.96443   2.98971   3.03859   3.04519   3.10239
 Alpha virt. eigenvalues --    3.13297   3.14184   3.14761   3.14959   3.16672
 Alpha virt. eigenvalues --    3.20238   3.22689   3.30466   3.36845   3.39984
 Alpha virt. eigenvalues --    3.51047   3.73805   3.79311   3.80770   3.83273
 Alpha virt. eigenvalues --    3.87971   3.95011   3.99667   4.02680   4.17892
 Alpha virt. eigenvalues --    4.24717   4.33258
          Condensed to atoms (all electrons):
 Mulliken charges:
               1
     1  C    0.434707
     2  C    0.481093
     3  C    0.477991
     4  C    0.275051
     5  C    0.411852
     6  C    0.263436
     7  C    0.830652
     8  O   -0.689133
     9  O   -0.749202
    10  H   -0.058891
    11  H   -0.083019
    12  H   -0.083019
    13  H   -0.074679
    14  H   -0.078981
    15  H   -0.074679
    16  H   -0.114908
    17  H   -0.114908
    18  H   -0.170907
    19  H   -0.170907
    20  H   -0.158119
    21  H   -0.158119
    22  H   -0.197655
    23  H   -0.197655
 Sum of Mulliken charges =  -0.00000
 Mulliken charges with hydrogens summed into heavy atoms:
               1
     1  C    0.434707
     2  C    0.256163
     3  C    0.249652
     4  C    0.045235
     5  C    0.070037
     6  C   -0.052802
     7  C    0.435342
     8  O   -0.689133
     9  O   -0.749202
 Electronic spatial extent (au):  <R**2>=           2311.2524
 Charge=             -0.0000 electrons
 Dipole moment (field-independent basis, Debye):
    X=              1.2221    Y=             -1.6446    Z=             -0.0000  Tot=              2.0490
 NROrb=    333 NOA=    36 NOB=    36 NVA=   297 NVB=   297

 **** Warning!!: The largest alpha MO coefficient is  0.75797444D+02

    12 initial guesses have been made.
 Iteration     1 Dimension    12 NMult     0 NNew     12
 New state      1 was old state      6
 Iteration     2 Dimension    24 NMult    12 NNew     12
 Iteration     3 Dimension    27 NMult    24 NNew      3
 Iteration     4 Dimension    30 NMult    27 NNew      3
 Iteration     5 Dimension    33 NMult    30 NNew      3
 Iteration     6 Dimension    36 NMult    33 NNew      3
 Iteration     7 Dimension    39 NMult    36 NNew      3
 ***********************************************************************
 Stability analysis using <AA,BB:AA,BB> singles matrix:
 ***********************************************************************
 Ground to excited state transition densities written to RWF  633

 Eigenvectors of the stability matrix:
 
 Excited state symmetry could not be determined.
 Eigenvector   1:      Singlet-?Sym  Eigenvalue= 0.2506891  <S**2>=0.000
      36 -> 58         0.33359
      36 -> 60        -0.18331
      36 -> 64        -0.34249
      36 -> 67         0.25882
      36 -> 69         0.14621
      36 -> 70         0.11359
      36 -> 72         0.18073
      36 -> 78        -0.10465
      36 -> 94        -0.11358
 The wavefunction is stable under the perturbations considered.
 The wavefunction is already stable.

 **********************************************************************

            Population analysis using the SCF Density.

 **********************************************************************

 Alpha  occ. eigenvalues --  -20.60460 -20.55031 -11.38198 -11.28980 -11.24481
 Alpha  occ. eigenvalues --  -11.23391 -11.22884 -11.22850 -11.22316  -1.45728
 Alpha  occ. eigenvalues --   -1.35818  -1.08557  -1.06550  -0.98156  -0.93042
 Alpha  occ. eigenvalues --   -0.83631  -0.81242  -0.76717  -0.69086  -0.68630
 Alpha  occ. eigenvalues --   -0.66809  -0.64422  -0.60474  -0.59705  -0.57267
 Alpha  occ. eigenvalues --   -0.55759  -0.54349  -0.52045  -0.51957  -0.49914
 Alpha  occ. eigenvalues --   -0.48842  -0.48513  -0.48467  -0.47637  -0.45349
 Alpha  occ. eigenvalues --   -0.43920
 Alpha virt. eigenvalues --    0.03491   0.03775   0.04565   0.04655   0.05230
 Alpha virt. eigenvalues --    0.05662   0.05743   0.07101   0.07198   0.08020
 Alpha virt. eigenvalues --    0.08058   0.08476   0.09510   0.10575   0.10949
 Alpha virt. eigenvalues --    0.12630   0.12927   0.14035   0.15125   0.15423
 Alpha virt. eigenvalues --    0.15862   0.16040   0.16434   0.16801   0.16867
 Alpha virt. eigenvalues --    0.17065   0.17274   0.17329   0.18651   0.19298
 Alpha virt. eigenvalues --    0.19321   0.20424   0.20564   0.21396   0.21585
 Alpha virt. eigenvalues --    0.21648   0.22480   0.23266   0.24335   0.26758
 Alpha virt. eigenvalues --    0.27518   0.28502   0.28578   0.29402   0.29791
 Alpha virt. eigenvalues --    0.30124   0.30848   0.31192   0.31737   0.32376
 Alpha virt. eigenvalues --    0.32732   0.33312   0.35283   0.35833   0.36468
 Alpha virt. eigenvalues --    0.37360   0.38058   0.38061   0.38850   0.39658
 Alpha virt. eigenvalues --    0.40220   0.40723   0.41355   0.41670   0.43213
 Alpha virt. eigenvalues --    0.43833   0.44275   0.44808   0.45301   0.45950
 Alpha virt. eigenvalues --    0.47049   0.47152   0.47765   0.48160   0.48623
 Alpha virt. eigenvalues --    0.49100   0.49267   0.49428   0.49875   0.50357
 Alpha virt. eigenvalues --    0.50886   0.51496   0.51676   0.53029   0.53099
 Alpha virt. eigenvalues --    0.54565   0.54866   0.55793   0.56431   0.57104
 Alpha virt. eigenvalues --    0.57224   0.58938   0.58995   0.59995   0.60620
 Alpha virt. eigenvalues --    0.60825   0.61217   0.61563   0.62673   0.63846
 Alpha virt. eigenvalues --    0.64262   0.64319   0.64856   0.66079   0.66297
 Alpha virt. eigenvalues --    0.67520   0.67879   0.68299   0.68616   0.70427
 Alpha virt. eigenvalues --    0.70650   0.71117   0.71723   0.72710   0.73957
 Alpha virt. eigenvalues --    0.74048   0.75185   0.75320   0.76418   0.76569
 Alpha virt. eigenvalues --    0.77253   0.77308   0.78384   0.79810   0.80036
 Alpha virt. eigenvalues --    0.81187   0.81846   0.83144   0.83340   0.84111
 Alpha virt. eigenvalues --    0.84953   0.85614   0.86464   0.88291   0.88358
 Alpha virt. eigenvalues --    0.89945   0.90399   0.91039   0.91614   0.92618
 Alpha virt. eigenvalues --    0.94730   0.95968   0.96333   0.96573   0.97687
 Alpha virt. eigenvalues --    0.98570   1.00057   1.04182   1.05077   1.07067
 Alpha virt. eigenvalues --    1.07446   1.09847   1.11946   1.13086   1.13467
 Alpha virt. eigenvalues --    1.14234   1.15181   1.16500   1.19038   1.20385
 Alpha virt. eigenvalues --    1.22044   1.23568   1.24396   1.25953   1.26113
 Alpha virt. eigenvalues --    1.26889   1.27771   1.29518   1.31797   1.33076
 Alpha virt. eigenvalues --    1.33645   1.36114   1.40724   1.41487   1.41807
 Alpha virt. eigenvalues --    1.43973   1.44124   1.45279   1.51726   1.52020
 Alpha virt. eigenvalues --    1.52507   1.54178   1.54589   1.55770   1.57924
 Alpha virt. eigenvalues --    1.58847   1.61114   1.63902   1.65902   1.69884
 Alpha virt. eigenvalues --    1.70587   1.71855   1.77151   1.79854   1.81798
 Alpha virt. eigenvalues --    1.82302   1.82682   1.82761   1.83833   1.86027
 Alpha virt. eigenvalues --    1.86690   1.87107   1.89015   1.91021   1.92229
 Alpha virt. eigenvalues --    1.92494   1.93410   1.95474   1.96543   1.98006
 Alpha virt. eigenvalues --    1.98152   2.02710   2.04338   2.06474   2.06547
 Alpha virt. eigenvalues --    2.07590   2.10217   2.12202   2.12579   2.13294
 Alpha virt. eigenvalues --    2.13985   2.14706   2.15033   2.17666   2.18712
 Alpha virt. eigenvalues --    2.19633   2.20976   2.24036   2.24512   2.25000
 Alpha virt. eigenvalues --    2.26378   2.27058   2.28424   2.28531   2.30030
 Alpha virt. eigenvalues --    2.31899   2.33791   2.37754   2.37873   2.40100
 Alpha virt. eigenvalues --    2.40179   2.41604   2.41858   2.43934   2.45108
 Alpha virt. eigenvalues --    2.45781   2.50680   2.52516   2.53351   2.54584
 Alpha virt. eigenvalues --    2.55560   2.57023   2.60462   2.65285   2.65873
 Alpha virt. eigenvalues --    2.69891   2.70464   2.71265   2.71738   2.74152
 Alpha virt. eigenvalues --    2.76077   2.78437   2.79840   2.82949   2.83758
 Alpha virt. eigenvalues --    2.88777   2.88831   2.89678   2.90877   2.91904
 Alpha virt. eigenvalues --    2.96443   2.98971   3.03859   3.04519   3.10239
 Alpha virt. eigenvalues --    3.13297   3.14184   3.14761   3.14959   3.16672
 Alpha virt. eigenvalues --    3.20238   3.22689   3.30466   3.36845   3.39984
 Alpha virt. eigenvalues --    3.51047   3.73805   3.79311   3.80770   3.83273
 Alpha virt. eigenvalues --    3.87971   3.95011   3.99667   4.02680   4.17892
 Alpha virt. eigenvalues --    4.24717   4.33258
          Condensed to atoms (all electrons):
 Mulliken charges:
               1
     1  C    0.434707
     2  C    0.481093
     3  C    0.477991
     4  C    0.275051
     5  C    0.411852
     6  C    0.263436
     7  C    0.830652
     8  O   -0.689133
     9  O   -0.749202
    10  H   -0.058891
    11  H   -0.083019
    12  H   -0.083019
    13  H   -0.074679
    14  H   -0.078981
    15  H   -0.074679
    16  H   -0.114908
    17  H   -0.114908
    18  H   -0.170907
    19  H   -0.170907
    20  H   -0.158119
    21  H   -0.158119
    22  H   -0.197655
    23  H   -0.197655
 Sum of Mulliken charges =  -0.00000
 Mulliken charges with hydrogens summed into heavy atoms:
               1
     1  C    0.434707
     2  C    0.256163
     3  C    0.249652
     4  C    0.045235
     5  C    0.070037
     6  C   -0.052802
     7  C    0.435342
     8  O   -0.689133
     9  O   -0.749202
 Electronic spatial extent (au):  <R**2>=           2311.2524
 Charge=             -0.0000 electrons
 Dipole moment (field-independent basis, Debye):
    X=              1.2221    Y=             -1.6446    Z=             -0.0000  Tot=              2.0490
 Unable to Open any file for archive entry.
 1\1\GINC-SE084\Stability\RHF\Aug-CC-pVDZ\C7H14O2\OHZDE\05-Apr-2025\0\\
 #t hf aug-cc-pvdz symm=none int=(grid=ultrafine) guess=(read,tcheck) s
 table=(opt,rrhf)\\title\\0,1\C,0,0.,0.612118,0.\C,0,3.00813,3.090722,0
 .\C,0,-2.513916,-3.581102,0.\C,0,1.428318,1.107953,0.\C,0,1.55259,2.62
 7842,0.\C,0,-1.17295,-2.848444,0.\C,0,-1.353001,-1.343669,0.\O,0,-0.98
 5991,1.306773,0.\O,0,-0.041603,-0.736721,0.\H,0,3.073746,4.179115,0.\H
 ,0,3.541696,2.727258,0.88086\H,0,3.541696,2.727258,-0.88086\H,0,-3.106
 341,-3.328029,-0.88119\H,0,-2.36653,-4.66089,0.\H,0,-3.106341,-3.32802
 9,0.88119\H,0,1.929119,0.673098,0.869456\H,0,1.929119,0.673098,-0.8694
 56\H,0,1.031923,3.030231,-0.870409\H,0,1.031923,3.030231,0.870409\H,0,
 -0.58797,-3.136322,-0.876168\H,0,-0.58797,-3.136322,0.876168\H,0,-1.89
 918,-1.001821,-0.880481\H,0,-1.89918,-1.001821,0.880481\\Version=ES64L
 -G16RevC.01\HF=-423.0335393\RMSD=8.561e-09\Dipole=0.480796,-0.647049,0
 .\Quadrupole=-0.4610468,-0.2020224,0.6630693,4.9955356,0.,0.\PG=Unknow
 n\\@
 The archive entry for this job was punched.


 I LOVE MANKIND - IT'S PEOPLE I CAN'T STAND.
     -- LINUS OF PEANUTS
 Job cpu time:       0 days  0 hours 23 minutes  9.6 seconds.
 Elapsed time:       0 days  0 hours  1 minutes 53.9 seconds.
 File lengths (MBytes):  RWF=    444 Int=      0 D2E=      0 Chk=     14 Scr=      1
 Normal termination of Gaussian 16 at Sat Apr  5 23:15:22 2025.
 Initial command:
 /arc/software/Gaussian/g16.c01/l1.exe "/tmp/slurm/4817070/Gau-3318141.inp" -scrdir="/tmp/slurm/4817070/"
 Entering Link 1 = /arc/software/Gaussian/g16.c01/l1.exe PID=   3318384.
  
 Copyright (c) 1988-2019, Gaussian, Inc.  All Rights Reserved.
  
 This is part of the Gaussian(R) 16 program.  It is based on
 the Gaussian(R) 09 system (copyright 2009, Gaussian, Inc.),
 the Gaussian(R) 03 system (copyright 2003, Gaussian, Inc.),
 the Gaussian(R) 98 system (copyright 1998, Gaussian, Inc.),
 the Gaussian(R) 94 system (copyright 1995, Gaussian, Inc.),
 the Gaussian 92(TM) system (copyright 1992, Gaussian, Inc.),
 the Gaussian 90(TM) system (copyright 1990, Gaussian, Inc.),
 the Gaussian 88(TM) system (copyright 1988, Gaussian, Inc.),
 the Gaussian 86(TM) system (copyright 1986, Carnegie Mellon
 University), and the Gaussian 82(TM) system (copyright 1983,
 Carnegie Mellon University). Gaussian is a federally registered
 trademark of Gaussian, Inc.
  
 This software contains proprietary and confidential information,
 including trade secrets, belonging to Gaussian, Inc.
  
 This software is provided under written license and may be
 used, copied, transmitted, or stored only in accord with that
 written license.
  
 The following legend is applicable only to US Government
 contracts under FAR:
  
                    RESTRICTED RIGHTS LEGEND
  
 Use, reproduction and disclosure by the US Government is
 subject to restrictions as set forth in subparagraphs (a)
 and (c) of the Commercial Computer Software - Restricted
 Rights clause in FAR 52.227-19.
  
 Gaussian, Inc.
 340 Quinnipiac St., Bldg. 40, Wallingford CT 06492
  
  
 ---------------------------------------------------------------
 Warning -- This program may not be used in any manner that
 competes with the business of Gaussian, Inc. or will provide
 assistance to any competitor of Gaussian, Inc.  The licensee
 of this program is prohibited from giving any competitor of
 Gaussian, Inc. access to this program.  By using this program,
 the user acknowledges that Gaussian, Inc. is engaged in the
 business of creating and licensing software in the field of
 computational chemistry and represents and warrants to the
 licensee that it is not a competitor of Gaussian, Inc. and that
 it will not use this program in any manner prohibited above.
 ---------------------------------------------------------------
  

 Cite this work as:
 Gaussian 16, Revision C.01,
 M. J. Frisch, G. W. Trucks, H. B. Schlegel, G. E. Scuseria, 
 M. A. Robb, J. R. Cheeseman, G. Scalmani, V. Barone, 
 G. A. Petersson, H. Nakatsuji, X. Li, M. Caricato, A. V. Marenich, 
 J. Bloino, B. G. Janesko, R. Gomperts, B. Mennucci, H. P. Hratchian, 
 J. V. Ortiz, A. F. Izmaylov, J. L. Sonnenberg, D. Williams-Young, 
 F. Ding, F. Lipparini, F. Egidi, J. Goings, B. Peng, A. Petrone, 
 T. Henderson, D. Ranasinghe, V. G. Zakrzewski, J. Gao, N. Rega, 
 G. Zheng, W. Liang, M. Hada, M. Ehara, K. Toyota, R. Fukuda, 
 J. Hasegawa, M. Ishida, T. Nakajima, Y. Honda, O. Kitao, H. Nakai, 
 T. Vreven, K. Throssell, J. A. Montgomery, Jr., J. E. Peralta, 
 F. Ogliaro, M. J. Bearpark, J. J. Heyd, E. N. Brothers, K. N. Kudin, 
 V. N. Staroverov, T. A. Keith, R. Kobayashi, J. Normand, 
 K. Raghavachari, A. P. Rendell, J. C. Burant, S. S. Iyengar, 
 J. Tomasi, M. Cossi, J. M. Millam, M. Klene, C. Adamo, R. Cammi, 
 J. W. Ochterski, R. L. Martin, K. Morokuma, O. Farkas, 
 J. B. Foresman, and D. J. Fox, Gaussian, Inc., Wallingford CT, 2019.
 
 ******************************************
 Gaussian 16:  ES64L-G16RevC.01  3-Jul-2019
                 5-Apr-2025 
 ******************************************
 %nprocs=16
 Will use up to   16 processors via shared memory.
 %mem=30GB
 %chk=propyl_butanoate.chk
 ----------------------------------------------------------------------
 #t hf aug-cc-pvdz iop(5/13=1,5/36=2,99/5=2) pseudo=read geom=check gue
 ss=(read,tcheck) scf=(maxcycle=1)
 ----------------------------------------------------------------------
 -----
 title
 -----
 Structure from the checkpoint file:  "propyl_butanoate.chk"
 Charge =  0 Multiplicity = 1
 Z-Matrix found in chk file.
 C,0,0.,0.612118,0.
 C,0,3.00813,3.090722,0.
 C,0,-2.513916,-3.581102,0.
 C,0,1.428318,1.107953,0.
 C,0,1.55259,2.627842,0.
 C,0,-1.17295,-2.848444,0.
 C,0,-1.353001,-1.343669,0.
 O,0,-0.985991,1.306773,0.
 O,0,-0.041603,-0.736721,0.
 H,0,3.073746,4.179115,0.
 H,0,3.541696,2.727258,0.88086
 H,0,3.541696,2.727258,-0.88086
 H,0,-3.106341,-3.328029,-0.88119
 H,0,-2.36653,-4.66089,0.
 H,0,-3.106341,-3.328029,0.88119
 H,0,1.929119,0.673098,0.869456
 H,0,1.929119,0.673098,-0.869456
 H,0,1.031923,3.030231,-0.870409
 H,0,1.031923,3.030231,0.870409
 H,0,-0.58797,-3.136322,-0.876168
 H,0,-0.58797,-3.136322,0.876168
 H,0,-1.89918,-1.001821,-0.880481
 H,0,-1.89918,-1.001821,0.880481
 Recover connectivity data from disk.
                    Distance matrix (angstroms):
                    1          2          3          4          5
     1  C    0.000000
     2  C    3.897733   0.000000
     3  C    4.889056   8.660614   0.000000
     4  C    1.511934   2.535188   6.126046   0.000000
     5  C    2.544343   1.527369   7.422092   1.524961   0.000000
     6  C    3.653943   7.263272   1.528063   4.734942   6.117048
     7  C    2.378175   6.219589   2.520680   3.707585   4.920910
     8  O    1.206119   4.374412   5.121121   2.422482   2.861751
     9  O    1.349480   4.893893   3.768665   2.358705   3.723135
    10  H    4.708650   1.090369   9.562580   3.484174   2.172640
    11  H    4.218216   1.092114   8.788729   2.804359   2.177692
    12  H    4.218216   1.092114   8.788729   2.804359   2.177692
    13  H    5.094174   8.908626   1.091563   6.404496   7.612787
    14  H    5.779713   9.432627   1.089800   6.905101   8.275573
    15  H    5.094174   8.908626   1.091563   6.404496   7.612787
    16  H    2.116878   2.786597   6.212466   1.093551   2.172269
    17  H    2.116878   2.786597   6.212466   1.093551   2.172269
    18  H    2.769431   2.160247   7.552504   2.147066   1.091157
    19  H    2.769431   2.160247   7.552504   2.147066   1.091157
    20  H    3.894121   7.244010   2.162121   4.779849   6.210898
    21  H    3.894121   7.244010   2.162121   4.779849   6.210898
    22  H    2.643280   6.450259   2.793893   4.037157   5.085707
    23  H    2.643280   6.450259   2.793893   4.037157   5.085707
                    6          7          8          9         10
     6  C    0.000000
     7  C    1.515509   0.000000
     8  O    4.159421   2.675732   0.000000
     9  O    2.395688   1.445043   2.251163   0.000000
    10  H    8.211030   7.077940   4.973109   5.819866   0.000000
    11  H    7.354744   6.427007   4.826349   5.061136   1.761471
    12  H    7.354744   6.427007   4.826349   5.061136   1.761471
    13  H    2.178187   2.790767   5.172405   4.109014   9.763564
    14  H    2.170160   3.468601   6.125266   4.561183  10.379898
    15  H    2.178187   2.790767   5.172405   4.109014   9.763564
    16  H    4.772844   3.949128   3.107308   2.574352   3.789232
    17  H    4.772844   3.949128   3.107308   2.574352   3.789232
    18  H    6.338604   5.057319   2.792829   4.012480   2.499317
    19  H    6.338604   5.057319   2.792829   4.012480   2.499317
    20  H    1.092129   2.136948   4.546117   2.612331   8.227482
    21  H    1.092129   2.136948   4.546117   2.612331   8.227482
    22  H    2.170869   1.091063   2.634154   2.072708   7.235146
    23  H    2.170869   1.091063   2.634154   2.072708   7.235146
                   11         12         13         14         15
    11  H    0.000000
    12  H    1.761720   0.000000
    13  H    9.163390   8.992380   0.000000
    14  H    9.500936   9.500936   1.760777   0.000000
    15  H    8.992380   9.163390   1.762380   1.760777   0.000000
    16  H    2.611534   3.143817   6.665556   6.903621   6.431564
    17  H    3.143817   2.611534   6.431564   6.903621   6.665556
    18  H    3.075337   2.528016   7.586357   8.453428   7.785936
    19  H    2.528016   3.075337   7.785936   8.453428   7.586357
    20  H    7.383960   7.171871   2.525662   2.501051   3.076890
    21  H    7.171871   7.383960   3.076890   2.501051   2.525662
    22  H    6.827260   6.596148   2.620779   3.792420   3.157842
    23  H    6.596148   6.827260   3.157842   3.792420   2.620779
                   16         17         18         19         20
    16  H    0.000000
    17  H    1.738912   0.000000
    18  H    3.064012   2.522110   0.000000
    19  H    2.522110   3.064012   1.740818   0.000000
    20  H    4.888212   4.565902   6.375772   6.610670   0.000000
    21  H    4.565902   4.888212   6.610670   6.375772   1.752336
    22  H    4.530288   4.178678   4.984868   5.283410   2.505072
    23  H    4.178678   4.530288   5.283410   4.984868   3.059605
                   21         22         23
    21  H    0.000000
    22  H    3.059605   0.000000
    23  H    2.505072   1.760962   0.000000
 Framework group  CS[SG(C7H2O2),X(H12)]
 Deg. of freedom    37
                         Standard orientation:                         
 ---------------------------------------------------------------------
 Center     Atomic      Atomic             Coordinates (Angstroms)
 Number     Number       Type             X           Y           Z
 ---------------------------------------------------------------------
      1          6           0       -0.000000    0.612118    0.000000
      2          6           0        3.008129    3.090723    0.000000
      3          6           0       -2.513914   -3.581103    0.000000
      4          6           0        1.428318    1.107954    0.000000
      5          6           0        1.552589    2.627843    0.000000
      6          6           0       -1.172949   -2.848444    0.000000
      7          6           0       -1.353000   -1.343669    0.000000
      8          8           0       -0.985991    1.306773    0.000000
      9          8           0       -0.041603   -0.736721    0.000000
     10          1           0        3.073745    4.179116    0.000000
     11          1           0        3.541695    2.727259    0.880860
     12          1           0        3.541695    2.727259   -0.880860
     13          1           0       -3.106340   -3.328030   -0.881190
     14          1           0       -2.366528   -4.660891    0.000000
     15          1           0       -3.106340   -3.328030    0.881190
     16          1           0        1.929119    0.673099    0.869456
     17          1           0        1.929119    0.673099   -0.869456
     18          1           0        1.031922    3.030231   -0.870409
     19          1           0        1.031922    3.030231    0.870409
     20          1           0       -0.587969   -3.136322   -0.876168
     21          1           0       -0.587969   -3.136322    0.876168
     22          1           0       -1.899179   -1.001822   -0.880481
     23          1           0       -1.899179   -1.001822    0.880481
 ---------------------------------------------------------------------
 Rotational constants (GHZ):           6.0705155           0.5329006           0.4988803
 ======================================================================================================
                                       Pseudopotential Parameters
 ======================================================================================================
  Center     Atomic      Valence      Angular      Power
  Number     Number     Electrons     Momentum     of R      Exponent        Coefficient   SO-Coeffient
 ======================================================================================================
    1          6            6
                                      G and up 
                                                     0        0.0000010       -0.00007288    0.00000000
                                                     2        0.1200000        0.10466671    0.00000000
                                                     2        0.1400000       -0.65716157    0.00000000
                                                     2        0.1600000        1.18890794    0.00000000
                                                     2        0.2000000       -1.25772850    0.00000000
                                                     2        0.2600000        1.01188378    0.00000000
                                                     2        0.4000000       -1.09380874    0.00000000
                                                     2        0.5000000        0.96944888    0.00000000
                                                     2        1.0000000       -0.79256938    0.00000000
                                                     2        3.0000000        1.06443276    0.00000000
                                      S - G
                                                     0        0.0000010       -0.00635295    0.00000000
                                                     2        0.1200000        0.16918955    0.00000000
                                                     2        0.1600000       -0.38862576    0.00000000
                                                     2        0.2800000        0.25638263    0.00000000
                                                     2        0.5000000        0.29628419    0.00000000
                                                     2        0.9000000       -0.28791512    0.00000000
                                      P - G
                                                     0        0.0000010       -0.04756931    0.00000000
                                                     2        0.1200000        0.28430375    0.00000000
                                                     2        0.1600000       -0.69640032    0.00000000
                                                     2        0.2600000        1.13005668    0.00000000
                                                     2        0.4000000       -1.31433324    0.00000000
                                                     2        0.7000000        0.91526469    0.00000000
                                      D - G
                                                     0        0.0000010       -0.11496411    0.00000000
                                                     2        0.1200000        0.16620776    0.00000000
                                                     2        0.1800000       -0.30959819    0.00000000
                                                     2        0.3000000        0.16621458    0.00000000
                                                     2        0.6000000        0.27350556    0.00000000
                                      F - G
                                                     0        0.0000010        0.12037550    0.00000000
                                                     2        0.1200000       -0.48737077    0.00000000
                                                     2        0.1400000        0.58315350    0.00000000
                                                     2        0.3000000        0.00005188    0.00000000
                                                     2        0.5000000       -1.16063549    0.00000000
                                                     2        0.8000000        2.09053308    0.00000000
    2          6            6
                                      G and up 
                                                     0        0.0000010       -0.00007288    0.00000000
                                                     2        0.1200000        0.10466671    0.00000000
                                                     2        0.1400000       -0.65716157    0.00000000
                                                     2        0.1600000        1.18890794    0.00000000
                                                     2        0.2000000       -1.25772850    0.00000000
                                                     2        0.2600000        1.01188378    0.00000000
                                                     2        0.4000000       -1.09380874    0.00000000
                                                     2        0.5000000        0.96944888    0.00000000
                                                     2        1.0000000       -0.79256938    0.00000000
                                                     2        3.0000000        1.06443276    0.00000000
                                      S - G
                                                     0        0.0000010       -0.00635295    0.00000000
                                                     2        0.1200000        0.16918955    0.00000000
                                                     2        0.1600000       -0.38862576    0.00000000
                                                     2        0.2800000        0.25638263    0.00000000
                                                     2        0.5000000        0.29628419    0.00000000
                                                     2        0.9000000       -0.28791512    0.00000000
                                      P - G
                                                     0        0.0000010       -0.04756931    0.00000000
                                                     2        0.1200000        0.28430375    0.00000000
                                                     2        0.1600000       -0.69640032    0.00000000
                                                     2        0.2600000        1.13005668    0.00000000
                                                     2        0.4000000       -1.31433324    0.00000000
                                                     2        0.7000000        0.91526469    0.00000000
                                      D - G
                                                     0        0.0000010       -0.11496411    0.00000000
                                                     2        0.1200000        0.16620776    0.00000000
                                                     2        0.1800000       -0.30959819    0.00000000
                                                     2        0.3000000        0.16621458    0.00000000
                                                     2        0.6000000        0.27350556    0.00000000
                                      F - G
                                                     0        0.0000010        0.12037550    0.00000000
                                                     2        0.1200000       -0.48737077    0.00000000
                                                     2        0.1400000        0.58315350    0.00000000
                                                     2        0.3000000        0.00005188    0.00000000
                                                     2        0.5000000       -1.16063549    0.00000000
                                                     2        0.8000000        2.09053308    0.00000000
    3          6            6
                                      G and up 
                                                     0        0.0000010       -0.00007288    0.00000000
                                                     2        0.1200000        0.10466671    0.00000000
                                                     2        0.1400000       -0.65716157    0.00000000
                                                     2        0.1600000        1.18890794    0.00000000
                                                     2        0.2000000       -1.25772850    0.00000000
                                                     2        0.2600000        1.01188378    0.00000000
                                                     2        0.4000000       -1.09380874    0.00000000
                                                     2        0.5000000        0.96944888    0.00000000
                                                     2        1.0000000       -0.79256938    0.00000000
                                                     2        3.0000000        1.06443276    0.00000000
                                      S - G
                                                     0        0.0000010       -0.00635295    0.00000000
                                                     2        0.1200000        0.16918955    0.00000000
                                                     2        0.1600000       -0.38862576    0.00000000
                                                     2        0.2800000        0.25638263    0.00000000
                                                     2        0.5000000        0.29628419    0.00000000
                                                     2        0.9000000       -0.28791512    0.00000000
                                      P - G
                                                     0        0.0000010       -0.04756931    0.00000000
                                                     2        0.1200000        0.28430375    0.00000000
                                                     2        0.1600000       -0.69640032    0.00000000
                                                     2        0.2600000        1.13005668    0.00000000
                                                     2        0.4000000       -1.31433324    0.00000000
                                                     2        0.7000000        0.91526469    0.00000000
                                      D - G
                                                     0        0.0000010       -0.11496411    0.00000000
                                                     2        0.1200000        0.16620776    0.00000000
                                                     2        0.1800000       -0.30959819    0.00000000
                                                     2        0.3000000        0.16621458    0.00000000
                                                     2        0.6000000        0.27350556    0.00000000
                                      F - G
                                                     0        0.0000010        0.12037550    0.00000000
                                                     2        0.1200000       -0.48737077    0.00000000
                                                     2        0.1400000        0.58315350    0.00000000
                                                     2        0.3000000        0.00005188    0.00000000
                                                     2        0.5000000       -1.16063549    0.00000000
                                                     2        0.8000000        2.09053308    0.00000000
    4          6            6
                                      G and up 
                                                     0        0.0000010       -0.00007288    0.00000000
                                                     2        0.1200000        0.10466671    0.00000000
                                                     2        0.1400000       -0.65716157    0.00000000
                                                     2        0.1600000        1.18890794    0.00000000
                                                     2        0.2000000       -1.25772850    0.00000000
                                                     2        0.2600000        1.01188378    0.00000000
                                                     2        0.4000000       -1.09380874    0.00000000
                                                     2        0.5000000        0.96944888    0.00000000
                                                     2        1.0000000       -0.79256938    0.00000000
                                                     2        3.0000000        1.06443276    0.00000000
                                      S - G
                                                     0        0.0000010       -0.00635295    0.00000000
                                                     2        0.1200000        0.16918955    0.00000000
                                                     2        0.1600000       -0.38862576    0.00000000
                                                     2        0.2800000        0.25638263    0.00000000
                                                     2        0.5000000        0.29628419    0.00000000
                                                     2        0.9000000       -0.28791512    0.00000000
                                      P - G
                                                     0        0.0000010       -0.04756931    0.00000000
                                                     2        0.1200000        0.28430375    0.00000000
                                                     2        0.1600000       -0.69640032    0.00000000
                                                     2        0.2600000        1.13005668    0.00000000
                                                     2        0.4000000       -1.31433324    0.00000000
                                                     2        0.7000000        0.91526469    0.00000000
                                      D - G
                                                     0        0.0000010       -0.11496411    0.00000000
                                                     2        0.1200000        0.16620776    0.00000000
                                                     2        0.1800000       -0.30959819    0.00000000
                                                     2        0.3000000        0.16621458    0.00000000
                                                     2        0.6000000        0.27350556    0.00000000
                                      F - G
                                                     0        0.0000010        0.12037550    0.00000000
                                                     2        0.1200000       -0.48737077    0.00000000
                                                     2        0.1400000        0.58315350    0.00000000
                                                     2        0.3000000        0.00005188    0.00000000
                                                     2        0.5000000       -1.16063549    0.00000000
                                                     2        0.8000000        2.09053308    0.00000000
    5          6            6
                                      G and up 
                                                     0        0.0000010       -0.00007288    0.00000000
                                                     2        0.1200000        0.10466671    0.00000000
                                                     2        0.1400000       -0.65716157    0.00000000
                                                     2        0.1600000        1.18890794    0.00000000
                                                     2        0.2000000       -1.25772850    0.00000000
                                                     2        0.2600000        1.01188378    0.00000000
                                                     2        0.4000000       -1.09380874    0.00000000
                                                     2        0.5000000        0.96944888    0.00000000
                                                     2        1.0000000       -0.79256938    0.00000000
                                                     2        3.0000000        1.06443276    0.00000000
                                      S - G
                                                     0        0.0000010       -0.00635295    0.00000000
                                                     2        0.1200000        0.16918955    0.00000000
                                                     2        0.1600000       -0.38862576    0.00000000
                                                     2        0.2800000        0.25638263    0.00000000
                                                     2        0.5000000        0.29628419    0.00000000
                                                     2        0.9000000       -0.28791512    0.00000000
                                      P - G
                                                     0        0.0000010       -0.04756931    0.00000000
                                                     2        0.1200000        0.28430375    0.00000000
                                                     2        0.1600000       -0.69640032    0.00000000
                                                     2        0.2600000        1.13005668    0.00000000
                                                     2        0.4000000       -1.31433324    0.00000000
                                                     2        0.7000000        0.91526469    0.00000000
                                      D - G
                                                     0        0.0000010       -0.11496411    0.00000000
                                                     2        0.1200000        0.16620776    0.00000000
                                                     2        0.1800000       -0.30959819    0.00000000
                                                     2        0.3000000        0.16621458    0.00000000
                                                     2        0.6000000        0.27350556    0.00000000
                                      F - G
                                                     0        0.0000010        0.12037550    0.00000000
                                                     2        0.1200000       -0.48737077    0.00000000
                                                     2        0.1400000        0.58315350    0.00000000
                                                     2        0.3000000        0.00005188    0.00000000
                                                     2        0.5000000       -1.16063549    0.00000000
                                                     2        0.8000000        2.09053308    0.00000000
    6          6            6
                                      G and up 
                                                     0        0.0000010       -0.00007288    0.00000000
                                                     2        0.1200000        0.10466671    0.00000000
                                                     2        0.1400000       -0.65716157    0.00000000
                                                     2        0.1600000        1.18890794    0.00000000
                                                     2        0.2000000       -1.25772850    0.00000000
                                                     2        0.2600000        1.01188378    0.00000000
                                                     2        0.4000000       -1.09380874    0.00000000
                                                     2        0.5000000        0.96944888    0.00000000
                                                     2        1.0000000       -0.79256938    0.00000000
                                                     2        3.0000000        1.06443276    0.00000000
                                      S - G
                                                     0        0.0000010       -0.00635295    0.00000000
                                                     2        0.1200000        0.16918955    0.00000000
                                                     2        0.1600000       -0.38862576    0.00000000
                                                     2        0.2800000        0.25638263    0.00000000
                                                     2        0.5000000        0.29628419    0.00000000
                                                     2        0.9000000       -0.28791512    0.00000000
                                      P - G
                                                     0        0.0000010       -0.04756931    0.00000000
                                                     2        0.1200000        0.28430375    0.00000000
                                                     2        0.1600000       -0.69640032    0.00000000
                                                     2        0.2600000        1.13005668    0.00000000
                                                     2        0.4000000       -1.31433324    0.00000000
                                                     2        0.7000000        0.91526469    0.00000000
                                      D - G
                                                     0        0.0000010       -0.11496411    0.00000000
                                                     2        0.1200000        0.16620776    0.00000000
                                                     2        0.1800000       -0.30959819    0.00000000
                                                     2        0.3000000        0.16621458    0.00000000
                                                     2        0.6000000        0.27350556    0.00000000
                                      F - G
                                                     0        0.0000010        0.12037550    0.00000000
                                                     2        0.1200000       -0.48737077    0.00000000
                                                     2        0.1400000        0.58315350    0.00000000
                                                     2        0.3000000        0.00005188    0.00000000
                                                     2        0.5000000       -1.16063549    0.00000000
                                                     2        0.8000000        2.09053308    0.00000000
    7          6            6
                                      G and up 
                                                     0        0.0000010       -0.00007288    0.00000000
                                                     2        0.1200000        0.10466671    0.00000000
                                                     2        0.1400000       -0.65716157    0.00000000
                                                     2        0.1600000        1.18890794    0.00000000
                                                     2        0.2000000       -1.25772850    0.00000000
                                                     2        0.2600000        1.01188378    0.00000000
                                                     2        0.4000000       -1.09380874    0.00000000
                                                     2        0.5000000        0.96944888    0.00000000
                                                     2        1.0000000       -0.79256938    0.00000000
                                                     2        3.0000000        1.06443276    0.00000000
                                      S - G
                                                     0        0.0000010       -0.00635295    0.00000000
                                                     2        0.1200000        0.16918955    0.00000000
                                                     2        0.1600000       -0.38862576    0.00000000
                                                     2        0.2800000        0.25638263    0.00000000
                                                     2        0.5000000        0.29628419    0.00000000
                                                     2        0.9000000       -0.28791512    0.00000000
                                      P - G
                                                     0        0.0000010       -0.04756931    0.00000000
                                                     2        0.1200000        0.28430375    0.00000000
                                                     2        0.1600000       -0.69640032    0.00000000
                                                     2        0.2600000        1.13005668    0.00000000
                                                     2        0.4000000       -1.31433324    0.00000000
                                                     2        0.7000000        0.91526469    0.00000000
                                      D - G
                                                     0        0.0000010       -0.11496411    0.00000000
                                                     2        0.1200000        0.16620776    0.00000000
                                                     2        0.1800000       -0.30959819    0.00000000
                                                     2        0.3000000        0.16621458    0.00000000
                                                     2        0.6000000        0.27350556    0.00000000
                                      F - G
                                                     0        0.0000010        0.12037550    0.00000000
                                                     2        0.1200000       -0.48737077    0.00000000
                                                     2        0.1400000        0.58315350    0.00000000
                                                     2        0.3000000        0.00005188    0.00000000
                                                     2        0.5000000       -1.16063549    0.00000000
                                                     2        0.8000000        2.09053308    0.00000000
    8          8            8
                                      G and up 
                                                     0        0.0000010        0.00049668    0.00000000
                                                     2        0.1200000       -0.01803391    0.00000000
                                                     2        0.1400000        0.04014195    0.00000000
                                                     2        0.2000000       -0.02692147    0.00000000
                                                     2        0.2800000       -0.04241843    0.00000000
                                                     2        0.4000000        0.15412145    0.00000000
                                                     2        0.7000000       -0.40587006    0.00000000
                                                     2        1.1000000        1.75666647    0.00000000
                                      S - G
                                                     0        0.0000010       -0.01088195    0.00000000
                                                     2        0.1200000        0.09867335    0.00000000
                                                     2        0.2400000       -0.08484177    0.00000000
                                                     2        0.6000000       -1.39011554    0.00000000
                                                     2        2.5000000        1.36225910    0.00000000
                                      P - G
                                                     0        0.0000010        0.05874028    0.00000000
                                                     2        0.1200000       -0.11700340    0.00000000
                                                     2        0.1600000        0.08847775    0.00000000
                                                     2        0.3000000        0.04709907    0.00000000
                                                     2        1.2000000       -1.80388338    0.00000000
                                      D - G
                                                     0        0.0000010       -0.00541262    0.00000000
                                                     2        0.1200000       -0.26547906    0.00000000
                                                     2        0.1600000        1.04289661    0.00000000
                                                     2        0.2400000       -1.92800913    0.00000000
                                                     2        0.4000000        2.26691633    0.00000000
                                                     2        0.7000000       -1.97391482    0.00000000
                                      F - G
                                                     0        0.0000010       -0.02604870    0.00000000
                                                     2        0.1200000        0.37362552    0.00000000
                                                     2        0.1600000       -1.43526367    0.00000000
                                                     2        0.2200000        1.76778079    0.00000000
                                                     2        0.5000000       -1.90846303    0.00000000
    9          8            8
                                      G and up 
                                                     0        0.0000010        0.00049668    0.00000000
                                                     2        0.1200000       -0.01803391    0.00000000
                                                     2        0.1400000        0.04014195    0.00000000
                                                     2        0.2000000       -0.02692147    0.00000000
                                                     2        0.2800000       -0.04241843    0.00000000
                                                     2        0.4000000        0.15412145    0.00000000
                                                     2        0.7000000       -0.40587006    0.00000000
                                                     2        1.1000000        1.75666647    0.00000000
                                      S - G
                                                     0        0.0000010       -0.01088195    0.00000000
                                                     2        0.1200000        0.09867335    0.00000000
                                                     2        0.2400000       -0.08484177    0.00000000
                                                     2        0.6000000       -1.39011554    0.00000000
                                                     2        2.5000000        1.36225910    0.00000000
                                      P - G
                                                     0        0.0000010        0.05874028    0.00000000
                                                     2        0.1200000       -0.11700340    0.00000000
                                                     2        0.1600000        0.08847775    0.00000000
                                                     2        0.3000000        0.04709907    0.00000000
                                                     2        1.2000000       -1.80388338    0.00000000
                                      D - G
                                                     0        0.0000010       -0.00541262    0.00000000
                                                     2        0.1200000       -0.26547906    0.00000000
                                                     2        0.1600000        1.04289661    0.00000000
                                                     2        0.2400000       -1.92800913    0.00000000
                                                     2        0.4000000        2.26691633    0.00000000
                                                     2        0.7000000       -1.97391482    0.00000000
                                      F - G
                                                     0        0.0000010       -0.02604870    0.00000000
                                                     2        0.1200000        0.37362552    0.00000000
                                                     2        0.1600000       -1.43526367    0.00000000
                                                     2        0.2200000        1.76778079    0.00000000
                                                     2        0.5000000       -1.90846303    0.00000000
   10          1            1
                                      F and up 
                                                     0        0.0000010       -0.00007675    0.00000000
                                                     2        0.1200000        0.05352699    0.00000000
                                                     2        0.1400000       -0.25123645    0.00000000
                                                     2        0.1600000        0.32188106    0.00000000
                                                     2        0.2200000       -0.25206857    0.00000000
                                                     2        0.3000000        0.19290477    0.00000000
                                                     2        0.5000000       -0.10129770    0.00000000
                                                     2        0.9000000        0.00314995    0.00000000
                                                     2        1.5000000        0.18401192    0.00000000
                                      S - F
                                                     0        0.0000010        0.08065976    0.00000000
                                                     2        0.1200000       -0.09231673    0.00000000
                                                     2        0.1600000       -0.03278082    0.00000000
                                                     2        0.2800000        0.38423402    0.00000000
                                                     2        0.6000000       -1.09357590    0.00000000
                                                     2        1.1000000        1.53099489    0.00000000
                                                     2        3.0000000       -2.63300202    0.00000000
                                      P - F
                                                     0        0.0000010       -0.11638665    0.00000000
                                                     2        0.1200000        0.35468655    0.00000000
                                                     2        0.1600000       -0.59160923    0.00000000
                                                     2        0.3000000        0.49390547    0.00000000
                                                     2        0.6000000       -0.37949835    0.00000000
                                                     2        1.6000000        0.89304688    0.00000000
                                      D - F
                                                     0        0.0000010        0.05443663    0.00000000
                                                     2        0.1200000       -0.29679479    0.00000000
                                                     2        0.1400000        0.36849872    0.00000000
                                                     2        0.2400000        0.02793449    0.00000000
                                                     2        0.4000000       -0.46312857    0.00000000
                                                     2        0.7000000        0.97587598    0.00000000
                                                     2        1.5000000       -2.43431102    0.00000000
   11          1            1
                                      F and up 
                                                     0        0.0000010       -0.00007675    0.00000000
                                                     2        0.1200000        0.05352699    0.00000000
                                                     2        0.1400000       -0.25123645    0.00000000
                                                     2        0.1600000        0.32188106    0.00000000
                                                     2        0.2200000       -0.25206857    0.00000000
                                                     2        0.3000000        0.19290477    0.00000000
                                                     2        0.5000000       -0.10129770    0.00000000
                                                     2        0.9000000        0.00314995    0.00000000
                                                     2        1.5000000        0.18401192    0.00000000
                                      S - F
                                                     0        0.0000010        0.08065976    0.00000000
                                                     2        0.1200000       -0.09231673    0.00000000
                                                     2        0.1600000       -0.03278082    0.00000000
                                                     2        0.2800000        0.38423402    0.00000000
                                                     2        0.6000000       -1.09357590    0.00000000
                                                     2        1.1000000        1.53099489    0.00000000
                                                     2        3.0000000       -2.63300202    0.00000000
                                      P - F
                                                     0        0.0000010       -0.11638665    0.00000000
                                                     2        0.1200000        0.35468655    0.00000000
                                                     2        0.1600000       -0.59160923    0.00000000
                                                     2        0.3000000        0.49390547    0.00000000
                                                     2        0.6000000       -0.37949835    0.00000000
                                                     2        1.6000000        0.89304688    0.00000000
                                      D - F
                                                     0        0.0000010        0.05443663    0.00000000
                                                     2        0.1200000       -0.29679479    0.00000000
                                                     2        0.1400000        0.36849872    0.00000000
                                                     2        0.2400000        0.02793449    0.00000000
                                                     2        0.4000000       -0.46312857    0.00000000
                                                     2        0.7000000        0.97587598    0.00000000
                                                     2        1.5000000       -2.43431102    0.00000000
   12          1            1
                                      F and up 
                                                     0        0.0000010       -0.00007675    0.00000000
                                                     2        0.1200000        0.05352699    0.00000000
                                                     2        0.1400000       -0.25123645    0.00000000
                                                     2        0.1600000        0.32188106    0.00000000
                                                     2        0.2200000       -0.25206857    0.00000000
                                                     2        0.3000000        0.19290477    0.00000000
                                                     2        0.5000000       -0.10129770    0.00000000
                                                     2        0.9000000        0.00314995    0.00000000
                                                     2        1.5000000        0.18401192    0.00000000
                                      S - F
                                                     0        0.0000010        0.08065976    0.00000000
                                                     2        0.1200000       -0.09231673    0.00000000
                                                     2        0.1600000       -0.03278082    0.00000000
                                                     2        0.2800000        0.38423402    0.00000000
                                                     2        0.6000000       -1.09357590    0.00000000
                                                     2        1.1000000        1.53099489    0.00000000
                                                     2        3.0000000       -2.63300202    0.00000000
                                      P - F
                                                     0        0.0000010       -0.11638665    0.00000000
                                                     2        0.1200000        0.35468655    0.00000000
                                                     2        0.1600000       -0.59160923    0.00000000
                                                     2        0.3000000        0.49390547    0.00000000
                                                     2        0.6000000       -0.37949835    0.00000000
                                                     2        1.6000000        0.89304688    0.00000000
                                      D - F
                                                     0        0.0000010        0.05443663    0.00000000
[...]
   22          1            1
                                      F and up 
                                                     0        0.0000010       -0.00007675    0.00000000
                                                     2        0.1200000        0.05352699    0.00000000
                                                     2        0.1400000       -0.25123645    0.00000000
                                                     2        0.1600000        0.32188106    0.00000000
                                                     2        0.2200000       -0.25206857    0.00000000
                                                     2        0.3000000        0.19290477    0.00000000
                                                     2        0.5000000       -0.10129770    0.00000000
                                                     2        0.9000000        0.00314995    0.00000000
                                                     2        1.5000000        0.18401192    0.00000000
                                      S - F
                                                     0        0.0000010        0.08065976    0.00000000
                                                     2        0.1200000       -0.09231673    0.00000000
                                                     2        0.1600000       -0.03278082    0.00000000
                                                     2        0.2800000        0.38423402    0.00000000
                                                     2        0.6000000       -1.09357590    0.00000000
                                                     2        1.1000000        1.53099489    0.00000000
                                                     2        3.0000000       -2.63300202    0.00000000
                                      P - F
                                                     0        0.0000010       -0.11638665    0.00000000
                                                     2        0.1200000        0.35468655    0.00000000
                                                     2        0.1600000       -0.59160923    0.00000000
                                                     2        0.3000000        0.49390547    0.00000000
                                                     2        0.6000000       -0.37949835    0.00000000
                                                     2        1.6000000        0.89304688    0.00000000
                                      D - F
                                                     0        0.0000010        0.05443663    0.00000000
                                                     2        0.1200000       -0.29679479    0.00000000
                                                     2        0.1400000        0.36849872    0.00000000
                                                     2        0.2400000        0.02793449    0.00000000
                                                     2        0.4000000       -0.46312857    0.00000000
                                                     2        0.7000000        0.97587598    0.00000000
                                                     2        1.5000000       -2.43431102    0.00000000
   23          1            1
                                      F and up 
                                                     0        0.0000010       -0.00007675    0.00000000
                                                     2        0.1200000        0.05352699    0.00000000
                                                     2        0.1400000       -0.25123645    0.00000000
                                                     2        0.1600000        0.32188106    0.00000000
                                                     2        0.2200000       -0.25206857    0.00000000
                                                     2        0.3000000        0.19290477    0.00000000
                                                     2        0.5000000       -0.10129770    0.00000000
                                                     2        0.9000000        0.00314995    0.00000000
                                                     2        1.5000000        0.18401192    0.00000000
                                      S - F
                                                     0        0.0000010        0.08065976    0.00000000
                                                     2        0.1200000       -0.09231673    0.00000000
                                                     2        0.1600000       -0.03278082    0.00000000
                                                     2        0.2800000        0.38423402    0.00000000
                                                     2        0.6000000       -1.09357590    0.00000000
                                                     2        1.1000000        1.53099489    0.00000000
                                                     2        3.0000000       -2.63300202    0.00000000
                                      P - F
                                                     0        0.0000010       -0.11638665    0.00000000
                                                     2        0.1200000        0.35468655    0.00000000
                                                     2        0.1600000       -0.59160923    0.00000000
                                                     2        0.3000000        0.49390547    0.00000000
                                                     2        0.6000000       -0.37949835    0.00000000
                                                     2        1.6000000        0.89304688    0.00000000
                                      D - F
                                                     0        0.0000010        0.05443663    0.00000000
                                                     2        0.1200000       -0.29679479    0.00000000
                                                     2        0.1400000        0.36849872    0.00000000
                                                     2        0.2400000        0.02793449    0.00000000
                                                     2        0.4000000       -0.46312857    0.00000000
                                                     2        0.7000000        0.97587598    0.00000000
                                                     2        1.5000000       -2.43431102    0.00000000
 ======================================================================================================
   333 basis functions,   541 primitive gaussians,   351 cartesian basis functions
    36 alpha electrons       36 beta electrons
       nuclear repulsion energy       454.9103579514 Hartrees.
 NAtoms=   23 NActive=   23 NUniq=   17 SFac= 1.83D+00 NAtFMM=   60 NAOKFM=F Big=F
   2 Symmetry operations used in ECPInt.
 ECPInt:  NShTT=   11476 NPrTT=   47112 LenC2=   11208 LenP2D=   34436.
 LDataN:  DoStor=T MaxTD1= 6 Len=  172
 Initial guess from the checkpoint file:  "propyl_butanoate.chk"
 B after Tr=     0.000000    0.000000    0.000000
         Rot=    1.000000    0.000000    0.000000   -0.000000 Ang=  -0.00 deg.
 Initial guess orbital symmetries:
       Occupied  (A') (A') (A') (A') (A') (A') (A') (A') (A') (A')
                 (A') (A') (A') (A') (A') (A') (A') (A') (A') (A")
                 (A') (A") (A") (A') (A') (A") (A') (A') (A") (A')
                 (A') (A') (A") (A") (A") (A')
       Virtual   (A') (A') (A") (A') (A') (A') (A") (A") (A') (A")
                 (A') (A") (A') (A") (A') (A') (A') (A') (A') (A')
                 (A') (A") (A') (A") (A') (A') (A') (A") (A") (A')
                 (A") (A') (A") (A") (A') (A") (A') (A') (A') (A')
                 (A') (A") (A') (A") (A") (A') (A") (A') (A') (A")
                 (A') (A') (A') (A') (A") (A') (A') (A") (A') (A')
                 (A') (A") (A') (A') (A') (A') (A') (A") (A") (A')
                 (A") (A') (A') (A") (A') (A") (A") (A') (A") (A')
                 (A') (A') (A") (A") (A') (A') (A") (A') (A') (A")
                 (A") (A') (A") (A') (A') (A") (A") (A') (A') (A')
                 (A') (A") (A') (A") (A') (A") (A') (A") (A') (A")
                 (A') (A") (A') (A') (A') (A") (A') (A") (A") (A')
                 (A") (A') (A') (A') (A") (A') (A') (A') (A') (A')
                 (A") (A') (A') (A") (A') (A") (A') (A') (A") (A')
                 (A") (A') (A") (A') (A') (A") (A") (A') (A') (A")
                 (A') (A") (A') (A") (A') (A') (A') (A') (A') (A")
                 (A') (A") (A') (A') (A") (A") (A') (A") (A') (A')
                 (A") (A') (A') (A") (A') (A') (A") (A') (A") (A')
                 (A") (A') (A") (A') (A') (A") (A") (A") (A') (A')
                 (A') (A') (A') (A") (A') (A') (A") (A') (A') (A")
                 (A") (A') (A") (A") (A") (A') (A') (A") (A') (A')
                 (A") (A") (A') (A") (A') (A") (A") (A") (A') (A')
                 (A") (A') (A") (A") (A') (A') (A') (A") (A') (A')
                 (A') (A') (A') (A") (A') (A') (A") (A") (A') (A")
                 (A') (A') (A") (A') (A") (A') (A') (A") (A') (A')
                 (A") (A') (A') (A') (A') (A") (A') (A") (A') (A')
                 (A') (A') (A") (A") (A') (A") (A') (A') (A') (A")
                 (A') (A') (A') (A') (A') (A") (A') (A') (A") (A')
                 (A") (A") (A') (A') (A') (A') (A') (A") (A") (A")
                 (A') (A") (A') (A') (A') (A') (A')
 >>>>>>>>>> Convergence criterion not met.
 SCF Done:  E(RHF) =  -423.480828153     A.U. after    2 cycles
            NFock=  1  Conv=0.14D-01     -V/T= 2.0038

 **********************************************************************

            Population analysis using the SCF Density.

 **********************************************************************

 Orbital symmetries:
       Occupied  (A') (A') (A') (A') (A') (A') (A') (A') (A') (A')
                 (A') (A') (A') (A') (A') (A') (A') (A') (A') (A")
                 (A') (A") (A") (A') (A') (A") (A') (A') (A") (A')
                 (A') (A') (A") (A") (A") (A')
       Virtual   (A') (A') (A") (A') (A') (A') (A") (A") (A') (A')
                 (A") (A") (A') (A") (A') (A') (A') (A') (A') (A')
                 (A') (A") (A') (A') (A") (A') (A") (A') (A") (A")
                 (A') (A') (A") (A") (A') (A") (A') (A') (A') (A')
                 (A') (A") (A') (A") (A") (A') (A") (A') (A') (A")
                 (A') (A') (A') (A') (A") (A') (A') (A") (A') (A')
                 (A') (A") (A') (A') (A') (A') (A') (A") (A") (A')
                 (A") (A') (A') (A") (A') (A") (A") (A') (A") (A')
                 (A') (A') (A") (A") (A') (A') (A") (A') (A') (A")
                 (A") (A') (A") (A') (A') (A") (A") (A') (A') (A')
                 (A") (A') (A') (A") (A') (A") (A') (A") (A') (A")
                 (A') (A") (A') (A') (A') (A") (A') (A") (A') (A")
                 (A') (A") (A') (A') (A") (A') (A') (A') (A') (A')
                 (A") (A') (A') (A") (A') (A") (A') (A') (A") (A')
                 (A") (A') (A") (A') (A') (A") (A") (A') (A') (A")
                 (A') (A") (A') (A") (A') (A') (A') (A') (A') (A")
                 (A') (A") (A') (A') (A") (A") (A') (A") (A') (A')
                 (A") (A') (A') (A") (A') (A') (A") (A') (A') (A")
                 (A") (A') (A") (A') (A') (A") (A") (A") (A') (A')
                 (A') (A') (A') (A") (A') (A") (A') (A') (A') (A')
                 (A") (A") (A") (A') (A") (A') (A") (A') (A") (A')
                 (A") (A") (A') (A') (A") (A") (A") (A') (A') (A")
                 (A') (A") (A") (A") (A') (A') (A') (A") (A') (A')
                 (A') (A') (A') (A') (A") (A') (A") (A') (A') (A")
                 (A') (A") (A') (A") (A') (A") (A') (A') (A") (A')
                 (A") (A') (A') (A') (A') (A") (A') (A') (A") (A')
                 (A') (A') (A") (A") (A') (A') (A") (A') (A') (A")
                 (A') (A') (A') (A') (A') (A') (A") (A') (A') (A")
                 (A") (A") (A') (A') (A') (A') (A') (A") (A") (A")
                 (A') (A") (A') (A') (A') (A') (A')
 The electronic state is 1-A'.
 Alpha  occ. eigenvalues --  -20.58146 -20.52796 -11.38127 -11.29156 -11.24699
 Alpha  occ. eigenvalues --  -11.23625 -11.23181 -11.23117 -11.22646  -1.53522
 Alpha  occ. eigenvalues --   -1.44342  -1.08986  -1.06684  -0.98338  -0.93087
 Alpha  occ. eigenvalues --   -0.83891  -0.81673  -0.77271  -0.69719  -0.69121
 Alpha  occ. eigenvalues --   -0.67222  -0.65146  -0.60904  -0.60436  -0.58060
 Alpha  occ. eigenvalues --   -0.56496  -0.54598  -0.53131  -0.52509  -0.50642
 Alpha  occ. eigenvalues --   -0.49543  -0.49361  -0.49076  -0.48215  -0.44778
 Alpha  occ. eigenvalues --   -0.43361
 Alpha virt. eigenvalues --    0.03541   0.03599   0.03841   0.04086   0.04686
 Alpha virt. eigenvalues --    0.05136   0.05204   0.06852   0.07009   0.07967
 Alpha virt. eigenvalues --    0.07976   0.08475   0.09530   0.10748   0.10827
 Alpha virt. eigenvalues --    0.12718   0.13012   0.13951   0.15025   0.15292
 Alpha virt. eigenvalues --    0.15824   0.16163   0.16311   0.16874   0.16892
 Alpha virt. eigenvalues --    0.17076   0.17327   0.17341   0.18590   0.19174
 Alpha virt. eigenvalues --    0.19335   0.20181   0.20600   0.21313   0.21490
 Alpha virt. eigenvalues --    0.21612   0.22379   0.23225   0.24215   0.26666
 Alpha virt. eigenvalues --    0.27451   0.28407   0.28441   0.29237   0.29572
 Alpha virt. eigenvalues --    0.29937   0.30650   0.31186   0.31623   0.32239
 Alpha virt. eigenvalues --    0.32509   0.33120   0.35084   0.35630   0.36279
 Alpha virt. eigenvalues --    0.37127   0.37838   0.37943   0.38623   0.39579
 Alpha virt. eigenvalues --    0.40177   0.40526   0.41221   0.41557   0.43089
 Alpha virt. eigenvalues --    0.43698   0.44187   0.44697   0.45209   0.45873
 Alpha virt. eigenvalues --    0.46952   0.47006   0.47679   0.48096   0.48472
 Alpha virt. eigenvalues --    0.49040   0.49235   0.49363   0.49853   0.50313
 Alpha virt. eigenvalues --    0.50814   0.51442   0.51615   0.52987   0.53075
 Alpha virt. eigenvalues --    0.54534   0.54821   0.55798   0.56519   0.57124
 Alpha virt. eigenvalues --    0.57265   0.58905   0.59004   0.60062   0.60665
 Alpha virt. eigenvalues --    0.60756   0.61276   0.61695   0.62803   0.63895
 Alpha virt. eigenvalues --    0.64387   0.64393   0.65050   0.66133   0.66403
 Alpha virt. eigenvalues --    0.67665   0.67948   0.68422   0.68674   0.70524
 Alpha virt. eigenvalues --    0.70637   0.71231   0.71799   0.72785   0.74035
 Alpha virt. eigenvalues --    0.74167   0.75355   0.75467   0.76512   0.76576
 Alpha virt. eigenvalues --    0.77378   0.77398   0.78425   0.80008   0.80178
 Alpha virt. eigenvalues --    0.81360   0.81984   0.83333   0.83474   0.84354
 Alpha virt. eigenvalues --    0.85080   0.85747   0.86565   0.88477   0.88535
 Alpha virt. eigenvalues --    0.90225   0.90597   0.91319   0.91932   0.92823
 Alpha virt. eigenvalues --    0.95167   0.96279   0.96716   0.96847   0.98020
 Alpha virt. eigenvalues --    0.98990   1.00614   1.04620   1.05491   1.07778
 Alpha virt. eigenvalues --    1.07961   1.10723   1.12912   1.13983   1.14300
 Alpha virt. eigenvalues --    1.15349   1.16639   1.17926   1.20062   1.21346
 Alpha virt. eigenvalues --    1.23449   1.24796   1.25650   1.27209   1.27335
 Alpha virt. eigenvalues --    1.28127   1.29334   1.30605   1.33624   1.34413
 Alpha virt. eigenvalues --    1.34945   1.37530   1.41629   1.42730   1.42880
 Alpha virt. eigenvalues --    1.45184   1.45912   1.46742   1.53649   1.53990
 Alpha virt. eigenvalues --    1.54271   1.56112   1.56459   1.57366   1.59260
 Alpha virt. eigenvalues --    1.60766   1.63130   1.66184   1.67822   1.71037
 Alpha virt. eigenvalues --    1.72385   1.73739   1.78477   1.80394   1.82660
 Alpha virt. eigenvalues --    1.82783   1.83803   1.84156   1.84973   1.87873
 Alpha virt. eigenvalues --    1.88685   1.88702   1.91321   1.93161   1.94013
 Alpha virt. eigenvalues --    1.94754   1.95768   1.97610   1.98228   1.99328
 Alpha virt. eigenvalues --    2.00236   2.05080   2.06638   2.08861   2.09365
 Alpha virt. eigenvalues --    2.11122   2.12413   2.13805   2.14921   2.15143
 Alpha virt. eigenvalues --    2.16894   2.16970   2.17660   2.20000   2.21776
 Alpha virt. eigenvalues --    2.22634   2.24362   2.25572   2.27357   2.28383
 Alpha virt. eigenvalues --    2.28745   2.30476   2.32130   2.35110   2.35225
 Alpha virt. eigenvalues --    2.36492   2.40074   2.40642   2.42491   2.43081
 Alpha virt. eigenvalues --    2.44917   2.45925   2.46401   2.47655   2.47722
 Alpha virt. eigenvalues --    2.48312   2.53333   2.56080   2.56133   2.56776
 Alpha virt. eigenvalues --    2.58740   2.59614   2.62768   2.67836   2.68391
 Alpha virt. eigenvalues --    2.72555   2.72721   2.73453   2.73743   2.75399
 Alpha virt. eigenvalues --    2.79004   2.80592   2.82842   2.86255   2.87602
 Alpha virt. eigenvalues --    2.94425   2.95138   2.95290   2.96353   2.98651
 Alpha virt. eigenvalues --    3.02542   3.03525   3.08045   3.09915   3.12298
 Alpha virt. eigenvalues --    3.18917   3.19827   3.21341   3.21677   3.21833
 Alpha virt. eigenvalues --    3.27691   3.30574   3.31172   3.38222   3.40878
 Alpha virt. eigenvalues --    3.54805   3.73109   3.89932   3.91232   3.93776
 Alpha virt. eigenvalues --    3.97369   4.05659   4.09104   4.11879   4.28187
 Alpha virt. eigenvalues --    4.34879   4.42329
          Condensed to atoms (all electrons):
 Mulliken charges:
               1
     1  C    2.131250
     2  C   -0.426298
     3  C   -0.348540
     4  C   -0.729949
     5  C   -0.108491
     6  C   -0.358177
     7  C    0.384381
     8  O   -1.223418
     9  O   -1.331553
    10  H    0.115746
    11  H    0.162349
    12  H    0.162349
    13  H    0.167886
    14  H    0.108158
    15  H    0.167886
    16  H    0.178297
    17  H    0.178297
    18  H    0.119496
    19  H    0.119496
    20  H    0.127136
    21  H    0.127136
    22  H    0.138280
    23  H    0.138280
 Sum of Mulliken charges =  -0.00000
 Mulliken charges with hydrogens summed into heavy atoms:
               1
     1  C    2.131250
     2  C    0.014147
     3  C    0.095389
     4  C   -0.373355
     5  C    0.130502
     6  C   -0.103904
     7  C    0.660941
     8  O   -1.223418
     9  O   -1.331553
 Electronic spatial extent (au):  <R**2>=           2311.2529
 Charge=             -0.0000 electrons
 Dipole moment (field-independent basis, Debye):
    X=              1.1604    Y=             -1.6131    Z=              0.0000  Tot=              1.9871

 Test job not archived.
 1\1\GINC-SE084\SP\RHF\Aug-CC-pVDZ\C7H14O2\OHZDE\05-Apr-2025\0\\#t hf a
 ug-cc-pvdz iop(5/13=1,5/36=2,99/5=2) pseudo=read geom=check guess=(rea
 d,tcheck) scf=(maxcycle=1)\\title\\0,1\C,0,0.,0.612118,0.\C,0,3.00813,
 3.090722,0.\C,0,-2.513916,-3.581102,0.\C,0,1.428318,1.107953,0.\C,0,1.
 55259,2.627842,0.\C,0,-1.17295,-2.848444,0.\C,0,-1.353001,-1.343669,0.
 \O,0,-0.985991,1.306773,0.\O,0,-0.041603,-0.736721,0.\H,0,3.073746,4.1
 79115,0.\H,0,3.541696,2.727258,0.88086\H,0,3.541696,2.727258,-0.88086\
 H,0,-3.106341,-3.328029,-0.88119\H,0,-2.36653,-4.66089,0.\H,0,-3.10634
 1,-3.328029,0.88119\H,0,1.929119,0.673098,0.869456\H,0,1.929119,0.6730
 98,-0.869456\H,0,1.031923,3.030231,-0.870409\H,0,1.031923,3.030231,0.8
 70409\H,0,-0.58797,-3.136322,-0.876168\H,0,-0.58797,-3.136322,0.876168
 \H,0,-1.89918,-1.001821,-0.880481\H,0,-1.89918,-1.001821,0.880481\\Ver
 sion=ES64L-G16RevC.01\State=1-A'\HF=-423.4808282\RMSD=1.382e-02\Dipole
 =0.4565346,-0.6346352,0.\Quadrupole=-0.4391906,-0.1047157,0.5439063,4.
 87748,0.,0.\PG=CS [SG(C7H2O2),X(H12)]\\@


 NECESSARY EVIL: ONE WE LIKE TOO MUCH TO RELINQUISH.
 Job cpu time:       0 days  0 hours  1 minutes 52.3 seconds.
 Elapsed time:       0 days  0 hours  0 minutes  8.6 seconds.
 File lengths (MBytes):  RWF=     19 Int=      0 D2E=      0 Chk=     14 Scr=      1
 Normal termination of Gaussian 16 at Sat Apr  5 23:16:00 2025.
