
                                 *****************
                                 * O   R   C   A *
                                 *****************

                                            #,                                       
                                            ###                                      
                                            ####                                     
                                            #####                                    
                                            ######                                   
                                           ########,                                 
                                     ,,################,,,,,                         
                               ,,#################################,,                 
                          ,,##########################################,,             
                       ,#########################################, ''#####,          
                    ,#############################################,,   '####,        
                  ,##################################################,,,,####,       
                ,###########''''           ''''###############################       
              ,#####''   ,,,,##########,,,,          '''####'''          '####       
            ,##' ,,,,###########################,,,                        '##       
           ' ,,###''''                  '''############,,,                           
         ,,##''                                '''############,,,,        ,,,,,,###''
      ,#''                                            '''#######################'''  
     '                                                          ''''####''''         
             ,#######,   #######,   ,#######,      ##                                
            ,#'     '#,  ##    ##  ,#'     '#,    #''#        ######   ,####,        
            ##       ##  ##   ,#'  ##            #'  '#       #        #'  '#        
            ##       ##  #######   ##           ,######,      #####,   #    #        
            '#,     ,#'  ##    ##  '#,     ,#' ,#      #,         ##   #,  ,#        
             '#######'   ##     ##  '#######'  #'      '#     #####' # '####'        



                  #######################################################
                  #                        -***-                        #
                  #          Department of theory and spectroscopy      #
                  #    Directorship and core code : Frank Neese         #
                  #        Max Planck Institute fuer Kohlenforschung    #
                  #                Kaiser Wilhelm Platz 1               #
                  #                 D-45470 Muelheim/Ruhr               #
                  #                      Germany                        #
                  #                                                     #
                  #                  All rights reserved                #
                  #                        -***-                        #
                  #######################################################


                         Program Version 5.0.3 -  RELEASE  -


 With contributions from (in alphabetic order):
   Daniel Aravena         : Magnetic Suceptibility
   Michael Atanasov       : Ab Initio Ligand Field Theory (pilot matlab implementation)
   Alexander A. Auer      : GIAO ZORA, VPT2 properties, NMR spectrum
   Ute Becker             : Parallelization
   Giovanni Bistoni       : ED, misc. LED, open-shell LED, HFLD
   Martin Brehm           : Molecular dynamics
   Dmytro Bykov           : SCF Hessian
   Vijay G. Chilkuri      : MRCI spin determinant printing, contributions to CSF-ICE
   Dipayan Datta          : RHF DLPNO-CCSD density
   Achintya Kumar Dutta   : EOM-CC, STEOM-CC
   Dmitry Ganyushin       : Spin-Orbit,Spin-Spin,Magnetic field MRCI
   Miquel Garcia          : C-PCM and meta-GGA Hessian, CC/C-PCM, Gaussian charge scheme
   Yang Guo               : DLPNO-NEVPT2, F12-NEVPT2, CIM, IAO-localization
   Andreas Hansen         : Spin unrestricted coupled pair/coupled cluster methods
   Benjamin Helmich-Paris : MC-RPA, TRAH-SCF, COSX integrals
   Lee Huntington         : MR-EOM, pCC
   Robert Izsak           : Overlap fitted RIJCOSX, COSX-SCS-MP3, EOM
   Marcus Kettner         : VPT2
   Christian Kollmar      : KDIIS, OOCD, Brueckner-CCSD(T), CCSD density, CASPT2, CASPT2-K
   Simone Kossmann        : Meta GGA functionals, TD-DFT gradient, OOMP2, MP2 Hessian
   Martin Krupicka        : Initial AUTO-CI
   Lucas Lang             : DCDCAS
   Marvin Lechner         : AUTO-CI (C++ implementation), FIC-MRCC
   Dagmar Lenk            : GEPOL surface, SMD
   Dimitrios Liakos       : Extrapolation schemes; Compound Job, initial MDCI parallelization
   Dimitrios Manganas     : Further ROCIS development; embedding schemes
   Dimitrios Pantazis     : SARC Basis sets
   Anastasios Papadopoulos: AUTO-CI, single reference methods and gradients
   Taras Petrenko         : DFT Hessian,TD-DFT gradient, ASA, ECA, R-Raman, ABS, FL, XAS/XES, NRVS
   Peter Pinski           : DLPNO-MP2, DLPNO-MP2 Gradient
   Christoph Reimann      : Effective Core Potentials
   Marius Retegan         : Local ZFS, SOC
   Christoph Riplinger    : Optimizer, TS searches, QM/MM, DLPNO-CCSD(T), (RO)-DLPNO pert. Triples
   Tobias Risthaus        : Range-separated hybrids, TD-DFT gradient, RPA, STAB
   Michael Roemelt        : Original ROCIS implementation
   Masaaki Saitow         : Open-shell DLPNO-CCSD energy and density
   Barbara Sandhoefer     : DKH picture change effects
   Avijit Sen             : IP-ROCIS
   Kantharuban Sivalingam : CASSCF convergence, NEVPT2, FIC-MRCI
   Bernardo de Souza      : ESD, SOC TD-DFT
   Georgi Stoychev        : AutoAux, RI-MP2 NMR, DLPNO-MP2 response
   Willem Van den Heuvel  : Paramagnetic NMR
   Boris Wezisla          : Elementary symmetry handling
   Frank Wennmohs         : Technical directorship


 We gratefully acknowledge several colleagues who have allowed us to
 interface, adapt or use parts of their codes:
   Stefan Grimme, W. Hujo, H. Kruse, P. Pracht,  : VdW corrections, initial TS optimization,
                  C. Bannwarth, S. Ehlert          DFT functionals, gCP, sTDA/sTD-DF
   Ed Valeev, F. Pavosevic, A. Kumar             : LibInt (2-el integral package), F12 methods
   Garnet Chan, S. Sharma, J. Yang, R. Olivares  : DMRG
   Ulf Ekstrom                                   : XCFun DFT Library
   Mihaly Kallay                                 : mrcc  (arbitrary order and MRCC methods)
   Jiri Pittner, Ondrej Demel                    : Mk-CCSD
   Frank Weinhold                                : gennbo (NPA and NBO analysis)
   Christopher J. Cramer and Donald G. Truhlar   : smd solvation model
   Lars Goerigk                                  : TD-DFT with DH, B97 family of functionals
   V. Asgeirsson, H. Jonsson                     : NEB implementation
   FAccTs GmbH                                   : IRC, NEB, NEB-TS, DLPNO-Multilevel, CI-OPT
                                                   MM, QMMM, 2- and 3-layer-ONIOM, Crystal-QMMM,
                                                   LR-CPCM, SF, NACMEs, symmetry and pop. for TD-DFT,
                                                   nearIR, NL-DFT gradient (VV10), updates on ESD,
                                                   ML-optimized integration grids
   S Lehtola, MJT Oliveira, MAL Marques          : LibXC Library
   Liviu Ungur et al                             : ANISO software


 Your calculation uses the libint2 library for the computation of 2-el integrals
 For citations please refer to: http://libint.valeyev.net

 Your ORCA version has been built with support for libXC version: 5.1.0
 For citations please refer to: https://tddft.org/programs/libxc/

 This ORCA versions uses:
   CBLAS   interface :  Fast vector & matrix operations
   LAPACKE interface :  Fast linear algebra routines
   SCALAPACK package :  Parallel linear algebra routines
   Shared memory     :  Shared parallel matrices
   BLAS/LAPACK       :  OpenBLAS 0.3.15  USE64BITINT DYNAMIC_ARCH NO_AFFINITY SkylakeX SINGLE_THREADED
        Core in use  :  SkylakeX
   Copyright (c) 2011-2014, The OpenBLAS Project


================================================================================

----- Orbital basis set information -----
Your calculation utilizes the basis: aug-cc-pVDZ 
    H, B-Ne : Obtained from the ccRepo (grant-hill.group.shef.ac.uk/ccrepo) Feb. 2017
              R. A. Kendall, T. H. Dunning, Jr., R. J. Harrison, J. Chem. Phys. 96, 6796 (1992)
         He : Obtained from the ccRepo (grant-hill.group.shef.ac.uk/ccrepo) Feb. 2017
              D. E. Woon, T. H. Dunning, Jr., J. Chem. Phys. 100, 2975 (1994)
  Li-Be, Na : Obtained from the ccRepo (grant-hill.group.shef.ac.uk/ccrepo) Feb. 2017
              B. P. Prascher, D. E. Woon, K. A. Peterson, T. H. Dunning, Jr., A. K. Wilson, Theor. Chem. Acc. 128, 69 (2011)
         Mg : Obtained from the Peterson Research Group Website (tyr0.chem.wsu.edu/~kipeters) Feb. 2017
              B. P. Prascher, D. E. Woon, K. A. Peterson, T. H. Dunning, Jr., A. K. Wilson, Theor. Chem. Acc. 128, 69 (2011)
      Al-Ar : Obtained from the ccRepo (grant-hill.group.shef.ac.uk/ccrepo) Feb. 2017
              D. E. Woon, T. H. Dunning, Jr., J. Chem. Phys. 98, 1358 (1993)
      Sc-Zn : Obtained from the ccRepo (grant-hill.group.shef.ac.uk/ccrepo) Feb. 2017
              N. B. Balabanov, K. A. Peterson, J. Chem. Phys. 123, 064107 (2005)
              N. B. Balabanov, K. A. Peterson, J. Chem. Phys. 125, 074110 (2006)
      Ga-Kr : Obtained from the ccRepo (grant-hill.group.shef.ac.uk/ccrepo) Feb. 2017
              A. K. Wilson, D. E. Woon, K. A. Peterson, T. H. Dunning, Jr., J. Chem. Phys. 110, 7667 (1999)

----- AuxC basis set information -----
Your calculation utilizes the auxiliary basis: aug-cc-pVDZ/C 
  H-He, B, Ne, Al-Ar, Ga-Ge, Se-Br : Obtained from the EMSL Basis Set Exchange (bse.pnl.gov) Feb. 2017
                                     F. Weigend, A. Kohn, C. Hattig, J. Chem. Phys. 116, 3175 (2002)
                            Be, Mg : Obtained from the TURBOMOLE 7.0 basis set library
                                     C. Haettig, Phys. Chem. Chem. Phys. 7, 59 (2005)
                               C-F : Obtained from the EMSL Basis Set Exchange (bse.pnl.gov) Feb. 2017
                                     C. Haettig, Phys. Chem. Chem. Phys. 7, 59 (2005)
                                     F. Weigend, A. Kohn, C. Hattig, J. Chem. Phys. 116, 3175 (2002)
                                As : Obtained from the EMSL Basis Set Exchange (bse.pnl.gov) Feb. 2017
                                     C. Haettig, G. Schmitz, J. Kossmann, Phys. Chem. Chem. Phys. 14, 6549 (2012)
                                Kr : Obtained from the TURBOMOLE 7.0 basis set library
                                     F. Weigend, A. Kohn, C. Hattig, J. Chem. Phys. 116, 3175 (2002)
                                     S function revised in Sep. 2009

================================================================================
                                        WARNINGS
                       Please study these warnings very carefully!
================================================================================


WARNING: No MP2 level density has been requested!
         To caclulate MP2 level properties use
         %mp2 Density relaxed end
         or
         %mp2 Density unrelaxed end

WARNING: Post HF methods need fully converged wavefunctions
  ===> : Setting SCFConvForced true
         You can overwrite this default with %scf ConvForced false 


INFO   : the flag for use of the SHARK integral package has been found!

================================================================================
                                       INPUT FILE
================================================================================
NAME = DZ_1,3-dithiane-2-thione.inp
|  1> !ri-mp2 aug-cc-pvdz aug-cc-pvdz/c tightscf
|  2> %pal nprocs 16 end
|  3> 
|  4> * xyz 0 1
|  5> S     -0.195948    2.519947    0.000000
|  6> C     -0.116097    0.874513    0.000000
|  7> S     -0.033616    0.069956    1.548701
|  8> C     -0.033616   -1.749646    1.260469
|  9> C      0.684442   -2.198644    0.000000
| 10> C     -0.033616   -1.749646   -1.260469
| 11> S     -0.033616    0.069956   -1.548701
| 12> H      0.452909   -2.143490    2.151791
| 13> H     -1.066908   -2.096687    1.261615
| 14> H      1.716281   -1.844930    0.000000
| 15> H      0.715928   -3.291933    0.000000
| 16> H      0.452909   -2.143490   -2.151791
| 17> H     -1.066908   -2.096687   -1.261615
| 18> *
| 19> 
| 20>                          ****END OF INPUT****
================================================================================

                       ****************************
                       * Single Point Calculation *
                       ****************************

---------------------------------
CARTESIAN COORDINATES (ANGSTROEM)
---------------------------------
  S     -0.195948    2.519947    0.000000
  C     -0.116097    0.874513    0.000000
  S     -0.033616    0.069956    1.548701
  C     -0.033616   -1.749646    1.260469
  C      0.684442   -2.198644    0.000000
  C     -0.033616   -1.749646   -1.260469
  S     -0.033616    0.069956   -1.548701
  H      0.452909   -2.143490    2.151791
  H     -1.066908   -2.096687    1.261615
  H      1.716281   -1.844930    0.000000
  H      0.715928   -3.291933    0.000000
  H      0.452909   -2.143490   -2.151791
  H     -1.066908   -2.096687   -1.261615

----------------------------
CARTESIAN COORDINATES (A.U.)
----------------------------
  NO LB      ZA    FRAG     MASS         X           Y           Z
   0 S    16.0000    0    32.060   -0.370288    4.762010    0.000000
   1 C     6.0000    0    12.011   -0.219392    1.652590    0.000000
   2 S    16.0000    0    32.060   -0.063525    0.132198    2.926621
   3 C     6.0000    0    12.011   -0.063525   -3.306352    2.381941
   4 C     6.0000    0    12.011    1.293408   -4.154835    0.000000
   5 C     6.0000    0    12.011   -0.063525   -3.306352   -2.381941
   6 S    16.0000    0    32.060   -0.063525    0.132198   -2.926621
   7 H     1.0000    0     1.008    0.855874   -4.050609    4.066296
   8 H     1.0000    0     1.008   -2.016164   -3.962164    2.384107
   9 H     1.0000    0     1.008    3.243301   -3.486412    0.000000
  10 H     1.0000    0     1.008    1.352908   -6.220852    0.000000
  11 H     1.0000    0     1.008    0.855874   -4.050609   -4.066296
  12 H     1.0000    0     1.008   -2.016164   -3.962164   -2.384107

--------------------------------
INTERNAL COORDINATES (ANGSTROEM)
--------------------------------
 S      0   0   0     0.000000000000     0.00000000     0.00000000
 C      1   0   0     1.647370398713     0.00000000     0.00000000
 S      2   1   0     1.747166239661   117.53171442     0.00000000
 C      3   2   1     1.842289098982   108.42967734   177.37349145
 C      4   3   2     1.518548186700   114.95450369    34.28841766
 C      5   4   3     1.518548186700   112.20748899   292.53044469
 S      2   1   3     1.747166239661   117.53171442   183.20935934
 H      4   3   2     1.089162329336   103.24499342   155.53586135
 H      4   3   2     1.090014278008   108.31836889   269.78174582
 H      5   4   3     1.090781974419   110.57454533    56.49541135
 H      5   4   3     1.093742294015   108.00895603   173.59283069
 H      6   5   4     1.089162329336   111.16983535   184.29076415
 H      6   5   4     1.090014278008   110.79260949   304.27332679

---------------------------
INTERNAL COORDINATES (A.U.)
---------------------------
 S      0   0   0     0.000000000000     0.00000000     0.00000000
 C      1   0   0     3.113078894697     0.00000000     0.00000000
 S      2   1   0     3.301665703392   117.53171442     0.00000000
 C      3   2   1     3.481421856585   108.42967734   177.37349145
 C      4   3   2     2.869640194025   114.95450369    34.28841766
 C      5   4   3     2.869640194025   112.20748899   292.53044469
 S      2   1   3     3.301665703392   117.53171442   183.20935934
 H      4   3   2     2.058218517829   103.24499342   155.53586135
 H      4   3   2     2.059828467499   108.31836889   269.78174582
 H      5   4   3     2.061279203469   110.57454533    56.49541135
 H      5   4   3     2.066873396775   108.00895603   173.59283069
 H      6   5   4     2.058218517829   111.16983535   184.29076415
 H      6   5   4     2.059828467499   110.79260949   304.27332679

---------------------
BASIS SET INFORMATION
---------------------
There are 3 groups of distinct atoms

 Group   1 Type S   : 35s16p2d contracted to 5s4p2d pattern {11111111/7711/11}
 Group   2 Type C   : 18s5p2d contracted to 4s3p2d pattern {8811/311/11}
 Group   3 Type H   : 5s2p contracted to 3s2p pattern {311/11}

Atom   0S    basis set group =>   1
Atom   1C    basis set group =>   2
Atom   2S    basis set group =>   1
Atom   3C    basis set group =>   2
Atom   4C    basis set group =>   2
Atom   5C    basis set group =>   2
Atom   6S    basis set group =>   1
Atom   7H    basis set group =>   3
Atom   8H    basis set group =>   3
Atom   9H    basis set group =>   3
Atom  10H    basis set group =>   3
Atom  11H    basis set group =>   3
Atom  12H    basis set group =>   3
---------------------------------
AUXILIARY/C BASIS SET INFORMATION
---------------------------------
There are 3 groups of distinct atoms

 Group   1 Type S   : 10s8p6d4f contracted to 10s8p6d4f pattern {1111111111/11111111/111111/1111}
 Group   2 Type C   : 8s6p5d3f contracted to 8s6p5d3f pattern {11111111/111111/11111/111}
 Group   3 Type H   : 4s3p2d contracted to 4s3p2d pattern {1111/111/11}

Atom   0S    basis set group =>   1
Atom   1C    basis set group =>   2
Atom   2S    basis set group =>   1
Atom   3C    basis set group =>   2
Atom   4C    basis set group =>   2
Atom   5C    basis set group =>   2
Atom   6S    basis set group =>   1
Atom   7H    basis set group =>   3
Atom   8H    basis set group =>   3
Atom   9H    basis set group =>   3
Atom  10H    basis set group =>   3
Atom  11H    basis set group =>   3
Atom  12H    basis set group =>   3


           ************************************************************
           *        Program running with 16 parallel MPI-processes    *
           *              working on a common directory               *
           ************************************************************
------------------------------------------------------------------------------
                           ORCA GTO INTEGRAL CALCULATION
------------------------------------------------------------------------------
------------------------------------------------------------------------------
                   ___                                                        
                  /   \      - P O W E R E D   B Y -                         
                 /     \                                                     
                 |  |  |   _    _      __       _____    __    __             
                 |  |  |  | |  | |    /  \     |  _  \  |  |  /  |          
                  \  \/   | |  | |   /    \    | | | |  |  | /  /          
                 / \  \   | |__| |  /  /\  \   | |_| |  |  |/  /          
                |  |  |   |  __  | /  /__\  \  |    /   |      \           
                |  |  |   | |  | | |   __   |  |    \   |  |\   \          
                \     /   | |  | | |  |  |  |  | |\  \  |  | \   \       
                 \___/    |_|  |_| |__|  |__|  |_| \__\ |__|  \__/        
                                                                              
                      - O R C A' S   B I G   F R I E N D -                    
                                      &                                       
                       - I N T E G R A L  F E E D E R -                       
                                                                              
 v1 FN, 2020, v2 2021                                                         
------------------------------------------------------------------------------


Reading SHARK input file DZ_1,3-dithiane-2-thione.SHARKINP.tmp ... ok
----------------------
SHARK INTEGRAL PACKAGE
----------------------

Number of atoms                             ...     13
Number of basis functions                   ...    320
Number of shells                            ...    162
Maximum angular momentum                    ...      2
Integral batch strategy                     ... SHARK/LIBINT Hybrid
RI-J (if used) integral strategy            ... SPLIT-RIJ (Revised 2003 algorithm where possible)
Printlevel                                  ...      1
Contraction scheme used                     ... PARTIAL GENERAL contraction
Coulomb Range Separation                    ... NOT USED
Exchange Range Separation                   ... NOT USED
Finite Nucleus Model                        ... NOT USED
Auxiliary Coulomb fitting basis             ... NOT available
Auxiliary J/K fitting basis                 ... NOT available
Auxiliary Correlation fitting basis         ... AVAILABLE
   # of basis functions in Aux-C            ...    702
   # of shells in Aux-C                     ...    226
   Maximum angular momentum in Aux-C        ...      3
Auxiliary 'external' fitting basis          ... NOT available
Integral threshold                          ...     2.500000e-11
Primitive cut-off                           ...     2.500000e-12
Primitive pair pre-selection threshold      ...     2.500000e-12

Calculating pre-screening integrals         ... done (  0.0 sec) Dimension = 162
Calculating pre-screening integrals (ORCA)  ... done (  0.1 sec) Dimension = 99
Organizing shell pair data                  ... done (  0.1 sec)
Shell pair information
Total number of shell pairs                 ...     13203
Shell pairs after pre-screening             ...     10348
Total number of primitive shell pairs       ...     16683
Primitive shell pairs kept                  ...     12406
          la=0 lb=0:   3239 shell pairs
          la=1 lb=0:   3862 shell pairs
          la=1 lb=1:   1136 shell pairs
          la=2 lb=0:   1309 shell pairs
          la=2 lb=1:    697 shell pairs
          la=2 lb=2:    105 shell pairs

Calculating one electron integrals          ... done (  0.0 sec)
Calculating RI/C V-Matrix + Cholesky decomp.... done (  0.0 sec)
Calculating Nuclear repulsion               ... done (  0.0 sec) ENN=    517.081116509818 Eh

SHARK setup successfully completed in   0.3 seconds

Maximum memory used throughout the entire GTOINT-calculation: 32.5 MB


           ************************************************************
           *        Program running with 16 parallel MPI-processes    *
           *              working on a common directory               *
           ************************************************************
-------------------------------------------------------------------------------
                                 ORCA SCF
-------------------------------------------------------------------------------

------------
SCF SETTINGS
------------
Hamiltonian:
 Ab initio Hamiltonian  Method          .... Hartree-Fock(GTOs)


General Settings:
 Integral files         IntName         .... DZ_1,3-dithiane-2-thione
 Hartree-Fock type      HFTyp           .... RHF
 Total Charge           Charge          ....    0
 Multiplicity           Mult            ....    1
 Number of Electrons    NEL             ....   78
 Basis Dimension        Dim             ....  227
 Nuclear Repulsion      ENuc            ....    517.0811165098 Eh

Convergence Acceleration:
 DIIS                   CNVDIIS         .... on
   Start iteration      DIISMaxIt       ....    12
   Startup error        DIISStart       ....  0.200000
   # of expansion vecs  DIISMaxEq       ....     5
   Bias factor          DIISBfac        ....   1.050
   Max. coefficient     DIISMaxC        ....  10.000
 Trust-Rad. Augm. Hess. CNVTRAH         .... auto
   Auto Start mean grad. ratio tolernc. ....  1.125000
   Auto Start start iteration           ....    20
   Auto Start num. interpolation iter.  ....    10
   Max. Number of Micro iterations      ....    16
   Max. Number of Macro iterations      .... Maxiter - #DIIS iter
   Number of Davidson start vectors     ....     2
   Converg. threshold I  (grad. norm)   ....   1.000e-05
   Converg. threshold II (energy diff.) ....   1.000e-08
   Grad. Scal. Fac. for Micro threshold ....   0.100
   Minimum threshold for Micro iter.    ....   0.010
   NR start threshold (gradient norm)   ....   0.001
   Initial trust radius                 ....   0.400
   Minimum AH scaling param. (alpha)    ....   1.000
   Maximum AH scaling param. (alpha)    .... 1000.000
   Orbital update algorithm             .... Taylor
   White noise on init. David. guess    .... on
   Maximum white noise                  ....   0.010
   Quad. conv. algorithm                .... NR
 SOSCF                  CNVSOSCF        .... on
   Start iteration      SOSCFMaxIt      ....   150
   Startup grad/error   SOSCFStart      ....  0.003300
 Level Shifting         CNVShift        .... on
   Level shift para.    LevelShift      ....    0.2500
   Turn off err/grad.   ShiftErr        ....    0.0010
 Zerner damping         CNVZerner       .... off
 Static damping         CNVDamp         .... on
   Fraction old density DampFac         ....    0.7000
   Max. Damping (<1)    DampMax         ....    0.9800
   Min. Damping (>=0)   DampMin         ....    0.0000
   Turn off err/grad.   DampErr         ....    0.1000
 Fernandez-Rico         CNVRico         .... off

SCF Procedure:
 Maximum # iterations   MaxIter         ....   125
 SCF integral mode      SCFMode         .... Direct
   Integral package                     .... SHARK and LIBINT hybrid scheme
 Reset frequency        DirectResetFreq ....    20
 Integral Threshold     Thresh          ....  2.500e-11 Eh
 Primitive CutOff       TCut            ....  2.500e-12 Eh

Convergence Tolerance:
 Convergence Check Mode ConvCheckMode   .... Total+1el-Energy
 Convergence forced     ConvForced      .... 1
 Energy Change          TolE            ....  1.000e-08 Eh
 1-El. energy change                    ....  1.000e-05 Eh
 Orbital Gradient       TolG            ....  1.000e-05
 Orbital Rotation angle TolX            ....  1.000e-05
 DIIS Error             TolErr          ....  5.000e-07


Diagonalization of the overlap matrix:
Smallest eigenvalue                        ... 4.261e-05
Time for diagonalization                   ...    0.007 sec
Threshold for overlap eigenvalues          ... 1.000e-08
Number of eigenvalues below threshold      ... 0
Time for construction of square roots      ...    0.006 sec
Total time needed                          ...    0.013 sec

Time for model grid setup =    0.064 sec

------------------------------
INITIAL GUESS: MODEL POTENTIAL
------------------------------
Loading Hartree-Fock densities                     ... done
Calculating cut-offs                               ... done
Initializing the effective Hamiltonian             ... done
Setting up the integral package (SHARK)            ... done
Starting the Coulomb interaction                   ... done (   0.0 sec)
Reading the grid                                   ... done
Mapping shells                                     ... done
Starting the XC term evaluation                    ... done (   0.0 sec)
Transforming the Hamiltonian                       ... done (   0.0 sec)
Diagonalizing the Hamiltonian                      ... done (   0.0 sec)
Back transforming the eigenvectors                 ... done (   0.0 sec)
Now organizing SCF variables                       ... done
                      ------------------
                      INITIAL GUESS DONE (   0.2 sec)
                      ------------------
--------------
SCF ITERATIONS
--------------
ITER       Energy         Delta-E        Max-DP      RMS-DP      [F,P]     Damp
               ***  Starting incremental Fock matrix formation  ***
  0  -1347.3414519494   0.000000000000 0.12169931  0.00327181  0.1664407 0.7000
  1  -1347.4130236372  -0.071571687843 0.08700692  0.00249421  0.1087711 0.7000
                               ***Turning on DIIS***
  2  -1347.4583458091  -0.045322171901 0.21027473  0.00594650  0.0655579 0.0000
  3  -1347.1498819919   0.308463817242 0.02845536  0.00078601  0.0238697 0.0000
  4  -1347.5705636199  -0.420681628012 0.01805151  0.00043977  0.0107667 0.0000
  5  -1347.5546706781   0.015892941806 0.00815334  0.00021399  0.0056817 0.0000
  6  -1347.5557689349  -0.001098256861 0.00474378  0.00010319  0.0038895 0.0000
                      *** Initiating the SOSCF procedure ***
                           *** Shutting down DIIS ***
                      *** Re-Reading the Fockian *** 
                      *** Removing any level shift *** 
ITER      Energy       Delta-E        Grad      Rot      Max-DP    RMS-DP
  7  -1347.56610122  -0.0103322867  0.001422  0.001422  0.002467  0.000064
               *** Restarting incremental Fock matrix formation ***
  8  -1347.56137167   0.0047295494  0.000672  0.001779  0.001291  0.000034
  9  -1347.56138572  -0.0000140448  0.000363  0.002611  0.002098  0.000052
 10  -1347.56139250  -0.0000067873  0.000185  0.000209  0.000427  0.000012
 11  -1347.56139322  -0.0000007186  0.000073  0.000118  0.000161  0.000004
 12  -1347.56139332  -0.0000000995  0.000019  0.000046  0.000104  0.000002
 13  -1347.56139334  -0.0000000224  0.000009  0.000032  0.000069  0.000001
                  ***Gradient check signals convergence***
              ***Rediagonalizing the Fockian in SOSCF/NRSCF***

               *****************************************************
               *                     SUCCESS                       *
               *           SCF CONVERGED AFTER  14 CYCLES          *
               *****************************************************


----------------
TOTAL SCF ENERGY
----------------

Total Energy       :        -1347.56139335 Eh          -36669.00973 eV

Components:
Nuclear Repulsion  :          517.08111651 Eh           14070.49251 eV
Electronic Energy  :        -1864.64250986 Eh          -50739.50224 eV
One Electron Energy:        -2886.82508994 Eh          -78554.50433 eV
Two Electron Energy:         1022.18258008 Eh           27815.00209 eV

Virial components:
Potential Energy   :        -2694.92888979 Eh          -73332.74326 eV
Kinetic Energy     :         1347.36749644 Eh           36663.73353 eV
Virial Ratio       :            2.00014391


---------------
SCF CONVERGENCE
---------------

  Last Energy change         ...   -3.5566e-09  Tolerance :   1.0000e-08
  Last MAX-Density change    ...    1.2017e-05  Tolerance :   1.0000e-07
  Last RMS-Density change    ...    2.7836e-07  Tolerance :   5.0000e-09
  Last Orbital Gradient      ...    1.9921e-06  Tolerance :   1.0000e-05
  Last Orbital Rotation      ...    2.5268e-06  Tolerance :   1.0000e-05

             **** THE GBW FILE WAS UPDATED (DZ_1,3-dithiane-2-thione.gbw) ****
             **** DENSITY DZ_1,3-dithiane-2-thione.scfp WAS UPDATED ****
             **** ENERGY FILE WAS UPDATED (DZ_1,3-dithiane-2-thione.en.tmp) ****
             **** THE GBW FILE WAS UPDATED (DZ_1,3-dithiane-2-thione.gbw) ****
             **** DENSITY DZ_1,3-dithiane-2-thione.scfp WAS UPDATED ****
----------------
ORBITAL ENERGIES
----------------

  NO   OCC          E(Eh)            E(eV) 
   0   2.0000     -91.994539     -2503.2987 
   1   2.0000     -91.994538     -2503.2986 
   2   2.0000     -91.924106     -2501.3821 
   3   2.0000     -11.377513      -309.5979 
   4   2.0000     -11.296477      -307.3928 
   5   2.0000     -11.296471      -307.3926 
   6   2.0000     -11.274426      -306.7927 
   7   2.0000      -8.996355      -244.8033 
   8   2.0000      -8.996341      -244.8029 
   9   2.0000      -8.927353      -242.9256 
  10   2.0000      -6.678200      -181.7231 
  11   2.0000      -6.678197      -181.7230 
  12   2.0000      -6.676233      -181.6695 
  13   2.0000      -6.676232      -181.6695 
  14   2.0000      -6.674605      -181.6252 
  15   2.0000      -6.674604      -181.6252 
  16   2.0000      -6.609407      -179.8511 
  17   2.0000      -6.606940      -179.7840 
  18   2.0000      -6.605539      -179.7458 
  19   2.0000      -1.165290       -31.7092 
  20   2.0000      -1.093131       -29.7456 
  21   2.0000      -1.053651       -28.6713 
  22   2.0000      -0.948182       -25.8013 
  23   2.0000      -0.900500       -24.5038 
  24   2.0000      -0.838693       -22.8220 
  25   2.0000      -0.711444       -19.3594 
  26   2.0000      -0.659048       -17.9336 
  27   2.0000      -0.628649       -17.1064 
  28   2.0000      -0.619416       -16.8552 
  29   2.0000      -0.609949       -16.5976 
  30   2.0000      -0.543939       -14.8013 
  31   2.0000      -0.543795       -14.7974 
  32   2.0000      -0.525623       -14.3029 
  33   2.0000      -0.493147       -13.4192 
  34   2.0000      -0.457972       -12.4620 
  35   2.0000      -0.442469       -12.0402 
  36   2.0000      -0.376019       -10.2320 
  37   2.0000      -0.333037        -9.0624 
  38   2.0000      -0.327868        -8.9217 
  39   0.0000       0.023374         0.6360 
  40   0.0000       0.037649         1.0245 
  41   0.0000       0.039325         1.0701 
  42   0.0000       0.049766         1.3542 
  43   0.0000       0.053569         1.4577 
  44   0.0000       0.064018         1.7420 
  45   0.0000       0.065980         1.7954 
  46   0.0000       0.081975         2.2307 
  47   0.0000       0.092400         2.5143 
  48   0.0000       0.105090         2.8596 
  49   0.0000       0.111985         3.0473 
  50   0.0000       0.125951         3.4273 
  51   0.0000       0.132366         3.6019 
  52   0.0000       0.134910         3.6711 
  53   0.0000       0.137925         3.7531 
  54   0.0000       0.146650         3.9905 
  55   0.0000       0.147188         4.0052 
  56   0.0000       0.148913         4.0521 
  57   0.0000       0.159870         4.3503 
  58   0.0000       0.160031         4.3547 
  59   0.0000       0.168620         4.5884 
  60   0.0000       0.173254         4.7145 
  61   0.0000       0.180925         4.9232 
  62   0.0000       0.187482         5.1016 
  63   0.0000       0.190441         5.1822 
  64   0.0000       0.191870         5.2211 
  65   0.0000       0.196087         5.3358 
  66   0.0000       0.208300         5.6681 
  67   0.0000       0.209092         5.6897 
  68   0.0000       0.223846         6.0912 
  69   0.0000       0.230792         6.2802 
  70   0.0000       0.233706         6.3595 
  71   0.0000       0.240806         6.5527 
  72   0.0000       0.250115         6.8060 
  73   0.0000       0.263414         7.1678 
  74   0.0000       0.280912         7.6440 
  75   0.0000       0.292254         7.9526 
  76   0.0000       0.300053         8.1649 
  77   0.0000       0.313616         8.5339 
  78   0.0000       0.315082         8.5738 
  79   0.0000       0.323219         8.7952 
  80   0.0000       0.337103         9.1730 
  81   0.0000       0.349674         9.5151 
  82   0.0000       0.354455         9.6452 
  83   0.0000       0.357709         9.7337 
  84   0.0000       0.384540        10.4639 
  85   0.0000       0.393551        10.7091 
  86   0.0000       0.406751        11.0682 
  87   0.0000       0.415837        11.3155 
  88   0.0000       0.423142        11.5143 
  89   0.0000       0.432707        11.7745 
  90   0.0000       0.439028        11.9466 
  91   0.0000       0.441764        12.0210 
  92   0.0000       0.455305        12.3895 
  93   0.0000       0.464827        12.6486 
  94   0.0000       0.467345        12.7171 
  95   0.0000       0.479202        13.0398 
  96   0.0000       0.487324        13.2607 
  97   0.0000       0.490504        13.3473 
  98   0.0000       0.493764        13.4360 
  99   0.0000       0.503154        13.6915 
 100   0.0000       0.516643        14.0586 
 101   0.0000       0.525224        14.2921 
 102   0.0000       0.536816        14.6075 
 103   0.0000       0.549550        14.9540 
 104   0.0000       0.556528        15.1439 
 105   0.0000       0.567676        15.4473 
 106   0.0000       0.580776        15.8037 
 107   0.0000       0.587451        15.9854 
 108   0.0000       0.591672        16.1002 
 109   0.0000       0.595625        16.2078 
 110   0.0000       0.607603        16.5337 
 111   0.0000       0.627574        17.0772 
 112   0.0000       0.641638        17.4598 
 113   0.0000       0.657296        17.8859 
 114   0.0000       0.670599        18.2479 
 115   0.0000       0.677427        18.4337 
 116   0.0000       0.680395        18.5145 
 117   0.0000       0.700781        19.0692 
 118   0.0000       0.710953        19.3460 
 119   0.0000       0.713628        19.4188 
 120   0.0000       0.713684        19.4203 
 121   0.0000       0.721269        19.6267 
 122   0.0000       0.738115        20.0851 
 123   0.0000       0.761582        20.7237 
 124   0.0000       0.769477        20.9385 
 125   0.0000       0.779788        21.2191 
 126   0.0000       0.788478        21.4556 
 127   0.0000       0.793272        21.5860 
 128   0.0000       0.800232        21.7754 
 129   0.0000       0.805373        21.9153 
 130   0.0000       0.810918        22.0662 
 131   0.0000       0.852398        23.1949 
 132   0.0000       0.857578        23.3359 
 133   0.0000       0.873241        23.7621 
 134   0.0000       0.874233        23.7891 
 135   0.0000       0.878217        23.8975 
 136   0.0000       0.902202        24.5502 
 137   0.0000       0.926414        25.2090 
 138   0.0000       0.929913        25.3042 
 139   0.0000       0.950007        25.8510 
 140   0.0000       0.954712        25.9790 
 141   0.0000       0.991455        26.9788 
 142   0.0000       0.997286        27.1375 
 143   0.0000       1.008702        27.4482 
 144   0.0000       1.011518        27.5248 
 145   0.0000       1.042281        28.3619 
 146   0.0000       1.077785        29.3280 
 147   0.0000       1.099734        29.9253 
 148   0.0000       1.100911        29.9573 
 149   0.0000       1.111038        30.2329 
 150   0.0000       1.118418        30.4337 
 151   0.0000       1.164482        31.6872 
 152   0.0000       1.164978        31.7007 
 153   0.0000       1.182830        32.1864 
 154   0.0000       1.193487        32.4764 
 155   0.0000       1.199574        32.6421 
 156   0.0000       1.203552        32.7503 
 157   0.0000       1.227236        33.3948 
 158   0.0000       1.227453        33.4007 
 159   0.0000       1.236580        33.6491 
 160   0.0000       1.254475        34.1360 
 161   0.0000       1.256841        34.2004 
 162   0.0000       1.277565        34.7643 
 163   0.0000       1.292648        35.1747 
 164   0.0000       1.321940        35.9718 
 165   0.0000       1.321996        35.9733 
 166   0.0000       1.333938        36.2983 
 167   0.0000       1.339491        36.4494 
 168   0.0000       1.345166        36.6038 
 169   0.0000       1.404343        38.2141 
 170   0.0000       1.433067        38.9957 
 171   0.0000       1.437276        39.1103 
 172   0.0000       1.487119        40.4666 
 173   0.0000       1.496263        40.7154 
 174   0.0000       1.506416        40.9917 
 175   0.0000       1.543985        42.0140 
 176   0.0000       1.547637        42.1133 
 177   0.0000       1.575109        42.8609 
 178   0.0000       1.644051        44.7369 
 179   0.0000       1.647242        44.8237 
 180   0.0000       1.656658        45.0800 
 181   0.0000       1.749829        47.6153 
 182   0.0000       1.759998        47.8920 
 183   0.0000       1.803066        49.0639 
 184   0.0000       1.836036        49.9611 
 185   0.0000       1.845653        50.2228 
 186   0.0000       1.851269        50.3756 
 187   0.0000       1.881944        51.2103 
 188   0.0000       1.882835        51.2345 
 189   0.0000       1.908917        51.9443 
 190   0.0000       1.912199        52.0336 
 191   0.0000       1.930394        52.5287 
 192   0.0000       1.988387        54.1068 
 193   0.0000       2.022393        55.0321 
 194   0.0000       2.026946        55.1560 
 195   0.0000       2.042953        55.5916 
 196   0.0000       2.060568        56.0709 
 197   0.0000       2.097953        57.0882 
 198   0.0000       2.129390        57.9436 
 199   0.0000       2.136883        58.1475 
 200   0.0000       2.164013        58.8858 
 201   0.0000       2.205265        60.0083 
 202   0.0000       2.229907        60.6789 
 203   0.0000       2.266828        61.6835 
 204   0.0000       2.266929        61.6863 
 205   0.0000       2.278780        62.0088 
 206   0.0000       2.300123        62.5895 
 207   0.0000       2.325330        63.2754 
 208   0.0000       2.336097        63.5684 
 209   0.0000       2.404739        65.4363 
 210   0.0000       2.421341        65.8880 
 211   0.0000       2.507857        68.2423 
 212   0.0000       2.579569        70.1936 
 213   0.0000       2.597545        70.6828 
 214   0.0000       2.617570        71.2277 
 215   0.0000       2.624022        71.4033 
 216   0.0000       2.637093        71.7590 
 217   0.0000       2.725016        74.1514 
 218   0.0000       2.755582        74.9832 
 219   0.0000       2.844585        77.4051 
 220   0.0000       2.923151        79.5430 
 221   0.0000       2.946428        80.1764 
 222   0.0000       3.026575        82.3573 
 223   0.0000       3.050210        83.0004 
 224   0.0000       3.088983        84.0555 
 225   0.0000       3.158943        85.9592 
 226   0.0000       3.298365        89.7531 

                    ********************************
                    * MULLIKEN POPULATION ANALYSIS *
                    ********************************

-----------------------
MULLIKEN ATOMIC CHARGES
-----------------------
   0 S :   -0.047128
   1 C :   -0.814569
   2 S :    0.635274
   3 C :   -0.188281
   4 C :    0.284932
   5 C :   -0.188281
   6 S :    0.635274
   7 H :    0.009213
   8 H :   -0.059076
   9 H :   -0.166267
  10 H :   -0.051226
  11 H :    0.009213
  12 H :   -0.059076
Sum of atomic charges:    0.0000000

--------------------------------
MULLIKEN REDUCED ORBITAL CHARGES
--------------------------------
  0 S s       :     5.957282  s :     5.957282
      pz      :     3.780110  p :    10.056024
      px      :     3.401226
      py      :     2.874688
      dz2     :     0.011278  d :     0.033822
      dxz     :    -0.000554
      dyz     :    -0.014430
      dx2y2   :     0.019109
      dxy     :     0.018421
  1 C s       :     3.542403  s :     3.542403
      pz      :     1.121230  p :     2.941530
      px      :     0.794570
      py      :     1.025729
      dz2     :     0.025103  d :     0.330636
      dxz     :     0.053126
      dyz     :     0.183521
      dx2y2   :    -0.005884
      dxy     :     0.074771
  2 S s       :     5.668257  s :     5.668257
      pz      :     3.066694  p :     9.644038
      px      :     3.784704
      py      :     2.792641
      dz2     :     0.029767  d :     0.052431
      dxz     :     0.006311
      dyz     :     0.000839
      dx2y2   :     0.017829
      dxy     :    -0.002315
  3 C s       :     2.993086  s :     2.993086
      pz      :     1.072924  p :     3.117061
      px      :     1.014392
      py      :     1.029745
      dz2     :     0.002571  d :     0.078134
      dxz     :     0.014313
      dyz     :     0.018206
      dx2y2   :     0.018653
      dxy     :     0.024390
  4 C s       :     2.740619  s :     2.740619
      pz      :     1.083910  p :     2.853156
      px      :     0.908211
      py      :     0.861035
      dz2     :     0.121413  d :     0.121292
      dxz     :     0.055558
      dyz     :    -0.035272
      dx2y2   :    -0.015512
      dxy     :    -0.004894
  5 C s       :     2.993086  s :     2.993086
      pz      :     1.072924  p :     3.117061
      px      :     1.014392
      py      :     1.029745
      dz2     :     0.002571  d :     0.078134
      dxz     :     0.014313
      dyz     :     0.018206
      dx2y2   :     0.018653
      dxy     :     0.024390
  6 S s       :     5.668257  s :     5.668257
      pz      :     3.066694  p :     9.644038
      px      :     3.784704
      py      :     2.792641
      dz2     :     0.029767  d :     0.052431
      dxz     :     0.006311
      dyz     :     0.000839
      dx2y2   :     0.017829
      dxy     :    -0.002315
  7 H s       :     1.019749  s :     1.019749
      pz      :     0.000543  p :    -0.028961
      px      :    -0.009820
      py      :    -0.019684
  8 H s       :     1.067419  s :     1.067419
      pz      :     0.002210  p :    -0.008343
      px      :     0.005663
      py      :    -0.016216
  9 H s       :     1.184883  s :     1.184883
      pz      :    -0.008594  p :    -0.018616
      px      :    -0.007401
      py      :    -0.002621
 10 H s       :     1.107917  s :     1.107917
      pz      :    -0.030073  p :    -0.056690
      px      :    -0.025056
      py      :    -0.001562
 11 H s       :     1.019749  s :     1.019749
      pz      :     0.000543  p :    -0.028961
      px      :    -0.009820
      py      :    -0.019684
 12 H s       :     1.067419  s :     1.067419
      pz      :     0.002210  p :    -0.008343
      px      :     0.005663
      py      :    -0.016216


                     *******************************
                     * LOEWDIN POPULATION ANALYSIS *
                     *******************************

----------------------
LOEWDIN ATOMIC CHARGES
----------------------
   0 S :    0.441366
   1 C :   -1.408475
   2 S :    0.853371
   3 C :   -0.263795
   4 C :   -0.137397
   5 C :   -0.263795
   6 S :    0.853371
   7 H :   -0.027175
   8 H :   -0.028069
   9 H :    0.015958
  10 H :    0.019886
  11 H :   -0.027175
  12 H :   -0.028069

-------------------------------
LOEWDIN REDUCED ORBITAL CHARGES
-------------------------------
  0 S s       :     5.347289  s :     5.347289
      pz      :     3.589407  p :     9.942283
      px      :     3.257965
      py      :     3.094911
      dz2     :     0.037140  d :     0.269063
      dxz     :     0.001510
      dyz     :     0.081265
      dx2y2   :     0.099989
      dxy     :     0.049158
  1 C s       :     2.855991  s :     2.855991
      pz      :     1.112849  p :     3.003378
      px      :     0.729478
      py      :     1.161051
      dz2     :     0.352369  d :     1.549106
      dxz     :     0.258946
      dyz     :     0.473024
      dx2y2   :     0.185824
      dxy     :     0.278942
  2 S s       :     5.103762  s :     5.103762
      pz      :     3.152355  p :     9.564735
      px      :     3.468464
      py      :     2.943915
      dz2     :     0.117561  d :     0.478132
      dxz     :     0.041832
      dyz     :     0.144819
      dx2y2   :     0.109578
      dxy     :     0.064342
  3 C s       :     2.630982  s :     2.630982
      pz      :     0.968832  p :     2.816892
      px      :     0.969128
      py      :     0.878931
      dz2     :     0.168500  d :     0.815922
      dxz     :     0.110959
      dyz     :     0.167682
      dx2y2   :     0.192251
      dxy     :     0.176530
  4 C s       :     2.580792  s :     2.580792
      pz      :     0.913068  p :     2.753669
      px      :     0.916231
      py      :     0.924369
      dz2     :     0.252259  d :     0.802936
      dxz     :     0.175694
      dyz     :     0.135633
      dx2y2   :     0.174234
      dxy     :     0.065116
  5 C s       :     2.630982  s :     2.630982
      pz      :     0.968832  p :     2.816892
      px      :     0.969128
      py      :     0.878931
      dz2     :     0.168500  d :     0.815922
      dxz     :     0.110959
      dyz     :     0.167682
      dx2y2   :     0.192251
      dxy     :     0.176530
  6 S s       :     5.103762  s :     5.103762
      pz      :     3.152355  p :     9.564735
      px      :     3.468464
      py      :     2.943915
      dz2     :     0.117561  d :     0.478132
      dxz     :     0.041832
      dyz     :     0.144819
      dx2y2   :     0.109578
      dxy     :     0.064342
  7 H s       :     0.744258  s :     0.744258
      pz      :     0.111637  p :     0.282917
      px      :     0.086408
      py      :     0.084873
  8 H s       :     0.744522  s :     0.744522
      pz      :     0.067050  p :     0.283547
      px      :     0.135784
      py      :     0.080713
  9 H s       :     0.725927  s :     0.725927
      pz      :     0.055289  p :     0.258116
      px      :     0.127011
      py      :     0.075816
 10 H s       :     0.722999  s :     0.722999
      pz      :     0.056963  p :     0.257115
      px      :     0.063677
      py      :     0.136475
 11 H s       :     0.744258  s :     0.744258
      pz      :     0.111637  p :     0.282917
      px      :     0.086408
      py      :     0.084873
 12 H s       :     0.744522  s :     0.744522
      pz      :     0.067050  p :     0.283547
      px      :     0.135784
      py      :     0.080713


                      *****************************
                      * MAYER POPULATION ANALYSIS *
                      *****************************

  NA   - Mulliken gross atomic population
  ZA   - Total nuclear charge
  QA   - Mulliken gross atomic charge
  VA   - Mayer's total valence
  BVA  - Mayer's bonded valence
  FA   - Mayer's free valence

  ATOM       NA         ZA         QA         VA         BVA        FA
  0 S     16.0471    16.0000    -0.0471     1.8105     1.8105     0.0000
  1 C      6.8146     6.0000    -0.8146     3.9775     3.9775     0.0000
  2 S     15.3647    16.0000     0.6353     1.9725     1.9725     0.0000
  3 C      6.1883     6.0000    -0.1883     4.3088     4.3088     0.0000
  4 C      5.7151     6.0000     0.2849     4.1823     4.1823    -0.0000
  5 C      6.1883     6.0000    -0.1883     4.3088     4.3088     0.0000
  6 S     15.3647    16.0000     0.6353     1.9725     1.9725     0.0000
  7 H      0.9908     1.0000     0.0092     0.7543     0.7543     0.0000
  8 H      1.0591     1.0000    -0.0591     0.8552     0.8552    -0.0000
  9 H      1.1663     1.0000    -0.1663     0.8035     0.8035    -0.0000
 10 H      1.0512     1.0000    -0.0512     0.7233     0.7233    -0.0000
 11 H      0.9908     1.0000     0.0092     0.7543     0.7543     0.0000
 12 H      1.0591     1.0000    -0.0591     0.8552     0.8552    -0.0000

  Mayer bond orders larger than 0.100000
B(  0-S ,  1-C ) :   1.7638 B(  1-C ,  2-S ) :   1.0563 B(  1-C ,  6-S ) :   1.0563 
B(  2-S ,  3-C ) :   1.0554 B(  3-C ,  4-C ) :   1.2558 B(  3-C ,  7-H ) :   0.8817 
B(  3-C ,  8-H ) :   0.9433 B(  4-C ,  5-C ) :   1.2558 B(  4-C ,  7-H ) :   0.1040 
B(  4-C ,  9-H ) :   0.8844 B(  4-C , 10-H ) :   0.7724 B(  4-C , 11-H ) :   0.1040 
B(  5-C ,  6-S ) :   1.0554 B(  5-C , 11-H ) :   0.8817 B(  5-C , 12-H ) :   0.9433 
B(  9-H , 10-H ) :  -0.1010 

-------
TIMINGS
-------

Total SCF time: 0 days 0 hours 0 min 28 sec 

Total time                  ....      28.391 sec
Sum of individual times     ....      27.994 sec  ( 98.6%)

Fock matrix formation       ....      27.480 sec  ( 96.8%)
Diagonalization             ....       0.125 sec  (  0.4%)
Density matrix formation    ....       0.014 sec  (  0.0%)
Population analysis         ....       0.054 sec  (  0.2%)
Initial guess               ....       0.088 sec  (  0.3%)
Orbital Transformation      ....       0.000 sec  (  0.0%)
Orbital Orthonormalization  ....       0.000 sec  (  0.0%)
DIIS solution               ....       0.092 sec  (  0.3%)
SOSCF solution              ....       0.077 sec  (  0.3%)

Maximum memory used throughout the entire SCF-calculation: 234.3 MB


           ************************************************************
           *        Program running with 16 parallel MPI-processes    *
           *              working on a common directory               *
           ************************************************************

------------------------------------------------------------------------------
                                ORCA  MP2 
------------------------------------------------------------------------------

Freezing NCore=38 chemical core electrons

-------------
RI-MP2 ENERGY
-------------
Dimension of the basis                    ...  227
Memory devoted to MP2                     ...  256 MB   
Data format for buffers                   ... DOUBLE
Compression type for matrix containers    ... UNCOMPRESSED
Overall scaling of the MP2 energy         ...   1.000e+00
Calculating two index integrals           ... done (    0.003 sec)
Cholesky decomposition of V**-1           ... done (    0.059 sec)

-----------------
RI-TRANSFORMATION (AUX index driven)
-----------------

Dimension of the orbital-basis         ... 227
Dimension of the aux-basis             ... 702
Transformation of internal/external MOs...   19-  38 to   39- 226
Number Format for Storage              ... Double (8 Byte)
Integral mode                          ... Direct

First Phase: integral generation and transformation of MO indices
  Aux angular momentum 0               ... done (    0.020 sec)
  Aux angular momentum 1               ... done (    0.025 sec)
  Aux angular momentum 2               ... done (    0.033 sec)
  Aux angular momentum 3               ... done (    0.022 sec)
Closing buffer VIA ( 0.02 GB; CompressionRatio= 1.00)
  Phase 1 completed in     0.202 sec
Second Phase: sorting and transformation of aux index

IA-Transformation
Memory available                       ... 207 MB 
Max. # MO pairs treated in a batch     ... 2    
# of internal orbitals                 ... 20
# batches for internal orbitals        ... 1
Closing buffer IAV ( 0.02 GB; CompressionRatio= 1.00)
(ia|v) transformation done in     0.032 sec

  Phase 2 completed in     0.067 sec
RI-Integral transformation completed in     0.274 sec
Opening buffers                              ... done

Starting loop over batches of integrals:

Operator 0  - window                       ... ( 19- 38)x( 39-226)
Operator 0  - Memory available             ...   256 MB
Operator 0  - Memory needed per MO         ...   1.0 MB
Operator 0  - Number of orbitals per batch ... 2
Operator 0  - Number of batches            ... 1

OPERATOR  0   PASS   0:  MOs    19 ...   20 +   21 ...   22 +   23 ...   24 +   25 ...   26
                            +   27 ...   28 +   29 ...   30 +   31 ...   32 +   33 ...   34
                            +   35 ...   36 +   37 ...   38
  Reading integrals       ... ok
Time spent in pair loops =     0.007 sec
Deleting buffer (Ka|jb)[aa] ...done

-----------------------------------------------
 RI-MP2 CORRELATION ENERGY:     -1.000367474 Eh
-----------------------------------------------


-------
TIMINGS
-------

Total time                :    0.427 sec
Integral trafo            :    0.283 sec ( 66.4%)
I/O of integrals          :    0.001 sec (  0.2%)
K(i,j) Operators          :    0.004 sec (  1.0%)
T(i,j) pair energies      :    0.000 sec (  0.1%)
V-calculation             :    0.003 sec (  0.7%)
V**(-1/2)                 :    0.059 sec ( 13.8%)
Gamma(ia|P)               :    0.000 sec (  0.0%)
Gamma-Trafo               :    0.000 sec (  0.0%)
D(virtual)                :    0.000 sec (  0.0%)
D(internal)               :    0.000 sec (  0.0%)
W(virtual)                :    0.000 sec (  0.0%)
W(internal)               :    0.000 sec (  0.0%)
L(virtual)                :    0.000 sec (  0.0%)
L(internal)               :    0.000 sec (  0.0%)
G(D)                      :    0.000 sec (  0.0%)
G(Z)                      :    0.000 sec (  0.0%)
Z-Vector Solution         :    0.000 sec (  0.0%)
3-Index Derivative        :    0.000 sec (  0.0%)
2-Index Derivative        :    0.000 sec (  0.0%)
Separable Gradient        :    0.000 sec (  0.0%)


---------------------------------------
MP2 TOTAL ENERGY:    -1348.561760823 Eh
---------------------------------------

Maximum memory used throughout the entire MP2-calculation: 96.3 MB

-------------------------   --------------------
FINAL SINGLE POINT ENERGY     -1348.561760822867
-------------------------   --------------------


                            ***************************************
                            *     ORCA property calculations      *
                            ***************************************


  WARNING: The energy has been calculated at the MP2 level but the densities
           used in the property calculations are still SCF densities
           MP2 response densities have not been calculated 
           use %mp2 Density relaxed end
           or  %mp2 Density unrelaxed end

                                    ---------------------
                                    Active property flags
                                    ---------------------
   (+) Dipole Moment


------------------------------------------------------------------------------
                       ORCA ELECTRIC PROPERTIES CALCULATION
------------------------------------------------------------------------------

Dipole Moment Calculation                       ... on
Quadrupole Moment Calculation                   ... off
Polarizability Calculation                      ... off
GBWName                                         ... DZ_1,3-dithiane-2-thione.gbw
Electron density                                ... DZ_1,3-dithiane-2-thione.scfp
The origin for moment calculation is the CENTER OF MASS  = (-0.015151,  0.171211  0.000000)

-------------
DIPOLE MOMENT
-------------
                                X             Y             Z
Electronic contribution:     -1.04138      10.73063       0.00000
Nuclear contribution   :      1.18182     -13.35448       0.00000
                        -----------------------------------------
Total Dipole Moment    :      0.14043      -2.62386       0.00000
                        -----------------------------------------
Magnitude (a.u.)       :      2.62761
Magnitude (Debye)      :      6.67886



--------------------
Rotational spectrum 
--------------------
 
Rotational constants in cm-1:     0.078733     0.043310     0.028860 
Rotational constants in MHz :  2360.347101  1298.395830   865.198253 

 Dipole components along the rotational axes: 
x,y,z [a.u.] :     2.624764     0.000000     0.122317 
x,y,z [Debye]:     6.671620     0.000000     0.310905 

 

Timings for individual modules:

Sum of individual times         ...       51.060 sec (=   0.851 min)
GTO integral calculation        ...       14.286 sec (=   0.238 min)  28.0 %
SCF iterations                  ...       33.702 sec (=   0.562 min)  66.0 %
MP2 module                      ...        3.072 sec (=   0.051 min)   6.0 %
                             ****ORCA TERMINATED NORMALLY****
TOTAL RUN TIME: 0 days 0 hours 0 minutes 54 seconds 277 msec
