
                                 *****************
                                 * O   R   C   A *
                                 *****************

                                            #,                                       
                                            ###                                      
                                            ####                                     
                                            #####                                    
                                            ######                                   
                                           ########,                                 
                                     ,,################,,,,,                         
                               ,,#################################,,                 
                          ,,##########################################,,             
                       ,#########################################, ''#####,          
                    ,#############################################,,   '####,        
                  ,##################################################,,,,####,       
                ,###########''''           ''''###############################       
              ,#####''   ,,,,##########,,,,          '''####'''          '####       
            ,##' ,,,,###########################,,,                        '##       
           ' ,,###''''                  '''############,,,                           
         ,,##''                                '''############,,,,        ,,,,,,###''
      ,#''                                            '''#######################'''  
     '                                                          ''''####''''         
             ,#######,   #######,   ,#######,      ##                                
            ,#'     '#,  ##    ##  ,#'     '#,    #''#        ######   ,####,        
            ##       ##  ##   ,#'  ##            #'  '#       #        #'  '#        
            ##       ##  #######   ##           ,######,      #####,   #    #        
            '#,     ,#'  ##    ##  '#,     ,#' ,#      #,         ##   #,  ,#        
             '#######'   ##     ##  '#######'  #'      '#     #####' # '####'        



                  #######################################################
                  #                        -***-                        #
                  #          Department of theory and spectroscopy      #
                  #    Directorship and core code : Frank Neese         #
                  #        Max Planck Institute fuer Kohlenforschung    #
                  #                Kaiser Wilhelm Platz 1               #
                  #                 D-45470 Muelheim/Ruhr               #
                  #                      Germany                        #
                  #                                                     #
                  #                  All rights reserved                #
                  #                        -***-                        #
                  #######################################################


                         Program Version 5.0.3 -  RELEASE  -


 With contributions from (in alphabetic order):
   Daniel Aravena         : Magnetic Suceptibility
   Michael Atanasov       : Ab Initio Ligand Field Theory (pilot matlab implementation)
   Alexander A. Auer      : GIAO ZORA, VPT2 properties, NMR spectrum
   Ute Becker             : Parallelization
   Giovanni Bistoni       : ED, misc. LED, open-shell LED, HFLD
   Martin Brehm           : Molecular dynamics
   Dmytro Bykov           : SCF Hessian
   Vijay G. Chilkuri      : MRCI spin determinant printing, contributions to CSF-ICE
   Dipayan Datta          : RHF DLPNO-CCSD density
   Achintya Kumar Dutta   : EOM-CC, STEOM-CC
   Dmitry Ganyushin       : Spin-Orbit,Spin-Spin,Magnetic field MRCI
   Miquel Garcia          : C-PCM and meta-GGA Hessian, CC/C-PCM, Gaussian charge scheme
   Yang Guo               : DLPNO-NEVPT2, F12-NEVPT2, CIM, IAO-localization
   Andreas Hansen         : Spin unrestricted coupled pair/coupled cluster methods
   Benjamin Helmich-Paris : MC-RPA, TRAH-SCF, COSX integrals
   Lee Huntington         : MR-EOM, pCC
   Robert Izsak           : Overlap fitted RIJCOSX, COSX-SCS-MP3, EOM
   Marcus Kettner         : VPT2
   Christian Kollmar      : KDIIS, OOCD, Brueckner-CCSD(T), CCSD density, CASPT2, CASPT2-K
   Simone Kossmann        : Meta GGA functionals, TD-DFT gradient, OOMP2, MP2 Hessian
   Martin Krupicka        : Initial AUTO-CI
   Lucas Lang             : DCDCAS
   Marvin Lechner         : AUTO-CI (C++ implementation), FIC-MRCC
   Dagmar Lenk            : GEPOL surface, SMD
   Dimitrios Liakos       : Extrapolation schemes; Compound Job, initial MDCI parallelization
   Dimitrios Manganas     : Further ROCIS development; embedding schemes
   Dimitrios Pantazis     : SARC Basis sets
   Anastasios Papadopoulos: AUTO-CI, single reference methods and gradients
   Taras Petrenko         : DFT Hessian,TD-DFT gradient, ASA, ECA, R-Raman, ABS, FL, XAS/XES, NRVS
   Peter Pinski           : DLPNO-MP2, DLPNO-MP2 Gradient
   Christoph Reimann      : Effective Core Potentials
   Marius Retegan         : Local ZFS, SOC
   Christoph Riplinger    : Optimizer, TS searches, QM/MM, DLPNO-CCSD(T), (RO)-DLPNO pert. Triples
   Tobias Risthaus        : Range-separated hybrids, TD-DFT gradient, RPA, STAB
   Michael Roemelt        : Original ROCIS implementation
   Masaaki Saitow         : Open-shell DLPNO-CCSD energy and density
   Barbara Sandhoefer     : DKH picture change effects
   Avijit Sen             : IP-ROCIS
   Kantharuban Sivalingam : CASSCF convergence, NEVPT2, FIC-MRCI
   Bernardo de Souza      : ESD, SOC TD-DFT
   Georgi Stoychev        : AutoAux, RI-MP2 NMR, DLPNO-MP2 response
   Willem Van den Heuvel  : Paramagnetic NMR
   Boris Wezisla          : Elementary symmetry handling
   Frank Wennmohs         : Technical directorship


 We gratefully acknowledge several colleagues who have allowed us to
 interface, adapt or use parts of their codes:
   Stefan Grimme, W. Hujo, H. Kruse, P. Pracht,  : VdW corrections, initial TS optimization,
                  C. Bannwarth, S. Ehlert          DFT functionals, gCP, sTDA/sTD-DF
   Ed Valeev, F. Pavosevic, A. Kumar             : LibInt (2-el integral package), F12 methods
   Garnet Chan, S. Sharma, J. Yang, R. Olivares  : DMRG
   Ulf Ekstrom                                   : XCFun DFT Library
   Mihaly Kallay                                 : mrcc  (arbitrary order and MRCC methods)
   Jiri Pittner, Ondrej Demel                    : Mk-CCSD
   Frank Weinhold                                : gennbo (NPA and NBO analysis)
   Christopher J. Cramer and Donald G. Truhlar   : smd solvation model
   Lars Goerigk                                  : TD-DFT with DH, B97 family of functionals
   V. Asgeirsson, H. Jonsson                     : NEB implementation
   FAccTs GmbH                                   : IRC, NEB, NEB-TS, DLPNO-Multilevel, CI-OPT
                                                   MM, QMMM, 2- and 3-layer-ONIOM, Crystal-QMMM,
                                                   LR-CPCM, SF, NACMEs, symmetry and pop. for TD-DFT,
                                                   nearIR, NL-DFT gradient (VV10), updates on ESD,
                                                   ML-optimized integration grids
   S Lehtola, MJT Oliveira, MAL Marques          : LibXC Library
   Liviu Ungur et al                             : ANISO software


 Your calculation uses the libint2 library for the computation of 2-el integrals
 For citations please refer to: http://libint.valeyev.net

 Your ORCA version has been built with support for libXC version: 5.1.0
 For citations please refer to: https://tddft.org/programs/libxc/

 This ORCA versions uses:
   CBLAS   interface :  Fast vector & matrix operations
   LAPACKE interface :  Fast linear algebra routines
   SCALAPACK package :  Parallel linear algebra routines
   Shared memory     :  Shared parallel matrices
   BLAS/LAPACK       :  OpenBLAS 0.3.15  USE64BITINT DYNAMIC_ARCH NO_AFFINITY SkylakeX SINGLE_THREADED
        Core in use  :  SkylakeX
   Copyright (c) 2011-2014, The OpenBLAS Project


================================================================================

----- Orbital basis set information -----
Your calculation utilizes the basis: aug-cc-pVDZ 
    H, B-Ne : Obtained from the ccRepo (grant-hill.group.shef.ac.uk/ccrepo) Feb. 2017
              R. A. Kendall, T. H. Dunning, Jr., R. J. Harrison, J. Chem. Phys. 96, 6796 (1992)
         He : Obtained from the ccRepo (grant-hill.group.shef.ac.uk/ccrepo) Feb. 2017
              D. E. Woon, T. H. Dunning, Jr., J. Chem. Phys. 100, 2975 (1994)
  Li-Be, Na : Obtained from the ccRepo (grant-hill.group.shef.ac.uk/ccrepo) Feb. 2017
              B. P. Prascher, D. E. Woon, K. A. Peterson, T. H. Dunning, Jr., A. K. Wilson, Theor. Chem. Acc. 128, 69 (2011)
         Mg : Obtained from the Peterson Research Group Website (tyr0.chem.wsu.edu/~kipeters) Feb. 2017
              B. P. Prascher, D. E. Woon, K. A. Peterson, T. H. Dunning, Jr., A. K. Wilson, Theor. Chem. Acc. 128, 69 (2011)
      Al-Ar : Obtained from the ccRepo (grant-hill.group.shef.ac.uk/ccrepo) Feb. 2017
              D. E. Woon, T. H. Dunning, Jr., J. Chem. Phys. 98, 1358 (1993)
      Sc-Zn : Obtained from the ccRepo (grant-hill.group.shef.ac.uk/ccrepo) Feb. 2017
              N. B. Balabanov, K. A. Peterson, J. Chem. Phys. 123, 064107 (2005)
              N. B. Balabanov, K. A. Peterson, J. Chem. Phys. 125, 074110 (2006)
      Ga-Kr : Obtained from the ccRepo (grant-hill.group.shef.ac.uk/ccrepo) Feb. 2017
              A. K. Wilson, D. E. Woon, K. A. Peterson, T. H. Dunning, Jr., J. Chem. Phys. 110, 7667 (1999)

----- AuxC basis set information -----
Your calculation utilizes the auxiliary basis: aug-cc-pVDZ/C 
  H-He, B, Ne, Al-Ar, Ga-Ge, Se-Br : Obtained from the EMSL Basis Set Exchange (bse.pnl.gov) Feb. 2017
                                     F. Weigend, A. Kohn, C. Hattig, J. Chem. Phys. 116, 3175 (2002)
                            Be, Mg : Obtained from the TURBOMOLE 7.0 basis set library
                                     C. Haettig, Phys. Chem. Chem. Phys. 7, 59 (2005)
                               C-F : Obtained from the EMSL Basis Set Exchange (bse.pnl.gov) Feb. 2017
                                     C. Haettig, Phys. Chem. Chem. Phys. 7, 59 (2005)
                                     F. Weigend, A. Kohn, C. Hattig, J. Chem. Phys. 116, 3175 (2002)
                                As : Obtained from the EMSL Basis Set Exchange (bse.pnl.gov) Feb. 2017
                                     C. Haettig, G. Schmitz, J. Kossmann, Phys. Chem. Chem. Phys. 14, 6549 (2012)
                                Kr : Obtained from the TURBOMOLE 7.0 basis set library
                                     F. Weigend, A. Kohn, C. Hattig, J. Chem. Phys. 116, 3175 (2002)
                                     S function revised in Sep. 2009

================================================================================
                                        WARNINGS
                       Please study these warnings very carefully!
================================================================================


WARNING: No MP2 level density has been requested!
         To caclulate MP2 level properties use
         %mp2 Density relaxed end
         or
         %mp2 Density unrelaxed end

WARNING: Post HF methods need fully converged wavefunctions
  ===> : Setting SCFConvForced true
         You can overwrite this default with %scf ConvForced false 


INFO   : the flag for use of the SHARK integral package has been found!

================================================================================
                                       INPUT FILE
================================================================================
NAME = DZ_1-butylsulfonylbutane.inp
|  1> !ri-mp2 aug-cc-pvdz aug-cc-pvdz/c tightscf
|  2> %pal nprocs 16 end
|  3> %maxcore 3800
|  4> 
|  5> * xyz 0 1
|  6> C     -4.547650   -1.705638    0.272597
|  7> C     -3.795689   -0.553081   -0.390005
|  8> C     -2.349515   -0.430093    0.100464
|  9> C     -1.615268    0.722413   -0.573309
| 10> S      0.037748    1.077404    0.089018
| 11> O      0.541910    2.249760   -0.624888
| 12> C      1.055947   -0.348493   -0.390800
| 13> C      2.496572   -0.170036    0.080449
| 14> C      3.378082   -1.358055   -0.315035
| 15> C      4.824517   -1.194420    0.147764
| 16> O     -0.048573    1.105880    1.548995
| 17> H     -4.067320   -2.663473    0.063479
| 18> H     -4.581440   -1.582093    1.356437
| 19> H     -5.575090   -1.764796   -0.087565
| 20> H     -4.320256    0.386228   -0.194738
| 21> H     -3.803321   -0.687023   -1.475548
| 22> H     -1.826735   -1.371038   -0.089908
| 23> H     -2.336575   -0.275264    1.180431
| 24> H     -2.130655    1.672755   -0.422484
| 25> H     -1.487390    0.579358   -1.646641
| 26> H      0.990394   -0.416247   -1.477160
| 27> H      0.591980   -1.227121    0.056620
| 28> H      2.505188   -0.047615    1.164989
| 29> H      2.901550    0.749170   -0.346134
| 30> H      3.354143   -1.481736   -1.401693
| 31> H      2.960814   -2.276931    0.107216
| 32> H      5.277008   -0.300011   -0.284003
| 33> H      4.882665   -1.102883    1.233779
| 34> H      5.432396   -2.050455   -0.146968
| 35> *
| 36> 
| 37>                          ****END OF INPUT****
================================================================================

                       ****************************
                       * Single Point Calculation *
                       ****************************

---------------------------------
CARTESIAN COORDINATES (ANGSTROEM)
---------------------------------
  C     -4.547650   -1.705638    0.272597
  C     -3.795689   -0.553081   -0.390005
  C     -2.349515   -0.430093    0.100464
  C     -1.615268    0.722413   -0.573309
  S      0.037748    1.077404    0.089018
  O      0.541910    2.249760   -0.624888
  C      1.055947   -0.348493   -0.390800
  C      2.496572   -0.170036    0.080449
  C      3.378082   -1.358055   -0.315035
  C      4.824517   -1.194420    0.147764
  O     -0.048573    1.105880    1.548995
  H     -4.067320   -2.663473    0.063479
  H     -4.581440   -1.582093    1.356437
  H     -5.575090   -1.764796   -0.087565
  H     -4.320256    0.386228   -0.194738
  H     -3.803321   -0.687023   -1.475548
  H     -1.826735   -1.371038   -0.089908
  H     -2.336575   -0.275264    1.180431
  H     -2.130655    1.672755   -0.422484
  H     -1.487390    0.579358   -1.646641
  H      0.990394   -0.416247   -1.477160
  H      0.591980   -1.227121    0.056620
  H      2.505188   -0.047615    1.164989
  H      2.901550    0.749170   -0.346134
  H      3.354143   -1.481736   -1.401693
  H      2.960814   -2.276931    0.107216
  H      5.277008   -0.300011   -0.284003
  H      4.882665   -1.102883    1.233779
  H      5.432396   -2.050455   -0.146968

----------------------------
CARTESIAN COORDINATES (A.U.)
----------------------------
  NO LB      ZA    FRAG     MASS         X           Y           Z
   0 C     6.0000    0    12.011   -8.593813   -3.223189    0.515134
   1 C     6.0000    0    12.011   -7.172813   -1.045172   -0.737003
   2 C     6.0000    0    12.011   -4.439940   -0.812758    0.189849
   3 C     6.0000    0    12.011   -3.052414    1.365163   -1.083397
   4 S    16.0000    0    32.060    0.071333    2.035998    0.168220
   5 O     8.0000    0    15.999    1.024061    4.251430   -1.180867
   6 C     6.0000    0    12.011    1.995451   -0.658556   -0.738505
   7 C     6.0000    0    12.011    4.717837   -0.321321    0.152027
   8 C     6.0000    0    12.011    6.383650   -2.566352   -0.595330
   9 C     6.0000    0    12.011    9.117016   -2.257127    0.279233
  10 O     8.0000    0    15.999   -0.091790    2.089810    2.927176
  11 H     1.0000    0     1.008   -7.686121   -5.033235    0.119958
  12 H     1.0000    0     1.008   -8.657667   -2.989722    2.563294
  13 H     1.0000    0     1.008  -10.535393   -3.334981   -0.165474
  14 H     1.0000    0     1.008   -8.164101    0.729865   -0.368001
  15 H     1.0000    0     1.008   -7.187235   -1.298285   -2.788382
  16 H     1.0000    0     1.008   -3.452029   -2.590886   -0.169901
  17 H     1.0000    0     1.008   -4.415487   -0.520174    2.230691
  18 H     1.0000    0     1.008   -4.026354    3.161049   -0.798379
  19 H     1.0000    0     1.008   -2.810760    1.094828   -3.111701
  20 H     1.0000    0     1.008    1.871573   -0.786593   -2.791428
  21 H     1.0000    0     1.008    1.118680   -2.318923    0.106996
  22 H     1.0000    0     1.008    4.734119   -0.089979    2.201510
  23 H     1.0000    0     1.008    5.483135    1.415726   -0.654098
  24 H     1.0000    0     1.008    6.338412   -2.800075   -2.648816
  25 H     1.0000    0     1.008    5.595128   -4.302776    0.202609
  26 H     1.0000    0     1.008    9.972100   -0.566939   -0.536688
  27 H     1.0000    0     1.008    9.226900   -2.084147    2.331504
  28 H     1.0000    0     1.008   10.265741   -3.874798   -0.277729

--------------------------------
INTERNAL COORDINATES (ANGSTROEM)
--------------------------------
 C      0   0   0     0.000000000000     0.00000000     0.00000000
 C      1   0   0     1.527375001162     0.00000000     0.00000000
 C      2   1   0     1.532026477050   112.73236792     0.00000000
 C      3   2   1     1.523600601396   111.96620136   179.88356472
 S      4   3   2     1.815807688404   115.16903288   172.79041283
 O      5   4   3     1.462278937076   107.00934292   183.21613504
 C      5   4   3     1.816627857139   105.09657907    68.68769220
 C      7   5   4     1.526211948412   110.83786858   178.78952985
 C      8   7   5     1.531292466747   111.89583800   180.15351647
 C      9   8   7     1.527459831502   112.56693749   179.92446948
 O      5   4   3     1.462803827636   108.30871186   313.24490950
 H      1   2   3     1.091739499170   111.24425479   299.52067193
 H      1   2   3     1.091381819862   111.13958175    59.45793703
 H      1   2   3     1.090343656288   111.19621038   179.50331663
 H      2   1   3     1.093435474209   109.54669258   238.35492622
 H      2   1   3     1.093801769809   109.55441132   122.22694815
 H      3   2   1     1.093123012204   109.06179565    57.78315386
 H      3   2   1     1.091085782113   109.84448794   301.06441723
 H      4   3   2     1.091568530766   111.71114267    56.94664085
 H      4   3   2     1.090348154551   113.11621328   295.10054537
 H      7   5   4     1.090442960418   106.15355255    57.17356776
 H      7   5   4     1.089695918994   106.60608411   300.52303377
 H      8   7   5     1.091461473574   109.10974139    58.41562893
 H      8   7   5     1.091292768605   109.15234142   301.90510182
 H      9   8   7     1.093935863955   109.37004178    57.96780874
 H      9   8   7     1.093956852075   109.41439863   301.94576922
 H     10   9   8     1.091392828752   111.13309599   300.20395777
 H     10   9   8     1.091415957597   111.15689272    60.05351797
 H     10   9   8     1.090495186459   111.21567878   180.12898309

---------------------------
INTERNAL COORDINATES (A.U.)
---------------------------
 C      0   0   0     0.000000000000     0.00000000     0.00000000
 C      1   0   0     2.886320455993     0.00000000     0.00000000
 C      2   1   0     2.895110471540   112.73236792     0.00000000
 C      3   2   1     2.879187874116   111.96620136   179.88356472
 S      4   3   2     3.431379242952   115.16903288   172.79041283
 O      5   4   3     2.763306722475   107.00934292   183.21613504
 C      5   4   3     3.432929137245   105.09657907    68.68769220
 C      7   5   4     2.884122604817   110.83786858   178.78952985
 C      8   7   5     2.893723393089   111.89583800   180.15351647
 C      9   8   7     2.886480762104   112.56693749   179.92446948
 O      5   4   3     2.764298621883   108.30871186   313.24490950
 H      1   2   3     2.063088663017   111.24425479   299.52067193
 H      1   2   3     2.062412747080   111.13958175    59.45793703
 H      1   2   3     2.060450902243   111.19621038   179.50331663
 H      2   1   3     2.066293591370   109.54669258   238.35492622
 H      2   1   3     2.066985789737   109.55441132   122.22694815
 H      3   2   1     2.065703123752   109.06179565    57.78315386
 H      3   2   1     2.061853316810   109.84448794   301.06441723
 H      4   3   2     2.062765579554   111.71114267    56.94664085
 H      4   3   2     2.060459402728   113.11621328   295.10054537
 H      7   5   4     2.060638559852   106.15355255    57.17356776
 H      7   5   4     2.059226856151   106.60608411   300.52303377
 H      8   7   5     2.062563270782   109.10974139    58.41562893
 H      8   7   5     2.062244464592   109.15234142   301.90510182
 H      9   8   7     2.067239190949   109.37004178    57.96780874
 H      9   8   7     2.067278852748   109.41439863   301.94576922
 H     10   9   8     2.062433550867   111.13309599   300.20395777
 H     10   9   8     2.062477258050   111.15689272    60.05351797
 H     10   9   8     2.060737252767   111.21567878   180.12898309

---------------------
BASIS SET INFORMATION
---------------------
There are 4 groups of distinct atoms

 Group   1 Type C   : 18s5p2d contracted to 4s3p2d pattern {8811/311/11}
 Group   2 Type S   : 35s16p2d contracted to 5s4p2d pattern {11111111/7711/11}
 Group   3 Type O   : 18s5p2d contracted to 4s3p2d pattern {8811/311/11}
 Group   4 Type H   : 5s2p contracted to 3s2p pattern {311/11}

Atom   0C    basis set group =>   1
Atom   1C    basis set group =>   1
Atom   2C    basis set group =>   1
Atom   3C    basis set group =>   1
Atom   4S    basis set group =>   2
Atom   5O    basis set group =>   3
Atom   6C    basis set group =>   1
Atom   7C    basis set group =>   1
Atom   8C    basis set group =>   1
Atom   9C    basis set group =>   1
Atom  10O    basis set group =>   3
Atom  11H    basis set group =>   4
Atom  12H    basis set group =>   4
Atom  13H    basis set group =>   4
Atom  14H    basis set group =>   4
Atom  15H    basis set group =>   4
Atom  16H    basis set group =>   4
Atom  17H    basis set group =>   4
Atom  18H    basis set group =>   4
Atom  19H    basis set group =>   4
Atom  20H    basis set group =>   4
Atom  21H    basis set group =>   4
Atom  22H    basis set group =>   4
Atom  23H    basis set group =>   4
Atom  24H    basis set group =>   4
Atom  25H    basis set group =>   4
Atom  26H    basis set group =>   4
Atom  27H    basis set group =>   4
Atom  28H    basis set group =>   4
---------------------------------
AUXILIARY/C BASIS SET INFORMATION
---------------------------------
There are 4 groups of distinct atoms

 Group   1 Type C   : 8s6p5d3f contracted to 8s6p5d3f pattern {11111111/111111/11111/111}
 Group   2 Type S   : 10s8p6d4f contracted to 10s8p6d4f pattern {1111111111/11111111/111111/1111}
 Group   3 Type O   : 8s6p5d3f contracted to 8s6p5d3f pattern {11111111/111111/11111/111}
 Group   4 Type H   : 4s3p2d contracted to 4s3p2d pattern {1111/111/11}

Atom   0C    basis set group =>   1
Atom   1C    basis set group =>   1
Atom   2C    basis set group =>   1
Atom   3C    basis set group =>   1
Atom   4S    basis set group =>   2
Atom   5O    basis set group =>   3
Atom   6C    basis set group =>   1
Atom   7C    basis set group =>   1
Atom   8C    basis set group =>   1
Atom   9C    basis set group =>   1
Atom  10O    basis set group =>   3
Atom  11H    basis set group =>   4
Atom  12H    basis set group =>   4
Atom  13H    basis set group =>   4
Atom  14H    basis set group =>   4
Atom  15H    basis set group =>   4
Atom  16H    basis set group =>   4
Atom  17H    basis set group =>   4
Atom  18H    basis set group =>   4
Atom  19H    basis set group =>   4
Atom  20H    basis set group =>   4
Atom  21H    basis set group =>   4
Atom  22H    basis set group =>   4
Atom  23H    basis set group =>   4
Atom  24H    basis set group =>   4
Atom  25H    basis set group =>   4
Atom  26H    basis set group =>   4
Atom  27H    basis set group =>   4
Atom  28H    basis set group =>   4


           ************************************************************
           *        Program running with 16 parallel MPI-processes    *
           *              working on a common directory               *
           ************************************************************
------------------------------------------------------------------------------
                           ORCA GTO INTEGRAL CALCULATION
------------------------------------------------------------------------------
------------------------------------------------------------------------------
                   ___                                                        
                  /   \      - P O W E R E D   B Y -                         
                 /     \                                                     
                 |  |  |   _    _      __       _____    __    __             
                 |  |  |  | |  | |    /  \     |  _  \  |  |  /  |          
                  \  \/   | |  | |   /    \    | | | |  |  | /  /          
                 / \  \   | |__| |  /  /\  \   | |_| |  |  |/  /          
                |  |  |   |  __  | /  /__\  \  |    /   |      \           
                |  |  |   | |  | | |   __   |  |    \   |  |\   \          
                \     /   | |  | | |  |  |  |  | |\  \  |  | \   \       
                 \___/    |_|  |_| |__|  |__|  |_| \__\ |__|  \__/        
                                                                              
                      - O R C A' S   B I G   F R I E N D -                    
                                      &                                       
                       - I N T E G R A L  F E E D E R -                       
                                                                              
 v1 FN, 2020, v2 2021                                                         
------------------------------------------------------------------------------


Reading SHARK input file DZ_1-butylsulfonylbutane.SHARKINP.tmp ... ok
----------------------
SHARK INTEGRAL PACKAGE
----------------------

Number of atoms                             ...     29
Number of basis functions                   ...    502
Number of shells                            ...    264
Maximum angular momentum                    ...      2
Integral batch strategy                     ... SHARK/LIBINT Hybrid
RI-J (if used) integral strategy            ... SPLIT-RIJ (Revised 2003 algorithm where possible)
Printlevel                                  ...      1
Contraction scheme used                     ... PARTIAL GENERAL contraction
Coulomb Range Separation                    ... NOT USED
Exchange Range Separation                   ... NOT USED
Finite Nucleus Model                        ... NOT USED
Auxiliary Coulomb fitting basis             ... NOT available
Auxiliary J/K fitting basis                 ... NOT available
Auxiliary Correlation fitting basis         ... AVAILABLE
   # of basis functions in Aux-C            ...   1226
   # of shells in Aux-C                     ...    410
   Maximum angular momentum in Aux-C        ...      3
Auxiliary 'external' fitting basis          ... NOT available
Integral threshold                          ...     2.500000e-11
Primitive cut-off                           ...     2.500000e-12
Primitive pair pre-selection threshold      ...     2.500000e-12

Calculating pre-screening integrals         ... done (  0.0 sec) Dimension = 264
Calculating pre-screening integrals (ORCA)  ... done (  0.1 sec) Dimension = 191
Organizing shell pair data                  ... done (  0.2 sec)
Shell pair information
Total number of shell pairs                 ...     34980
Shell pairs after pre-screening             ...     26843
Total number of primitive shell pairs       ...     51444
Primitive shell pairs kept                  ...     35015
          la=0 lb=0:   9504 shell pairs
          la=1 lb=0:  10063 shell pairs
          la=1 lb=1:   2529 shell pairs
          la=2 lb=0:   3021 shell pairs
          la=2 lb=1:   1488 shell pairs
          la=2 lb=2:    238 shell pairs

Calculating one electron integrals          ... done (  0.0 sec)
Calculating RI/C V-Matrix + Cholesky decomp.... done (  0.1 sec)
Calculating Nuclear repulsion               ... done (  0.0 sec) ENN=    775.213763383347 Eh

SHARK setup successfully completed in   0.6 seconds

Maximum memory used throughout the entire GTOINT-calculation: 44.8 MB


           ************************************************************
           *        Program running with 16 parallel MPI-processes    *
           *              working on a common directory               *
           ************************************************************
-------------------------------------------------------------------------------
                                 ORCA SCF
-------------------------------------------------------------------------------

------------
SCF SETTINGS
------------
Hamiltonian:
 Ab initio Hamiltonian  Method          .... Hartree-Fock(GTOs)


General Settings:
 Integral files         IntName         .... DZ_1-butylsulfonylbutane
 Hartree-Fock type      HFTyp           .... RHF
 Total Charge           Charge          ....    0
 Multiplicity           Mult            ....    1
 Number of Electrons    NEL             ....   98
 Basis Dimension        Dim             ....  419
 Nuclear Repulsion      ENuc            ....    775.2137633833 Eh

Convergence Acceleration:
 DIIS                   CNVDIIS         .... on
   Start iteration      DIISMaxIt       ....    12
   Startup error        DIISStart       ....  0.200000
   # of expansion vecs  DIISMaxEq       ....     5
   Bias factor          DIISBfac        ....   1.050
   Max. coefficient     DIISMaxC        ....  10.000
 Trust-Rad. Augm. Hess. CNVTRAH         .... auto
   Auto Start mean grad. ratio tolernc. ....  1.125000
   Auto Start start iteration           ....    20
   Auto Start num. interpolation iter.  ....    10
   Max. Number of Micro iterations      ....    16
   Max. Number of Macro iterations      .... Maxiter - #DIIS iter
   Number of Davidson start vectors     ....     2
   Converg. threshold I  (grad. norm)   ....   1.000e-05
   Converg. threshold II (energy diff.) ....   1.000e-08
   Grad. Scal. Fac. for Micro threshold ....   0.100
   Minimum threshold for Micro iter.    ....   0.010
   NR start threshold (gradient norm)   ....   0.001
   Initial trust radius                 ....   0.400
   Minimum AH scaling param. (alpha)    ....   1.000
   Maximum AH scaling param. (alpha)    .... 1000.000
   Orbital update algorithm             .... Taylor
   White noise on init. David. guess    .... on
   Maximum white noise                  ....   0.010
   Quad. conv. algorithm                .... NR
 SOSCF                  CNVSOSCF        .... on
   Start iteration      SOSCFMaxIt      ....   150
   Startup grad/error   SOSCFStart      ....  0.003300
 Level Shifting         CNVShift        .... on
   Level shift para.    LevelShift      ....    0.2500
   Turn off err/grad.   ShiftErr        ....    0.0010
 Zerner damping         CNVZerner       .... off
 Static damping         CNVDamp         .... on
   Fraction old density DampFac         ....    0.7000
   Max. Damping (<1)    DampMax         ....    0.9800
   Min. Damping (>=0)   DampMin         ....    0.0000
   Turn off err/grad.   DampErr         ....    0.1000
 Fernandez-Rico         CNVRico         .... off

SCF Procedure:
 Maximum # iterations   MaxIter         ....   125
 SCF integral mode      SCFMode         .... Direct
   Integral package                     .... SHARK and LIBINT hybrid scheme
 Reset frequency        DirectResetFreq ....    20
 Integral Threshold     Thresh          ....  2.500e-11 Eh
 Primitive CutOff       TCut            ....  2.500e-12 Eh

Convergence Tolerance:
 Convergence Check Mode ConvCheckMode   .... Total+1el-Energy
 Convergence forced     ConvForced      .... 1
 Energy Change          TolE            ....  1.000e-08 Eh
 1-El. energy change                    ....  1.000e-05 Eh
 Orbital Gradient       TolG            ....  1.000e-05
 Orbital Rotation angle TolX            ....  1.000e-05
 DIIS Error             TolErr          ....  5.000e-07


Diagonalization of the overlap matrix:
Smallest eigenvalue                        ... 1.218e-05
Time for diagonalization                   ...    0.027 sec
Threshold for overlap eigenvalues          ... 1.000e-08
Number of eigenvalues below threshold      ... 0
Time for construction of square roots      ...    0.021 sec
Total time needed                          ...    0.049 sec

Time for model grid setup =    0.129 sec

------------------------------
INITIAL GUESS: MODEL POTENTIAL
------------------------------
Loading Hartree-Fock densities                     ... done
Calculating cut-offs                               ... done
Initializing the effective Hamiltonian             ... done
Setting up the integral package (SHARK)            ... done
Starting the Coulomb interaction                   ... done (   0.1 sec)
Reading the grid                                   ... done
Mapping shells                                     ... done
Starting the XC term evaluation                    ... done (   0.1 sec)
Transforming the Hamiltonian                       ... done (   0.0 sec)
Diagonalizing the Hamiltonian                      ... done (   0.0 sec)
Back transforming the eigenvectors                 ... done (   0.0 sec)
Now organizing SCF variables                       ... done
                      ------------------
                      INITIAL GUESS DONE (   0.4 sec)
                      ------------------
--------------
SCF ITERATIONS
--------------
ITER       Energy         Delta-E        Max-DP      RMS-DP      [F,P]     Damp
               ***  Starting incremental Fock matrix formation  ***
  0   -860.0478667056   0.000000000000 0.28076723  0.00435503  0.2610890 0.7000
  1   -860.2758380992  -0.227971393614 0.17674593  0.00314054  0.1497336 0.7000
                               ***Turning on DIIS***
  2   -860.4069823431  -0.131144243934 0.39197032  0.00721547  0.0787381 0.0000
  3   -859.7166415405   0.690340802664 0.08535765  0.00105051  0.0507161 0.0000
  4   -860.6184732012  -0.901831660718 0.04772128  0.00038196  0.0088047 0.0000
  5   -860.6680915504  -0.049618349239 0.01780362  0.00017638  0.0065267 0.0000
                      *** Initiating the SOSCF procedure ***
                           *** Shutting down DIIS ***
                      *** Re-Reading the Fockian *** 
                      *** Removing any level shift *** 
ITER      Energy       Delta-E        Grad      Rot      Max-DP    RMS-DP
  6   -860.66103080   0.0070607504  0.000476  0.000476  0.003835  0.000060
               *** Restarting incremental Fock matrix formation ***
  7   -860.67303531  -0.0120045065  0.000152  0.000224  0.007197  0.000034
  8   -860.67304044  -0.0000051326  0.000097  0.000155  0.004249  0.000024
  9   -860.67304154  -0.0000010998  0.000048  0.000031  0.001032  0.000006
 10   -860.67304168  -0.0000001399  0.000006  0.000010  0.000162  0.000001
 11   -860.67304169  -0.0000000071  0.000004  0.000006  0.000032  0.000001
                  ***Gradient check signals convergence***
              ***Rediagonalizing the Fockian in SOSCF/NRSCF***

               *****************************************************
               *                     SUCCESS                       *
               *           SCF CONVERGED AFTER  12 CYCLES          *
               *****************************************************


----------------
TOTAL SCF ENERGY
----------------

Total Energy       :         -860.67304171 Eh          -23420.10412 eV

Components:
Nuclear Repulsion  :          775.21376338 Eh           21094.63893 eV
Electronic Energy  :        -1635.88680509 Eh          -44514.74305 eV
One Electron Energy:        -2717.98946525 Eh          -73960.25342 eV
Two Electron Energy:         1082.10266016 Eh           29445.51036 eV

Virial components:
Potential Energy   :        -1720.61750712 Eh          -46820.38267 eV
Kinetic Energy     :          859.94446541 Eh           23400.27855 eV
Virial Ratio       :            2.00084724


---------------
SCF CONVERGENCE
---------------

  Last Energy change         ...   -2.2334e-08  Tolerance :   1.0000e-08
  Last MAX-Density change    ...    5.1208e-05  Tolerance :   1.0000e-07
  Last RMS-Density change    ...    4.2629e-07  Tolerance :   5.0000e-09
  Last Orbital Gradient      ...    4.7731e-07  Tolerance :   1.0000e-05
  Last Orbital Rotation      ...    1.1475e-06  Tolerance :   1.0000e-05

             **** THE GBW FILE WAS UPDATED (DZ_1-butylsulfonylbutane.gbw) ****
             **** DENSITY DZ_1-butylsulfonylbutane.scfp WAS UPDATED ****
             **** ENERGY FILE WAS UPDATED (DZ_1-butylsulfonylbutane.en.tmp) ****
             **** THE GBW FILE WAS UPDATED (DZ_1-butylsulfonylbutane.gbw) ****
             **** DENSITY DZ_1-butylsulfonylbutane.scfp WAS UPDATED ****
----------------
ORBITAL ENERGIES
----------------

  NO   OCC          E(Eh)            E(eV) 
   0   2.0000     -92.184544     -2508.4690 
   1   2.0000     -20.543011      -559.0038 
   2   2.0000     -20.542382      -558.9866 
   3   2.0000     -11.280684      -306.9630 
   4   2.0000     -11.280084      -306.9467 
   5   2.0000     -11.251690      -306.1741 
   6   2.0000     -11.244470      -305.9776 
   7   2.0000     -11.243686      -305.9563 
   8   2.0000     -11.239587      -305.8447 
   9   2.0000     -11.232198      -305.6436 
  10   2.0000     -11.226660      -305.4930 
  11   2.0000      -9.158161      -249.2062 
  12   2.0000      -6.843370      -186.2176 
  13   2.0000      -6.841964      -186.1793 
  14   2.0000      -6.841749      -186.1734 
  15   2.0000      -1.438682       -39.1485 
  16   2.0000      -1.324805       -36.0498 
  17   2.0000      -1.113371       -30.2964 
  18   2.0000      -1.100592       -29.9486 
  19   2.0000      -1.040387       -28.3104 
  20   2.0000      -1.013541       -27.5799 
  21   2.0000      -0.930809       -25.3286 
  22   2.0000      -0.893399       -24.3106 
  23   2.0000      -0.823096       -22.3976 
  24   2.0000      -0.814891       -22.1743 
  25   2.0000      -0.791297       -21.5323 
  26   2.0000      -0.688324       -18.7302 
  27   2.0000      -0.673805       -18.3352 
  28   2.0000      -0.666071       -18.1247 
  29   2.0000      -0.653396       -17.7798 
  30   2.0000      -0.634450       -17.2643 
  31   2.0000      -0.605546       -16.4777 
  32   2.0000      -0.604211       -16.4414 
  33   2.0000      -0.594490       -16.1769 
  34   2.0000      -0.590781       -16.0760 
  35   2.0000      -0.555251       -15.1092 
  36   2.0000      -0.553741       -15.0681 
  37   2.0000      -0.528837       -14.3904 
  38   2.0000      -0.522615       -14.2211 
  39   2.0000      -0.516888       -14.0652 
  40   2.0000      -0.499644       -13.5960 
  41   2.0000      -0.495532       -13.4841 
  42   2.0000      -0.491577       -13.3765 
  43   2.0000      -0.486564       -13.2401 
  44   2.0000      -0.485289       -13.2054 
  45   2.0000      -0.475705       -12.9446 
  46   2.0000      -0.465371       -12.6634 
  47   2.0000      -0.452930       -12.3248 
  48   2.0000      -0.411910       -11.2086 
  49   0.0000       0.028133         0.7655 
  50   0.0000       0.034366         0.9352 
  51   0.0000       0.039322         1.0700 
  52   0.0000       0.042030         1.1437 
  53   0.0000       0.051185         1.3928 
  54   0.0000       0.051995         1.4149 
  55   0.0000       0.053811         1.4643 
  56   0.0000       0.064610         1.7581 
  57   0.0000       0.065783         1.7900 
  58   0.0000       0.072589         1.9753 
  59   0.0000       0.075475         2.0538 
  60   0.0000       0.078195         2.1278 
  61   0.0000       0.089257         2.4288 
  62   0.0000       0.090111         2.4520 
  63   0.0000       0.094061         2.5595 
  64   0.0000       0.098067         2.6685 
  65   0.0000       0.105943         2.8829 
  66   0.0000       0.117026         3.1845 
  67   0.0000       0.121991         3.3195 
  68   0.0000       0.132821         3.6142 
  69   0.0000       0.133454         3.6315 
  70   0.0000       0.137939         3.7535 
  71   0.0000       0.143522         3.9054 
  72   0.0000       0.148616         4.0440 
  73   0.0000       0.153223         4.1694 
  74   0.0000       0.154626         4.2076 
  75   0.0000       0.163165         4.4399 
  76   0.0000       0.167024         4.5449 
  77   0.0000       0.169726         4.6185 
  78   0.0000       0.170701         4.6450 
  79   0.0000       0.175064         4.7637 
  80   0.0000       0.176744         4.8094 
  81   0.0000       0.178178         4.8485 
  82   0.0000       0.184479         5.0199 
  83   0.0000       0.190706         5.1894 
  84   0.0000       0.193269         5.2591 
  85   0.0000       0.195351         5.3158 
  86   0.0000       0.203790         5.5454 
  87   0.0000       0.206143         5.6094 
  88   0.0000       0.210661         5.7324 
  89   0.0000       0.215109         5.8534 
  90   0.0000       0.218607         5.9486 
  91   0.0000       0.224711         6.1147 
  92   0.0000       0.225992         6.1496 
  93   0.0000       0.235339         6.4039 
  94   0.0000       0.240884         6.5548 
  95   0.0000       0.246086         6.6963 
  96   0.0000       0.247866         6.7448 
  97   0.0000       0.248680         6.7669 
  98   0.0000       0.255037         6.9399 
  99   0.0000       0.262257         7.1364 
 100   0.0000       0.265361         7.2208 
 101   0.0000       0.269989         7.3468 
 102   0.0000       0.277370         7.5476 
 103   0.0000       0.282391         7.6843 
 104   0.0000       0.288787         7.8583 
 105   0.0000       0.294609         8.0167 
 106   0.0000       0.299878         8.1601 
 107   0.0000       0.305377         8.3097 
 108   0.0000       0.308582         8.3970 
 109   0.0000       0.314966         8.5707 
 110   0.0000       0.316456         8.6112 
 111   0.0000       0.328926         8.9505 
 112   0.0000       0.330469         8.9925 
 113   0.0000       0.339971         9.2511 
 114   0.0000       0.348713         9.4890 
 115   0.0000       0.349795         9.5184 
 116   0.0000       0.354837         9.6556 
 117   0.0000       0.356428         9.6989 
 118   0.0000       0.360735         9.8161 
 119   0.0000       0.369808        10.0630 
 120   0.0000       0.372925        10.1478 
 121   0.0000       0.381390        10.3781 
 122   0.0000       0.387337        10.5400 
 123   0.0000       0.389636        10.6025 
 124   0.0000       0.391083        10.6419 
 125   0.0000       0.396085        10.7780 
 126   0.0000       0.405283        11.0283 
 127   0.0000       0.405787        11.0420 
 128   0.0000       0.418574        11.3900 
 129   0.0000       0.420794        11.4504 
 130   0.0000       0.425943        11.5905 
 131   0.0000       0.428671        11.6647 
 132   0.0000       0.436288        11.8720 
 133   0.0000       0.441772        12.0212 
 134   0.0000       0.445943        12.1347 
 135   0.0000       0.453597        12.3430 
 136   0.0000       0.457063        12.4373 
 137   0.0000       0.464578        12.6418 
 138   0.0000       0.467648        12.7254 
 139   0.0000       0.468657        12.7528 
 140   0.0000       0.472688        12.8625 
 141   0.0000       0.476147        12.9566 
 142   0.0000       0.481915        13.1136 
 143   0.0000       0.485586        13.2135 
 144   0.0000       0.486734        13.2447 
 145   0.0000       0.497073        13.5260 
 146   0.0000       0.500436        13.6176 
 147   0.0000       0.506179        13.7738 
 148   0.0000       0.509171        13.8553 
 149   0.0000       0.510680        13.8963 
 150   0.0000       0.514256        13.9936 
 151   0.0000       0.519247        14.1294 
 152   0.0000       0.525020        14.2865 
 153   0.0000       0.526975        14.3397 
 154   0.0000       0.529506        14.4086 
 155   0.0000       0.532598        14.4927 
 156   0.0000       0.542632        14.7658 
 157   0.0000       0.547218        14.8906 
 158   0.0000       0.549036        14.9400 
 159   0.0000       0.553719        15.0675 
 160   0.0000       0.556612        15.1462 
 161   0.0000       0.572213        15.5707 
 162   0.0000       0.577795        15.7226 
 163   0.0000       0.579085        15.7577 
 164   0.0000       0.583919        15.8892 
 165   0.0000       0.588606        16.0168 
 166   0.0000       0.595284        16.1985 
 167   0.0000       0.599907        16.3243 
 168   0.0000       0.605802        16.4847 
 169   0.0000       0.608676        16.5629 
 170   0.0000       0.613697        16.6995 
 171   0.0000       0.616724        16.7819 
 172   0.0000       0.626068        17.0362 
 173   0.0000       0.628785        17.1101 
 174   0.0000       0.642311        17.4782 
 175   0.0000       0.644954        17.5501 
 176   0.0000       0.646684        17.5972 
 177   0.0000       0.651763        17.7354 
 178   0.0000       0.653169        17.7736 
 179   0.0000       0.660277        17.9671 
 180   0.0000       0.670279        18.2392 
 181   0.0000       0.676529        18.4093 
 182   0.0000       0.680332        18.5128 
 183   0.0000       0.690991        18.8028 
 184   0.0000       0.693109        18.8604 
 185   0.0000       0.698360        19.0033 
 186   0.0000       0.706759        19.2319 
 187   0.0000       0.715252        19.4630 
 188   0.0000       0.717665        19.5287 
 189   0.0000       0.719270        19.5723 
 190   0.0000       0.728321        19.8186 
 191   0.0000       0.732439        19.9307 
 192   0.0000       0.738476        20.0949 
 193   0.0000       0.743835        20.2408 
 194   0.0000       0.747070        20.3288 
 195   0.0000       0.754290        20.5253 
 196   0.0000       0.759858        20.6768 
 197   0.0000       0.770082        20.9550 
 198   0.0000       0.772703        21.0263 
 199   0.0000       0.785811        21.3830 
 200   0.0000       0.790723        21.5167 
 201   0.0000       0.797708        21.7067 
 202   0.0000       0.803775        21.8718 
 203   0.0000       0.805870        21.9288 
 204   0.0000       0.810859        22.0646 
 205   0.0000       0.818655        22.2767 
 206   0.0000       0.821594        22.3567 
 207   0.0000       0.825952        22.4753 
 208   0.0000       0.834971        22.7207 
 209   0.0000       0.836553        22.7638 
 210   0.0000       0.842303        22.9202 
 211   0.0000       0.852984        23.2109 
 212   0.0000       0.853947        23.2371 
 213   0.0000       0.861785        23.4504 
 214   0.0000       0.874182        23.7877 
 215   0.0000       0.875251        23.8168 
 216   0.0000       0.882547        24.0153 
 217   0.0000       0.889625        24.2079 
 218   0.0000       0.896355        24.3911 
 219   0.0000       0.904662        24.6171 
 220   0.0000       0.907407        24.6918 
 221   0.0000       0.915319        24.9071 
 222   0.0000       0.929265        25.2866 
 223   0.0000       0.936838        25.4926 
 224   0.0000       0.941208        25.6116 
 225   0.0000       0.945442        25.7268 
 226   0.0000       0.955224        25.9930 
 227   0.0000       0.967819        26.3357 
 228   0.0000       0.971800        26.4440 
 229   0.0000       0.979791        26.6615 
 230   0.0000       0.990220        26.9453 
 231   0.0000       1.002584        27.2817 
 232   0.0000       1.008414        27.4404 
 233   0.0000       1.012839        27.5607 
 234   0.0000       1.035934        28.1892 
 235   0.0000       1.048578        28.5333 
 236   0.0000       1.057107        28.7653 
 237   0.0000       1.077747        29.3270 
 238   0.0000       1.098398        29.8889 
 239   0.0000       1.108350        30.1597 
 240   0.0000       1.131051        30.7775 
 241   0.0000       1.139296        31.0018 
 242   0.0000       1.144310        31.1383 
 243   0.0000       1.151701        31.3394 
 244   0.0000       1.157300        31.4917 
 245   0.0000       1.167563        31.7710 
 246   0.0000       1.178000        32.0550 
 247   0.0000       1.183382        32.2015 
 248   0.0000       1.189085        32.3567 
 249   0.0000       1.196945        32.5705 
 250   0.0000       1.220520        33.2120 
 251   0.0000       1.228419        33.4270 
 252   0.0000       1.235527        33.6204 
 253   0.0000       1.252888        34.0928 
 254   0.0000       1.266147        34.4536 
 255   0.0000       1.269170        34.5359 
 256   0.0000       1.279341        34.8126 
 257   0.0000       1.286149        34.9979 
 258   0.0000       1.296721        35.2856 
 259   0.0000       1.305916        35.5358 
 260   0.0000       1.312465        35.7140 
 261   0.0000       1.319802        35.9136 
 262   0.0000       1.327776        36.1306 
 263   0.0000       1.337674        36.4000 
 264   0.0000       1.350773        36.7564 
 265   0.0000       1.361321        37.0434 
 266   0.0000       1.377135        37.4738 
 267   0.0000       1.390661        37.8418 
 268   0.0000       1.395786        37.9813 
 269   0.0000       1.421840        38.6902 
 270   0.0000       1.445459        39.3329 
 271   0.0000       1.467923        39.9442 
 272   0.0000       1.475987        40.1636 
 273   0.0000       1.478784        40.2398 
 274   0.0000       1.485181        40.4138 
 275   0.0000       1.500739        40.8372 
 276   0.0000       1.518182        41.3118 
 277   0.0000       1.528770        41.6000 
 278   0.0000       1.548551        42.1382 
 279   0.0000       1.572251        42.7831 
 280   0.0000       1.588914        43.2366 
 281   0.0000       1.592544        43.3353 
 282   0.0000       1.611335        43.8466 
 283   0.0000       1.625364        44.2284 
 284   0.0000       1.637057        44.5466 
 285   0.0000       1.639537        44.6141 
 286   0.0000       1.658388        45.1270 
 287   0.0000       1.677270        45.6408 
 288   0.0000       1.710878        46.5554 
 289   0.0000       1.716703        46.7139 
 290   0.0000       1.727499        47.0076 
 291   0.0000       1.732883        47.1541 
 292   0.0000       1.744085        47.4590 
 293   0.0000       1.748477        47.5785 
 294   0.0000       1.772580        48.2344 
 295   0.0000       1.784651        48.5628 
 296   0.0000       1.803932        49.0875 
 297   0.0000       1.817354        49.4527 
 298   0.0000       1.831270        49.8314 
 299   0.0000       1.843700        50.1696 
 300   0.0000       1.848980        50.3133 
 301   0.0000       1.856296        50.5124 
 302   0.0000       1.862801        50.6894 
 303   0.0000       1.875868        51.0450 
 304   0.0000       1.884736        51.2863 
 305   0.0000       1.902699        51.7751 
 306   0.0000       1.906668        51.8831 
 307   0.0000       1.926997        52.4363 
 308   0.0000       1.942871        52.8682 
 309   0.0000       1.964374        53.4533 
 310   0.0000       1.970955        53.6324 
 311   0.0000       1.980935        53.9040 
 312   0.0000       1.984764        54.0082 
 313   0.0000       1.989552        54.1385 
 314   0.0000       2.004673        54.5499 
 315   0.0000       2.013536        54.7911 
 316   0.0000       2.045319        55.6560 
 317   0.0000       2.054412        55.9034 
 318   0.0000       2.070881        56.3515 
 319   0.0000       2.075969        56.4900 
 320   0.0000       2.084658        56.7264 
 321   0.0000       2.088969        56.8437 
 322   0.0000       2.092323        56.9350 
 323   0.0000       2.102641        57.2158 
 324   0.0000       2.114193        57.5301 
 325   0.0000       2.116334        57.5884 
 326   0.0000       2.118716        57.6532 
 327   0.0000       2.132754        58.0352 
 328   0.0000       2.145427        58.3800 
 329   0.0000       2.155119        58.6438 
 330   0.0000       2.156604        58.6842 
 331   0.0000       2.170064        59.0504 
 332   0.0000       2.170701        59.0678 
 333   0.0000       2.185432        59.4686 
 334   0.0000       2.192951        59.6732 
 335   0.0000       2.202216        59.9253 
 336   0.0000       2.220481        60.4223 
 337   0.0000       2.224038        60.5192 
 338   0.0000       2.240718        60.9730 
 339   0.0000       2.250277        61.2331 
 340   0.0000       2.261146        61.5289 
 341   0.0000       2.276278        61.9407 
 342   0.0000       2.284192        62.1560 
 343   0.0000       2.292761        62.3892 
 344   0.0000       2.300395        62.5969 
 345   0.0000       2.311512        62.8994 
 346   0.0000       2.314211        62.9729 
 347   0.0000       2.332703        63.4761 
 348   0.0000       2.349441        63.9315 
 349   0.0000       2.361754        64.2666 
 350   0.0000       2.372378        64.5557 
 351   0.0000       2.398407        65.2640 
 352   0.0000       2.407625        65.5148 
 353   0.0000       2.416790        65.7642 
 354   0.0000       2.441601        66.4393 
 355   0.0000       2.458074        66.8876 
 356   0.0000       2.469886        67.2090 
 357   0.0000       2.477630        67.4198 
 358   0.0000       2.494895        67.8895 
 359   0.0000       2.501238        68.0621 
 360   0.0000       2.511496        68.3413 
 361   0.0000       2.526584        68.7518 
 362   0.0000       2.532132        68.9028 
 363   0.0000       2.558120        69.6100 
 364   0.0000       2.568684        69.8975 
 365   0.0000       2.609393        71.0052 
 366   0.0000       2.634543        71.6896 
 367   0.0000       2.636841        71.7521 
 368   0.0000       2.644369        71.9569 
 369   0.0000       2.659417        72.3664 
 370   0.0000       2.681130        72.9573 
 371   0.0000       2.690538        73.2133 
 372   0.0000       2.703677        73.5708 
 373   0.0000       2.709940        73.7412 
 374   0.0000       2.723668        74.1148 
 375   0.0000       2.730144        74.2910 
 376   0.0000       2.743006        74.6410 
 377   0.0000       2.748760        74.7976 
 378   0.0000       2.763116        75.1882 
 379   0.0000       2.769603        75.3647 
 380   0.0000       2.876859        78.2833 
 381   0.0000       2.884721        78.4972 
 382   0.0000       2.887956        78.5853 
 383   0.0000       2.893136        78.7262 
 384   0.0000       2.905434        79.0609 
 385   0.0000       2.916760        79.3691 
 386   0.0000       2.940698        80.0205 
 387   0.0000       2.945128        80.1410 
 388   0.0000       2.964706        80.6738 
 389   0.0000       2.986658        81.2711 
 390   0.0000       3.006739        81.8175 
 391   0.0000       3.019736        82.1712 
 392   0.0000       3.049500        82.9811 
 393   0.0000       3.057603        83.2016 
 394   0.0000       3.075685        83.6937 
 395   0.0000       3.099978        84.3547 
 396   0.0000       3.130110        85.1746 
 397   0.0000       3.145561        85.5951 
 398   0.0000       3.152174        85.7750 
 399   0.0000       3.208763        87.3149 
 400   0.0000       3.218776        87.5873 
 401   0.0000       3.241048        88.1934 
 402   0.0000       3.244101        88.2765 
 403   0.0000       3.271767        89.0293 
 404   0.0000       3.329179        90.5916 
 405   0.0000       3.387396        92.1757 
 406   0.0000       3.481243        94.7294 
 407   0.0000       3.555096        96.7391 
 408   0.0000       3.641699        99.0957 
 409   0.0000       3.786217       103.0282 
 410   0.0000       3.789889       103.1281 
 411   0.0000       3.808048       103.6222 
 412   0.0000       3.829803       104.2142 
 413   0.0000       3.856001       104.9271 
 414   0.0000       3.858050       104.9829 
 415   0.0000       3.868603       105.2700 
 416   0.0000       3.898448       106.0822 
 417   0.0000       3.918232       106.6205 
 418   0.0000       4.048283       110.1594 

                    ********************************
                    * MULLIKEN POPULATION ANALYSIS *
                    ********************************

-----------------------
MULLIKEN ATOMIC CHARGES
-----------------------
   0 C :    0.582347
   1 C :    0.404140
   2 C :    0.284382
   3 C :   -0.137854
   4 S :    2.951377
   5 O :   -1.276475
   6 C :   -0.217196
   7 C :    0.324310
   8 C :    0.409077
   9 C :    0.594823
  10 O :   -1.318380
  11 H :   -0.096933
  12 H :   -0.071167
  13 H :   -0.072999
  14 H :   -0.192377
  15 H :   -0.170863
  16 H :   -0.253635
  17 H :   -0.188325
  18 H :   -0.040687
  19 H :   -0.176066
  20 H :   -0.192376
  21 H :   -0.191598
  22 H :   -0.171928
  23 H :   -0.183383
  24 H :   -0.177788
  25 H :   -0.181276
  26 H :   -0.085784
  27 H :   -0.082319
  28 H :   -0.071044
Sum of atomic charges:   -0.0000000

--------------------------------
MULLIKEN REDUCED ORBITAL CHARGES
--------------------------------
  0 C s       :     2.762142  s :     2.762142
      pz      :     0.879609  p :     2.663745
      px      :     0.832587
      py      :     0.951550
      dz2     :    -0.003479  d :    -0.008234
      dxz     :    -0.003419
      dyz     :     0.002213
      dx2y2   :    -0.004542
      dxy     :     0.000993
  1 C s       :     2.502932  s :     2.502932
      pz      :     0.912343  p :     2.944916
      px      :     1.104086
      py      :     0.928488
      dz2     :     0.014556  d :     0.148012
      dxz     :     0.029039
      dyz     :     0.026627
      dx2y2   :     0.044699
      dxy     :     0.033091
  2 C s       :     2.733152  s :     2.733152
      pz      :     0.956034  p :     2.924959
      px      :     1.087728
      py      :     0.881197
      dz2     :    -0.017509  d :     0.057507
      dxz     :     0.046480
      dyz     :     0.029782
      dx2y2   :     0.020490
      dxy     :    -0.021736
  3 C s       :     2.977927  s :     2.977927
      pz      :     0.987623  p :     3.090968
      px      :     1.037091
      py      :     1.066254
      dz2     :     0.011675  d :     0.068959
      dxz     :     0.023315
      dyz     :     0.023660
      dx2y2   :     0.017593
      dxy     :    -0.007284
  4 S s       :     4.506770  s :     4.506770
      pz      :     2.629370  p :     8.103845
      px      :     2.720440
      py      :     2.754035
      dz2     :     0.113844  d :     0.438008
      dxz     :     0.047278
      dyz     :     0.118679
      dx2y2   :     0.086971
      dxy     :     0.071236
  5 O s       :     4.235531  s :     4.235531
      pz      :     1.703256  p :     4.995779
      px      :     1.807613
      py      :     1.484909
      dz2     :     0.008028  d :     0.045166
      dxz     :     0.006213
      dyz     :     0.011709
      dx2y2   :     0.009315
      dxy     :     0.009901
  6 C s       :     2.929122  s :     2.929122
      pz      :     0.977798  p :     3.218326
      px      :     1.275220
      py      :     0.965307
      dz2     :    -0.004550  d :     0.069749
      dxz     :     0.048209
      dyz     :     0.020584
      dx2y2   :     0.015233
      dxy     :    -0.009727
  7 C s       :     2.702737  s :     2.702737
      pz      :     0.944272  p :     2.915759
      px      :     0.945554
      py      :     1.025932
      dz2     :    -0.011971  d :     0.057194
      dxz     :     0.029392
      dyz     :     0.020378
      dx2y2   :     0.005411
      dxy     :     0.013986
  8 C s       :     2.532816  s :     2.532816
      pz      :     0.910051  p :     2.912917
      px      :     1.011397
      py      :     0.991470
      dz2     :     0.003640  d :     0.145189
      dxz     :     0.028972
      dyz     :     0.010103
      dx2y2   :     0.050350
      dxy     :     0.052124
  9 C s       :     2.751147  s :     2.751147
      pz      :     0.867299  p :     2.662973
      px      :     0.993056
      py      :     0.802618
      dz2     :    -0.004019  d :    -0.008943
      dxz     :     0.006428
      dyz     :    -0.009589
      dx2y2   :     0.007835
      dxy     :    -0.009598
 10 O s       :     4.254059  s :     4.254059
      pz      :     1.297470  p :     5.019277
      px      :     1.874349
      py      :     1.847459
      dz2     :     0.014247  d :     0.045045
      dxz     :     0.014827
      dyz     :     0.015951
      dx2y2   :     0.000083
      dxy     :    -0.000064
 11 H s       :     1.116252  s :     1.116252
      pz      :    -0.013911  p :    -0.019319
      px      :    -0.002919
      py      :    -0.002490
 12 H s       :     1.094056  s :     1.094056
      pz      :    -0.001665  p :    -0.022889
      px      :    -0.010730
      py      :    -0.010493
 13 H s       :     1.093004  s :     1.093004
      pz      :    -0.010110  p :    -0.020004
      px      :     0.003164
      py      :    -0.013058
 14 H s       :     1.229300  s :     1.229300
      pz      :    -0.018907  p :    -0.036922
      px      :    -0.008947
      py      :    -0.009068
 15 H s       :     1.209924  s :     1.209924
      pz      :     0.000124  p :    -0.039061
      px      :    -0.015588
      py      :    -0.023597
 16 H s       :     1.290666  s :     1.290666
      pz      :    -0.017899  p :    -0.037030
      px      :    -0.011419
      py      :    -0.007713
 17 H s       :     1.228643  s :     1.228643
      pz      :    -0.004721  p :    -0.040318
      px      :    -0.020537
      py      :    -0.015059
 18 H s       :     1.060032  s :     1.060032
      pz      :    -0.017799  p :    -0.019345
      px      :    -0.004090
      py      :     0.002545
 19 H s       :     1.177396  s :     1.177396
      pz      :     0.017831  p :    -0.001330
      px      :    -0.006233
      py      :    -0.012928
 20 H s       :     1.189863  s :     1.189863
      pz      :     0.028027  p :     0.002514
      px      :    -0.016864
      py      :    -0.008648
 21 H s       :     1.210759  s :     1.210759
      pz      :    -0.007948  p :    -0.019162
      px      :    -0.020035
      py      :     0.008821
 22 H s       :     1.212733  s :     1.212733
      pz      :    -0.000691  p :    -0.040804
      px      :    -0.014262
      py      :    -0.025851
 23 H s       :     1.224214  s :     1.224214
      pz      :    -0.014137  p :    -0.040830
      px      :    -0.013785
      py      :    -0.012909
 24 H s       :     1.215069  s :     1.215069
      pz      :     0.004769  p :    -0.037280
      px      :    -0.025122
      py      :    -0.016927
 25 H s       :     1.215507  s :     1.215507
      pz      :    -0.011762  p :    -0.034231
      px      :    -0.021866
      py      :    -0.000603
 26 H s       :     1.107670  s :     1.107670
      pz      :    -0.011102  p :    -0.021886
      px      :    -0.004570
      py      :    -0.006214
 27 H s       :     1.106177  s :     1.106177
      pz      :    -0.000976  p :    -0.023859
      px      :    -0.004315
      py      :    -0.018568
 28 H s       :     1.091099  s :     1.091099
      pz      :    -0.011983  p :    -0.020055
      px      :    -0.010807
      py      :     0.002735


                     *******************************
                     * LOEWDIN POPULATION ANALYSIS *
                     *******************************

----------------------
LOEWDIN ATOMIC CHARGES
----------------------
   0 C :    0.138077
   1 C :   -0.068184
   2 C :   -0.065319
   3 C :   -0.075386
   4 S :    0.947109
   5 O :   -0.404220
   6 C :   -0.081501
   7 C :   -0.060483
   8 C :   -0.070078
   9 C :    0.137729
  10 O :   -0.399585
  11 H :   -0.018675
  12 H :   -0.016325
  13 H :   -0.018986
  14 H :    0.013972
  15 H :    0.012418
  16 H :    0.008047
  17 H :    0.015664
  18 H :    0.005155
  19 H :   -0.000257
  20 H :    0.001254
  21 H :   -0.005551
  22 H :    0.018046
  23 H :    0.017432
  24 H :    0.011697
  25 H :    0.011589
  26 H :   -0.016855
  27 H :   -0.016873
  28 H :   -0.019911

-------------------------------
LOEWDIN REDUCED ORBITAL CHARGES
-------------------------------
  0 C s       :     2.598846  s :     2.598846
      pz      :     0.922178  p :     2.759591
      px      :     0.922222
      py      :     0.915191
      dz2     :     0.151141  d :     0.503486
      dxz     :     0.051514
      dyz     :     0.065724
      dx2y2   :     0.141623
      dxy     :     0.093484
  1 C s       :     2.576654  s :     2.576654
      pz      :     0.904413  p :     2.705571
      px      :     0.893627
      py      :     0.907531
      dz2     :     0.207053  d :     0.785959
      dxz     :     0.122484
      dyz     :     0.076586
      dx2y2   :     0.175868
      dxy     :     0.203968
  2 C s       :     2.571064  s :     2.571064
      pz      :     0.915713  p :     2.722397
      px      :     0.911596
      py      :     0.895087
      dz2     :     0.194574  d :     0.771858
      dxz     :     0.127616
      dyz     :     0.078915
      dx2y2   :     0.165679
      dxy     :     0.205074
  3 C s       :     2.612595  s :     2.612595
      pz      :     0.940823  p :     2.774980
      px      :     0.872074
      py      :     0.962083
      dz2     :     0.179583  d :     0.687811
      dxz     :     0.104427
      dyz     :     0.081236
      dx2y2   :     0.174114
      dxy     :     0.148452
  4 S s       :     4.616540  s :     4.616540
      pz      :     2.827758  p :     8.513841
      px      :     2.849040
      py      :     2.837043
      dz2     :     0.474152  d :     1.922510
      dxz     :     0.375489
      dyz     :     0.439981
      dx2y2   :     0.303983
      dxy     :     0.328905
  5 O s       :     3.499168  s :     3.499168
      pz      :     1.604745  p :     4.732737
      px      :     1.632401
      py      :     1.495591
      dz2     :     0.021884  d :     0.172315
      dxz     :     0.016920
      dyz     :     0.052334
      dx2y2   :     0.040178
      dxy     :     0.041000
  6 C s       :     2.611739  s :     2.611739
      pz      :     0.947686  p :     2.777919
      px      :     0.935750
      py      :     0.894483
      dz2     :     0.164584  d :     0.691843
      dxz     :     0.122058
      dyz     :     0.068989
      dx2y2   :     0.125419
      dxy     :     0.210792
  7 C s       :     2.570897  s :     2.570897
      pz      :     0.916921  p :     2.718409
      px      :     0.882427
      py      :     0.919061
      dz2     :     0.173622  d :     0.771178
      dxz     :     0.127002
      dyz     :     0.092363
      dx2y2   :     0.192707
      dxy     :     0.185483
  8 C s       :     2.576963  s :     2.576963
      pz      :     0.904378  p :     2.705841
      px      :     0.903169
      py      :     0.898293
      dz2     :     0.179036  d :     0.787274
      dxz     :     0.129146
      dyz     :     0.090604
      dx2y2   :     0.188166
      dxy     :     0.200321
  9 C s       :     2.598909  s :     2.598909
      pz      :     0.923793  p :     2.759662
      px      :     0.911748
      py      :     0.924121
      dz2     :     0.130853  d :     0.503701
      dxz     :     0.097045
      dyz     :     0.033979
      dx2y2   :     0.082129
      dxy     :     0.159695
 10 O s       :     3.495051  s :     3.495051
      pz      :     1.411797  p :     4.732629
      px      :     1.659125
      py      :     1.661706
      dz2     :     0.094581  d :     0.171906
      dxz     :     0.040055
      dyz     :     0.035090
      dx2y2   :     0.001030
      dxy     :     0.001151
 11 H s       :     0.740865  s :     0.740865
      pz      :     0.073760  p :     0.277810
      px      :     0.086370
      py      :     0.117680
 12 H s       :     0.739144  s :     0.739144
      pz      :     0.139047  p :     0.277181
      px      :     0.070473
      py      :     0.067661
 13 H s       :     0.742234  s :     0.742234
      pz      :     0.079656  p :     0.276751
      px      :     0.130257
      py      :     0.066838
 14 H s       :     0.728652  s :     0.728652
      pz      :     0.067997  p :     0.257376
      px      :     0.073896
      py      :     0.115482
 15 H s       :     0.730816  s :     0.730816
      pz      :     0.134147  p :     0.256766
      px      :     0.058262
      py      :     0.064357
 16 H s       :     0.727391  s :     0.727391
      pz      :     0.067851  p :     0.264562
      px      :     0.080861
      py      :     0.115849
 17 H s       :     0.717011  s :     0.717011
      pz      :     0.136355  p :     0.267324
      px      :     0.065209
      py      :     0.065760
 18 H s       :     0.722416  s :     0.722416
      pz      :     0.068417  p :     0.272429
      px      :     0.084196
      py      :     0.119816
 19 H s       :     0.732112  s :     0.732112
      pz      :     0.138944  p :     0.268145
      px      :     0.061576
      py      :     0.067625
 20 H s       :     0.731968  s :     0.731968
      pz      :     0.142325  p :     0.266777
      px      :     0.060238
      py      :     0.064214
 21 H s       :     0.730620  s :     0.730620
      pz      :     0.082125  p :     0.274931
      px      :     0.078518
      py      :     0.114289
 22 H s       :     0.719739  s :     0.719739
      pz      :     0.137693  p :     0.262215
      px      :     0.061485
      py      :     0.063037
 23 H s       :     0.719691  s :     0.719691
      pz      :     0.077074  p :     0.262877
      px      :     0.071244
      py      :     0.114559
 24 H s       :     0.730874  s :     0.730874
      pz      :     0.136300  p :     0.257429
      px      :     0.058374
      py      :     0.062755
 25 H s       :     0.730974  s :     0.730974
      pz      :     0.078193  p :     0.257437
      px      :     0.068930
      py      :     0.110315
 26 H s       :     0.739495  s :     0.739495
      pz      :     0.083285  p :     0.277360
      px      :     0.072947
      py      :     0.121128
 27 H s       :     0.739577  s :     0.739577
      pz      :     0.140988  p :     0.277297
      px      :     0.062930
      py      :     0.073378
 28 H s       :     0.743075  s :     0.743075
      pz      :     0.078244  p :     0.276836
      px      :     0.082091
      py      :     0.116500


                      *****************************
                      * MAYER POPULATION ANALYSIS *
                      *****************************

  NA   - Mulliken gross atomic population
  ZA   - Total nuclear charge
  QA   - Mulliken gross atomic charge
  VA   - Mayer's total valence
  BVA  - Mayer's bonded valence
  FA   - Mayer's free valence

  ATOM       NA         ZA         QA         VA         BVA        FA
  0 C      5.4177     6.0000     0.5823     3.7048     3.7048    -0.0000
  1 C      5.5959     6.0000     0.4041     3.8287     3.8287    -0.0000
  2 C      5.7156     6.0000     0.2844     4.1932     4.1932    -0.0000
  3 C      6.1379     6.0000    -0.1379     4.3176     4.3176     0.0000
  4 S     13.0486    16.0000     2.9514     2.7521     2.7521    -0.0000
  5 O      9.2765     8.0000    -1.2765     0.9880     0.9880     0.0000
  6 C      6.2172     6.0000    -0.2172     4.7522     4.7522     0.0000
  7 C      5.6757     6.0000     0.3243     4.3666     4.3666     0.0000
  8 C      5.5909     6.0000     0.4091     3.7667     3.7667     0.0000
  9 C      5.4052     6.0000     0.5948     3.6753     3.6753    -0.0000
 10 O      9.3184     8.0000    -1.3184     1.1354     1.1354     0.0000
 11 H      1.0969     1.0000    -0.0969     0.8145     0.8145     0.0000
 12 H      1.0712     1.0000    -0.0712     0.7937     0.7937    -0.0000
 13 H      1.0730     1.0000    -0.0730     0.7590     0.7590    -0.0000
 14 H      1.1924     1.0000    -0.1924     0.7214     0.7214    -0.0000
 15 H      1.1709     1.0000    -0.1709     0.6938     0.6938    -0.0000
 16 H      1.2536     1.0000    -0.2536     0.6866     0.6866     0.0000
 17 H      1.1883     1.0000    -0.1883     0.7355     0.7355    -0.0000
 18 H      1.0407     1.0000    -0.0407     0.8806     0.8806     0.0000
 19 H      1.1761     1.0000    -0.1761     0.8772     0.8772     0.0000
 20 H      1.1924     1.0000    -0.1924     0.9341     0.9341    -0.0000
 21 H      1.1916     1.0000    -0.1916     0.9283     0.9283     0.0000
 22 H      1.1719     1.0000    -0.1719     0.7377     0.7377     0.0000
 23 H      1.1834     1.0000    -0.1834     0.7568     0.7568    -0.0000
 24 H      1.1778     1.0000    -0.1778     0.7055     0.7055    -0.0000
 25 H      1.1813     1.0000    -0.1813     0.6981     0.6981    -0.0000
 26 H      1.0858     1.0000    -0.0858     0.8039     0.8039    -0.0000
 27 H      1.0823     1.0000    -0.0823     0.7999     0.7999    -0.0000
 28 H      1.0710     1.0000    -0.0710     0.7604     0.7604    -0.0000

  Mayer bond orders larger than 0.100000
B(  0-C ,  1-C ) :   1.1762 B(  0-C , 11-H ) :   0.9155 B(  0-C , 12-H ) :   0.9233 
B(  0-C , 13-H ) :   0.8931 B(  1-C ,  2-C ) :   1.2215 B(  1-C , 14-H ) :   0.7272 
B(  1-C , 15-H ) :   0.7825 B(  2-C ,  3-C ) :   1.2698 B(  2-C , 10-O ) :  -0.1331 
B(  2-C , 14-H ) :   0.1176 B(  2-C , 16-H ) :   0.7333 B(  2-C , 17-H ) :   0.7798 
B(  3-C ,  4-S ) :   0.8216 B(  3-C , 10-O ) :   0.2638 B(  3-C , 18-H ) :   0.8422 
B(  3-C , 19-H ) :   0.9565 B(  4-S ,  5-O ) :   0.5158 B(  4-S ,  6-C ) :   1.0034 
B(  4-S , 10-O ) :   0.6095 B(  5-O ,  6-C ) :   0.2397 B(  5-O , 10-O ) :   0.1349 
B(  6-C ,  7-C ) :   1.5079 B(  6-C ,  8-C ) :  -0.1099 B(  6-C , 10-O ) :   0.1628 
B(  6-C , 20-H ) :   0.9190 B(  6-C , 21-H ) :   0.8899 B(  7-C ,  8-C ) :   1.2220 
B(  7-C , 22-H ) :   0.7981 B(  7-C , 23-H ) :   0.7481 B(  8-C ,  9-C ) :   1.2207 
B(  8-C , 24-H ) :   0.7544 B(  8-C , 25-H ) :   0.7521 B(  9-C , 26-H ) :   0.9095 
B(  9-C , 27-H ) :   0.9080 B(  9-C , 28-H ) :   0.9122 

-------
TIMINGS
-------

Total SCF time: 0 days 0 hours 2 min 45 sec 

Total time                  ....     165.164 sec
Sum of individual times     ....     164.313 sec  ( 99.5%)

Fock matrix formation       ....     162.992 sec  ( 98.7%)
Diagonalization             ....       0.339 sec  (  0.2%)
Density matrix formation    ....       0.024 sec  (  0.0%)
Population analysis         ....       0.096 sec  (  0.1%)
Initial guess               ....       0.269 sec  (  0.2%)
Orbital Transformation      ....       0.000 sec  (  0.0%)
Orbital Orthonormalization  ....       0.000 sec  (  0.0%)
DIIS solution               ....       0.189 sec  (  0.1%)
SOSCF solution              ....       0.274 sec  (  0.2%)

Maximum memory used throughout the entire SCF-calculation: 250.4 MB


           ************************************************************
           *        Program running with 16 parallel MPI-processes    *
           *              working on a common directory               *
           ************************************************************

------------------------------------------------------------------------------
                                ORCA  MP2 
------------------------------------------------------------------------------

Freezing NCore=30 chemical core electrons

-------------
RI-MP2 ENERGY
-------------
Dimension of the basis                    ...  419
Memory devoted to MP2                     ... 3800 MB   
Data format for buffers                   ... DOUBLE
Compression type for matrix containers    ... UNCOMPRESSED
Overall scaling of the MP2 energy         ...   1.000e+00
Calculating two index integrals           ... done (    0.010 sec)
Cholesky decomposition of V**-1           ... done (    0.140 sec)

-----------------
RI-TRANSFORMATION (AUX index driven)
-----------------

Dimension of the orbital-basis         ... 419
Dimension of the aux-basis             ... 1226
Transformation of internal/external MOs...   15-  48 to   49- 418
Number Format for Storage              ... Double (8 Byte)
Integral mode                          ... Direct

First Phase: integral generation and transformation of MO indices
  Aux angular momentum 0               ... done (    0.088 sec)
  Aux angular momentum 1               ... done (    0.128 sec)
  Aux angular momentum 2               ... done (    0.163 sec)
  Aux angular momentum 3               ... done (    0.105 sec)
Closing buffer VIA ( 0.11 GB; CompressionRatio= 1.00)
  Phase 1 completed in     0.607 sec
Second Phase: sorting and transformation of aux index

IA-Transformation
Memory available                       ... 3739 MB 
Max. # MO pairs treated in a batch     ... 3    
# of internal orbitals                 ... 34
# batches for internal orbitals        ... 1
Closing buffer IAV ( 0.11 GB; CompressionRatio= 1.00)
(ia|v) transformation done in     0.139 sec

  Phase 2 completed in     0.204 sec
RI-Integral transformation completed in     0.818 sec
Opening buffers                              ... done

Starting loop over batches of integrals:

Operator 0  - window                       ... ( 15- 48)x( 49-418)
Operator 0  - Memory available             ...  3800 MB
Operator 0  - Memory needed per MO         ...   3.5 MB
Operator 0  - Number of orbitals per batch ... 3
Operator 0  - Number of batches            ... 1

OPERATOR  0   PASS   0:  MOs    15 ...   17 +   18 ...   20 +   21 ...   23 +   24 ...   26
                            +   27 ...   29 +   30 ...   32 +   33 ...   35 +   36 ...   38
                            +   39 ...   41 +   42 ...   44 +   45 ...   47 +   48 ...   48
  Reading integrals       ... ok
  Internal MO  17
Time spent in pair loops =     0.077 sec
Deleting buffer (Ka|jb)[aa] ...done

-----------------------------------------------
 RI-MP2 CORRELATION ENERGY:     -1.754835649 Eh
-----------------------------------------------


-------
TIMINGS
-------

Total time                :    2.055 sec
Integral trafo            :    0.834 sec ( 40.6%)
I/O of integrals          :    0.006 sec (  0.3%)
K(i,j) Operators          :    0.055 sec (  2.7%)
T(i,j) pair energies      :    0.006 sec (  0.3%)
V-calculation             :    0.010 sec (  0.5%)
V**(-1/2)                 :    0.140 sec (  6.8%)
Gamma(ia|P)               :    0.000 sec (  0.0%)
Gamma-Trafo               :    0.000 sec (  0.0%)
D(virtual)                :    0.000 sec (  0.0%)
D(internal)               :    0.000 sec (  0.0%)
W(virtual)                :    0.000 sec (  0.0%)
W(internal)               :    0.000 sec (  0.0%)
L(virtual)                :    0.000 sec (  0.0%)
L(internal)               :    0.000 sec (  0.0%)
G(D)                      :    0.000 sec (  0.0%)
G(Z)                      :    0.000 sec (  0.0%)
Z-Vector Solution         :    0.000 sec (  0.0%)
3-Index Derivative        :    0.000 sec (  0.0%)
2-Index Derivative        :    0.000 sec (  0.0%)
Separable Gradient        :    0.000 sec (  0.0%)


---------------------------------------
MP2 TOTAL ENERGY:     -862.427877357 Eh
---------------------------------------

Maximum memory used throughout the entire MP2-calculation: 122.9 MB

-------------------------   --------------------
FINAL SINGLE POINT ENERGY      -862.427877357176
-------------------------   --------------------


                            ***************************************
                            *     ORCA property calculations      *
                            ***************************************


  WARNING: The energy has been calculated at the MP2 level but the densities
           used in the property calculations are still SCF densities
           MP2 response densities have not been calculated 
           use %mp2 Density relaxed end
           or  %mp2 Density unrelaxed end

                                    ---------------------
                                    Active property flags
                                    ---------------------
   (+) Dipole Moment


------------------------------------------------------------------------------
                       ORCA ELECTRIC PROPERTIES CALCULATION
------------------------------------------------------------------------------

Dipole Moment Calculation                       ... on
Quadrupole Moment Calculation                   ... off
Polarizability Calculation                      ... off
GBWName                                         ... DZ_1-butylsulfonylbutane.gbw
Electron density                                ... DZ_1-butylsulfonylbutane.scfp
The origin for moment calculation is the CENTER OF MASS  = ( 0.012915,  0.145783  0.025261)

-------------
DIPOLE MOMENT
-------------
                                X             Y             Z
Electronic contribution:      0.68705      12.46856       1.53875
Nuclear contribution   :     -1.26565     -14.28672      -2.47556
                        -----------------------------------------
Total Dipole Moment    :     -0.57860      -1.81816      -0.93681
                        -----------------------------------------
Magnitude (a.u.)       :      2.12558
Magnitude (Debye)      :      5.40279



--------------------
Rotational spectrum 
--------------------
 
Rotational constants in cm-1:     0.051165     0.012619     0.011062 
Rotational constants in MHz :  1533.879521   378.306436   331.636175 

 Dipole components along the rotational axes: 
x,y,z [a.u.] :    -0.579933    -1.826353    -0.919893 
x,y,z [Debye]:    -1.474072    -4.642220    -2.338182 

 

Timings for individual modules:

Sum of individual times         ...      202.467 sec (=   3.374 min)
GTO integral calculation        ...       17.526 sec (=   0.292 min)   8.7 %
SCF iterations                  ...      174.569 sec (=   2.909 min)  86.2 %
MP2 module                      ...       10.372 sec (=   0.173 min)   5.1 %
                             ****ORCA TERMINATED NORMALLY****
TOTAL RUN TIME: 0 days 0 hours 3 minutes 29 seconds 420 msec
