
                                 *****************
                                 * O   R   C   A *
                                 *****************

                                            #,                                       
                                            ###                                      
                                            ####                                     
                                            #####                                    
                                            ######                                   
                                           ########,                                 
                                     ,,################,,,,,                         
                               ,,#################################,,                 
                          ,,##########################################,,             
                       ,#########################################, ''#####,          
                    ,#############################################,,   '####,        
                  ,##################################################,,,,####,       
                ,###########''''           ''''###############################       
              ,#####''   ,,,,##########,,,,          '''####'''          '####       
            ,##' ,,,,###########################,,,                        '##       
           ' ,,###''''                  '''############,,,                           
         ,,##''                                '''############,,,,        ,,,,,,###''
      ,#''                                            '''#######################'''  
     '                                                          ''''####''''         
             ,#######,   #######,   ,#######,      ##                                
            ,#'     '#,  ##    ##  ,#'     '#,    #''#        ######   ,####,        
            ##       ##  ##   ,#'  ##            #'  '#       #        #'  '#        
            ##       ##  #######   ##           ,######,      #####,   #    #        
            '#,     ,#'  ##    ##  '#,     ,#' ,#      #,         ##   #,  ,#        
             '#######'   ##     ##  '#######'  #'      '#     #####' # '####'        



                  #######################################################
                  #                        -***-                        #
                  #          Department of theory and spectroscopy      #
                  #    Directorship and core code : Frank Neese         #
                  #        Max Planck Institute fuer Kohlenforschung    #
                  #                Kaiser Wilhelm Platz 1               #
                  #                 D-45470 Muelheim/Ruhr               #
                  #                      Germany                        #
                  #                                                     #
                  #                  All rights reserved                #
                  #                        -***-                        #
                  #######################################################


                         Program Version 5.0.3 -  RELEASE  -


 With contributions from (in alphabetic order):
   Daniel Aravena         : Magnetic Suceptibility
   Michael Atanasov       : Ab Initio Ligand Field Theory (pilot matlab implementation)
   Alexander A. Auer      : GIAO ZORA, VPT2 properties, NMR spectrum
   Ute Becker             : Parallelization
   Giovanni Bistoni       : ED, misc. LED, open-shell LED, HFLD
   Martin Brehm           : Molecular dynamics
   Dmytro Bykov           : SCF Hessian
   Vijay G. Chilkuri      : MRCI spin determinant printing, contributions to CSF-ICE
   Dipayan Datta          : RHF DLPNO-CCSD density
   Achintya Kumar Dutta   : EOM-CC, STEOM-CC
   Dmitry Ganyushin       : Spin-Orbit,Spin-Spin,Magnetic field MRCI
   Miquel Garcia          : C-PCM and meta-GGA Hessian, CC/C-PCM, Gaussian charge scheme
   Yang Guo               : DLPNO-NEVPT2, F12-NEVPT2, CIM, IAO-localization
   Andreas Hansen         : Spin unrestricted coupled pair/coupled cluster methods
   Benjamin Helmich-Paris : MC-RPA, TRAH-SCF, COSX integrals
   Lee Huntington         : MR-EOM, pCC
   Robert Izsak           : Overlap fitted RIJCOSX, COSX-SCS-MP3, EOM
   Marcus Kettner         : VPT2
   Christian Kollmar      : KDIIS, OOCD, Brueckner-CCSD(T), CCSD density, CASPT2, CASPT2-K
   Simone Kossmann        : Meta GGA functionals, TD-DFT gradient, OOMP2, MP2 Hessian
   Martin Krupicka        : Initial AUTO-CI
   Lucas Lang             : DCDCAS
   Marvin Lechner         : AUTO-CI (C++ implementation), FIC-MRCC
   Dagmar Lenk            : GEPOL surface, SMD
   Dimitrios Liakos       : Extrapolation schemes; Compound Job, initial MDCI parallelization
   Dimitrios Manganas     : Further ROCIS development; embedding schemes
   Dimitrios Pantazis     : SARC Basis sets
   Anastasios Papadopoulos: AUTO-CI, single reference methods and gradients
   Taras Petrenko         : DFT Hessian,TD-DFT gradient, ASA, ECA, R-Raman, ABS, FL, XAS/XES, NRVS
   Peter Pinski           : DLPNO-MP2, DLPNO-MP2 Gradient
   Christoph Reimann      : Effective Core Potentials
   Marius Retegan         : Local ZFS, SOC
   Christoph Riplinger    : Optimizer, TS searches, QM/MM, DLPNO-CCSD(T), (RO)-DLPNO pert. Triples
   Tobias Risthaus        : Range-separated hybrids, TD-DFT gradient, RPA, STAB
   Michael Roemelt        : Original ROCIS implementation
   Masaaki Saitow         : Open-shell DLPNO-CCSD energy and density
   Barbara Sandhoefer     : DKH picture change effects
   Avijit Sen             : IP-ROCIS
   Kantharuban Sivalingam : CASSCF convergence, NEVPT2, FIC-MRCI
   Bernardo de Souza      : ESD, SOC TD-DFT
   Georgi Stoychev        : AutoAux, RI-MP2 NMR, DLPNO-MP2 response
   Willem Van den Heuvel  : Paramagnetic NMR
   Boris Wezisla          : Elementary symmetry handling
   Frank Wennmohs         : Technical directorship


 We gratefully acknowledge several colleagues who have allowed us to
 interface, adapt or use parts of their codes:
   Stefan Grimme, W. Hujo, H. Kruse, P. Pracht,  : VdW corrections, initial TS optimization,
                  C. Bannwarth, S. Ehlert          DFT functionals, gCP, sTDA/sTD-DF
   Ed Valeev, F. Pavosevic, A. Kumar             : LibInt (2-el integral package), F12 methods
   Garnet Chan, S. Sharma, J. Yang, R. Olivares  : DMRG
   Ulf Ekstrom                                   : XCFun DFT Library
   Mihaly Kallay                                 : mrcc  (arbitrary order and MRCC methods)
   Jiri Pittner, Ondrej Demel                    : Mk-CCSD
   Frank Weinhold                                : gennbo (NPA and NBO analysis)
   Christopher J. Cramer and Donald G. Truhlar   : smd solvation model
   Lars Goerigk                                  : TD-DFT with DH, B97 family of functionals
   V. Asgeirsson, H. Jonsson                     : NEB implementation
   FAccTs GmbH                                   : IRC, NEB, NEB-TS, DLPNO-Multilevel, CI-OPT
                                                   MM, QMMM, 2- and 3-layer-ONIOM, Crystal-QMMM,
                                                   LR-CPCM, SF, NACMEs, symmetry and pop. for TD-DFT,
                                                   nearIR, NL-DFT gradient (VV10), updates on ESD,
                                                   ML-optimized integration grids
   S Lehtola, MJT Oliveira, MAL Marques          : LibXC Library
   Liviu Ungur et al                             : ANISO software


 Your calculation uses the libint2 library for the computation of 2-el integrals
 For citations please refer to: http://libint.valeyev.net

 Your ORCA version has been built with support for libXC version: 5.1.0
 For citations please refer to: https://tddft.org/programs/libxc/

 This ORCA versions uses:
   CBLAS   interface :  Fast vector & matrix operations
   LAPACKE interface :  Fast linear algebra routines
   SCALAPACK package :  Parallel linear algebra routines
   Shared memory     :  Shared parallel matrices
   BLAS/LAPACK       :  OpenBLAS 0.3.15  USE64BITINT DYNAMIC_ARCH NO_AFFINITY SkylakeX SINGLE_THREADED
        Core in use  :  SkylakeX
   Copyright (c) 2011-2014, The OpenBLAS Project


================================================================================

----- Orbital basis set information -----
Your calculation utilizes the basis: aug-cc-pVDZ 
    H, B-Ne : Obtained from the ccRepo (grant-hill.group.shef.ac.uk/ccrepo) Feb. 2017
              R. A. Kendall, T. H. Dunning, Jr., R. J. Harrison, J. Chem. Phys. 96, 6796 (1992)
         He : Obtained from the ccRepo (grant-hill.group.shef.ac.uk/ccrepo) Feb. 2017
              D. E. Woon, T. H. Dunning, Jr., J. Chem. Phys. 100, 2975 (1994)
  Li-Be, Na : Obtained from the ccRepo (grant-hill.group.shef.ac.uk/ccrepo) Feb. 2017
              B. P. Prascher, D. E. Woon, K. A. Peterson, T. H. Dunning, Jr., A. K. Wilson, Theor. Chem. Acc. 128, 69 (2011)
         Mg : Obtained from the Peterson Research Group Website (tyr0.chem.wsu.edu/~kipeters) Feb. 2017
              B. P. Prascher, D. E. Woon, K. A. Peterson, T. H. Dunning, Jr., A. K. Wilson, Theor. Chem. Acc. 128, 69 (2011)
      Al-Ar : Obtained from the ccRepo (grant-hill.group.shef.ac.uk/ccrepo) Feb. 2017
              D. E. Woon, T. H. Dunning, Jr., J. Chem. Phys. 98, 1358 (1993)
      Sc-Zn : Obtained from the ccRepo (grant-hill.group.shef.ac.uk/ccrepo) Feb. 2017
              N. B. Balabanov, K. A. Peterson, J. Chem. Phys. 123, 064107 (2005)
              N. B. Balabanov, K. A. Peterson, J. Chem. Phys. 125, 074110 (2006)
      Ga-Kr : Obtained from the ccRepo (grant-hill.group.shef.ac.uk/ccrepo) Feb. 2017
              A. K. Wilson, D. E. Woon, K. A. Peterson, T. H. Dunning, Jr., J. Chem. Phys. 110, 7667 (1999)

----- AuxC basis set information -----
Your calculation utilizes the auxiliary basis: aug-cc-pVDZ/C 
  H-He, B, Ne, Al-Ar, Ga-Ge, Se-Br : Obtained from the EMSL Basis Set Exchange (bse.pnl.gov) Feb. 2017
                                     F. Weigend, A. Kohn, C. Hattig, J. Chem. Phys. 116, 3175 (2002)
                            Be, Mg : Obtained from the TURBOMOLE 7.0 basis set library
                                     C. Haettig, Phys. Chem. Chem. Phys. 7, 59 (2005)
                               C-F : Obtained from the EMSL Basis Set Exchange (bse.pnl.gov) Feb. 2017
                                     C. Haettig, Phys. Chem. Chem. Phys. 7, 59 (2005)
                                     F. Weigend, A. Kohn, C. Hattig, J. Chem. Phys. 116, 3175 (2002)
                                As : Obtained from the EMSL Basis Set Exchange (bse.pnl.gov) Feb. 2017
                                     C. Haettig, G. Schmitz, J. Kossmann, Phys. Chem. Chem. Phys. 14, 6549 (2012)
                                Kr : Obtained from the TURBOMOLE 7.0 basis set library
                                     F. Weigend, A. Kohn, C. Hattig, J. Chem. Phys. 116, 3175 (2002)
                                     S function revised in Sep. 2009

================================================================================
                                        WARNINGS
                       Please study these warnings very carefully!
================================================================================


WARNING: No MP2 level density has been requested!
         To caclulate MP2 level properties use
         %mp2 Density relaxed end
         or
         %mp2 Density unrelaxed end

WARNING: Post HF methods need fully converged wavefunctions
  ===> : Setting SCFConvForced true
         You can overwrite this default with %scf ConvForced false 


INFO   : the flag for use of the SHARK integral package has been found!

================================================================================
                                       INPUT FILE
================================================================================
NAME = DZ_1-pentene.inp
|  1> !ri-mp2 aug-cc-pvdz aug-cc-pvdz/c tightscf
|  2> %pal nprocs 16 end
|  3> 
|  4> * xyz 0 1
|  5> C      2.480915   -0.213181   -0.298890
|  6> C      1.414749    0.338000    0.268186
|  7> C     -2.425591   -0.196397   -0.076523
|  8> C      0.075276   -0.316078    0.421811
|  9> C     -1.056864    0.450771   -0.277621
| 10> H      3.419178    0.318761   -0.382304
| 11> H      2.453489   -1.220352   -0.698261
| 12> H      1.492545    1.352012    0.652650
| 13> H     -2.441485   -1.215257   -0.468708
| 14> H     -3.209396    0.366453   -0.584990
| 15> H     -2.686714   -0.246940    0.982557
| 16> H      0.119287   -1.338660    0.037811
| 17> H     -0.166785   -0.392388    1.488258
| 18> H     -0.832514    0.519273   -1.344984
| 19> H     -1.078509    1.478406    0.096191
| 20> *
| 21> 
| 22>                          ****END OF INPUT****
================================================================================

                       ****************************
                       * Single Point Calculation *
                       ****************************

---------------------------------
CARTESIAN COORDINATES (ANGSTROEM)
---------------------------------
  C      2.480915   -0.213181   -0.298890
  C      1.414749    0.338000    0.268186
  C     -2.425591   -0.196397   -0.076523
  C      0.075276   -0.316078    0.421811
  C     -1.056864    0.450771   -0.277621
  H      3.419178    0.318761   -0.382304
  H      2.453489   -1.220352   -0.698261
  H      1.492545    1.352012    0.652650
  H     -2.441485   -1.215257   -0.468708
  H     -3.209396    0.366453   -0.584990
  H     -2.686714   -0.246940    0.982557
  H      0.119287   -1.338660    0.037811
  H     -0.166785   -0.392388    1.488258
  H     -0.832514    0.519273   -1.344984
  H     -1.078509    1.478406    0.096191

----------------------------
CARTESIAN COORDINATES (A.U.)
----------------------------
  NO LB      ZA    FRAG     MASS         X           Y           Z
   0 C     6.0000    0    12.011    4.688250   -0.402854   -0.564820
   1 C     6.0000    0    12.011    2.673488    0.638727    0.506798
   2 C     6.0000    0    12.011   -4.583703   -0.371137   -0.144608
   3 C     6.0000    0    12.011    0.142251   -0.597301    0.797107
   4 C     6.0000    0    12.011   -1.997184    0.851834   -0.524628
   5 H     1.0000    0     1.008    6.461310    0.602371   -0.722450
   6 H     1.0000    0     1.008    4.636422   -2.306131   -1.319522
   7 H     1.0000    0     1.008    2.820501    2.554932    1.233330
   8 H     1.0000    0     1.008   -4.613738   -2.296503   -0.885730
   9 H     1.0000    0     1.008   -6.064879    0.692496   -1.105471
  10 H     1.0000    0     1.008   -5.077154   -0.466649    1.856764
  11 H     1.0000    0     1.008    0.225420   -2.529701    0.071452
  12 H     1.0000    0     1.008   -0.315178   -0.741506    2.812400
  13 H     1.0000    0     1.008   -1.573223    0.981284   -2.541651
  14 H     1.0000    0     1.008   -2.038087    2.793782    0.181775

--------------------------------
INTERNAL COORDINATES (ANGSTROEM)
--------------------------------
 C      0   0   0     0.000000000000     0.00000000     0.00000000
 C      1   0   0     1.327435732566     0.00000000     0.00000000
 C      2   1   0     3.892636094460   134.23103209     0.00000000
 C      2   1   3     1.498534813889   125.48453721    25.23506637
 C      3   2   1     1.527311502725    21.46527130   259.21089000
 H      1   2   3     1.081784472032   121.69404006   154.41060494
 H      1   2   3     1.083809394847   121.53057536   334.22063323
 H      2   1   3     1.087237380270   118.74093765   205.85637516
 H      3   2   1     1.091850444457   100.03652909    22.72679532
 H      3   2   1     1.090728697071   132.79608045   256.98836395
 H      3   2   1     1.091966236831    98.99716315   132.49589473
 H      4   2   1     1.093191161163   109.65098661     2.68128638
 H      4   2   1     1.096232615657   109.11642427   119.07979145
 H      5   3   2     1.092835404017   109.82420107   123.69161777
 H      5   3   2     1.093726478876   109.59616875   239.99522083

---------------------------
INTERNAL COORDINATES (A.U.)
---------------------------
 C      0   0   0     0.000000000000     0.00000000     0.00000000
 C      1   0   0     2.508489994931     0.00000000     0.00000000
 C      2   1   0     7.356016157546   134.23103209     0.00000000
 C      2   1   3     2.831820400397   125.48453721    25.23506637
 C      3   2   1     2.886200461339    21.46527130   259.21089000
 H      1   2   3     2.044276388069   121.69404006   154.41060494
 H      1   2   3     2.048102937631   121.53057536   334.22063323
 H      2   1   3     2.054580891272   118.74093765   205.85637516
 H      3   2   1     2.063298319224   100.03652909    22.72679532
 H      3   2   1     2.061178523873   132.79608045   256.98836395
 H      3   2   1     2.063517135098    98.99716315   132.49589473
 H      4   2   1     2.065831906622   109.65098661     2.68128638
 H      4   2   1     2.071579422664   109.11642427   119.07979145
 H      5   3   2     2.065159623045   109.82420107   123.69161777
 H      5   3   2     2.066843510493   109.59616875   239.99522083

---------------------
BASIS SET INFORMATION
---------------------
There are 2 groups of distinct atoms

 Group   1 Type C   : 18s5p2d contracted to 4s3p2d pattern {8811/311/11}
 Group   2 Type H   : 5s2p contracted to 3s2p pattern {311/11}

Atom   0C    basis set group =>   1
Atom   1C    basis set group =>   1
Atom   2C    basis set group =>   1
Atom   3C    basis set group =>   1
Atom   4C    basis set group =>   1
Atom   5H    basis set group =>   2
Atom   6H    basis set group =>   2
Atom   7H    basis set group =>   2
Atom   8H    basis set group =>   2
Atom   9H    basis set group =>   2
Atom  10H    basis set group =>   2
Atom  11H    basis set group =>   2
Atom  12H    basis set group =>   2
Atom  13H    basis set group =>   2
Atom  14H    basis set group =>   2
---------------------------------
AUXILIARY/C BASIS SET INFORMATION
---------------------------------
There are 2 groups of distinct atoms

 Group   1 Type C   : 8s6p5d3f contracted to 8s6p5d3f pattern {11111111/111111/11111/111}
 Group   2 Type H   : 4s3p2d contracted to 4s3p2d pattern {1111/111/11}

Atom   0C    basis set group =>   1
Atom   1C    basis set group =>   1
Atom   2C    basis set group =>   1
Atom   3C    basis set group =>   1
Atom   4C    basis set group =>   1
Atom   5H    basis set group =>   2
Atom   6H    basis set group =>   2
Atom   7H    basis set group =>   2
Atom   8H    basis set group =>   2
Atom   9H    basis set group =>   2
Atom  10H    basis set group =>   2
Atom  11H    basis set group =>   2
Atom  12H    basis set group =>   2
Atom  13H    basis set group =>   2
Atom  14H    basis set group =>   2


           ************************************************************
           *        Program running with 16 parallel MPI-processes    *
           *              working on a common directory               *
           ************************************************************
------------------------------------------------------------------------------
                           ORCA GTO INTEGRAL CALCULATION
------------------------------------------------------------------------------
------------------------------------------------------------------------------
                   ___                                                        
                  /   \      - P O W E R E D   B Y -                         
                 /     \                                                     
                 |  |  |   _    _      __       _____    __    __             
                 |  |  |  | |  | |    /  \     |  _  \  |  |  /  |          
                  \  \/   | |  | |   /    \    | | | |  |  | /  /          
                 / \  \   | |__| |  /  /\  \   | |_| |  |  |/  /          
                |  |  |   |  __  | /  /__\  \  |    /   |      \           
                |  |  |   | |  | | |   __   |  |    \   |  |\   \          
                \     /   | |  | | |  |  |  |  | |\  \  |  | \   \       
                 \___/    |_|  |_| |__|  |__|  |_| \__\ |__|  \__/        
                                                                              
                      - O R C A' S   B I G   F R I E N D -                    
                                      &                                       
                       - I N T E G R A L  F E E D E R -                       
                                                                              
 v1 FN, 2020, v2 2021                                                         
------------------------------------------------------------------------------


Reading SHARK input file DZ_1-pentene.SHARKINP.tmp ... ok
----------------------
SHARK INTEGRAL PACKAGE
----------------------

Number of atoms                             ...     15
Number of basis functions                   ...    235
Number of shells                            ...    125
Maximum angular momentum                    ...      2
Integral batch strategy                     ... SHARK/LIBINT Hybrid
RI-J (if used) integral strategy            ... SPLIT-RIJ (Revised 2003 algorithm where possible)
Printlevel                                  ...      1
Contraction scheme used                     ... PARTIAL GENERAL contraction
Coulomb Range Separation                    ... NOT USED
Exchange Range Separation                   ... NOT USED
Finite Nucleus Model                        ... NOT USED
Auxiliary Coulomb fitting basis             ... NOT available
Auxiliary J/K fitting basis                 ... NOT available
Auxiliary Correlation fitting basis         ... AVAILABLE
   # of basis functions in Aux-C            ...    590
   # of shells in Aux-C                     ...    200
   Maximum angular momentum in Aux-C        ...      3
Auxiliary 'external' fitting basis          ... NOT available
Integral threshold                          ...     2.500000e-11
Primitive cut-off                           ...     2.500000e-12
Primitive pair pre-selection threshold      ...     2.500000e-12

Calculating pre-screening integrals         ... done (  0.0 sec) Dimension = 125
Calculating pre-screening integrals (ORCA)  ... done (  0.1 sec) Dimension = 95
Organizing shell pair data                  ... done (  0.1 sec)
Shell pair information
Total number of shell pairs                 ...      7875
Shell pairs after pre-screening             ...      7148
Total number of primitive shell pairs       ...     12135
Primitive shell pairs kept                  ...     10147
          la=0 lb=0:   2693 shell pairs
          la=1 lb=0:   2655 shell pairs
          la=1 lb=1:    620 shell pairs
          la=2 lb=0:    777 shell pairs
          la=2 lb=1:    348 shell pairs
          la=2 lb=2:     55 shell pairs

Calculating one electron integrals          ... done (  0.0 sec)
Calculating RI/C V-Matrix + Cholesky decomp.... done (  0.0 sec)
Calculating Nuclear repulsion               ... done (  0.0 sec) ENN=    169.988079363397 Eh

SHARK setup successfully completed in   0.3 seconds

Maximum memory used throughout the entire GTOINT-calculation: 17.2 MB


           ************************************************************
           *        Program running with 16 parallel MPI-processes    *
           *              working on a common directory               *
           ************************************************************
-------------------------------------------------------------------------------
                                 ORCA SCF
-------------------------------------------------------------------------------

------------
SCF SETTINGS
------------
Hamiltonian:
 Ab initio Hamiltonian  Method          .... Hartree-Fock(GTOs)


General Settings:
 Integral files         IntName         .... DZ_1-pentene
 Hartree-Fock type      HFTyp           .... RHF
 Total Charge           Charge          ....    0
 Multiplicity           Mult            ....    1
 Number of Electrons    NEL             ....   40
 Basis Dimension        Dim             ....  205
 Nuclear Repulsion      ENuc            ....    169.9880793634 Eh

Convergence Acceleration:
 DIIS                   CNVDIIS         .... on
   Start iteration      DIISMaxIt       ....    12
   Startup error        DIISStart       ....  0.200000
   # of expansion vecs  DIISMaxEq       ....     5
   Bias factor          DIISBfac        ....   1.050
   Max. coefficient     DIISMaxC        ....  10.000
 Trust-Rad. Augm. Hess. CNVTRAH         .... auto
   Auto Start mean grad. ratio tolernc. ....  1.125000
   Auto Start start iteration           ....    20
   Auto Start num. interpolation iter.  ....    10
   Max. Number of Micro iterations      ....    16
   Max. Number of Macro iterations      .... Maxiter - #DIIS iter
   Number of Davidson start vectors     ....     2
   Converg. threshold I  (grad. norm)   ....   1.000e-05
   Converg. threshold II (energy diff.) ....   1.000e-08
   Grad. Scal. Fac. for Micro threshold ....   0.100
   Minimum threshold for Micro iter.    ....   0.010
   NR start threshold (gradient norm)   ....   0.001
   Initial trust radius                 ....   0.400
   Minimum AH scaling param. (alpha)    ....   1.000
   Maximum AH scaling param. (alpha)    .... 1000.000
   Orbital update algorithm             .... Taylor
   White noise on init. David. guess    .... on
   Maximum white noise                  ....   0.010
   Quad. conv. algorithm                .... NR
 SOSCF                  CNVSOSCF        .... on
   Start iteration      SOSCFMaxIt      ....   150
   Startup grad/error   SOSCFStart      ....  0.003300
 Level Shifting         CNVShift        .... on
   Level shift para.    LevelShift      ....    0.2500
   Turn off err/grad.   ShiftErr        ....    0.0010
 Zerner damping         CNVZerner       .... off
 Static damping         CNVDamp         .... on
   Fraction old density DampFac         ....    0.7000
   Max. Damping (<1)    DampMax         ....    0.9800
   Min. Damping (>=0)   DampMin         ....    0.0000
   Turn off err/grad.   DampErr         ....    0.1000
 Fernandez-Rico         CNVRico         .... off

SCF Procedure:
 Maximum # iterations   MaxIter         ....   125
 SCF integral mode      SCFMode         .... Direct
   Integral package                     .... SHARK and LIBINT hybrid scheme
 Reset frequency        DirectResetFreq ....    20
 Integral Threshold     Thresh          ....  2.500e-11 Eh
 Primitive CutOff       TCut            ....  2.500e-12 Eh

Convergence Tolerance:
 Convergence Check Mode ConvCheckMode   .... Total+1el-Energy
 Convergence forced     ConvForced      .... 1
 Energy Change          TolE            ....  1.000e-08 Eh
 1-El. energy change                    ....  1.000e-05 Eh
 Orbital Gradient       TolG            ....  1.000e-05
 Orbital Rotation angle TolX            ....  1.000e-05
 DIIS Error             TolErr          ....  5.000e-07


Diagonalization of the overlap matrix:
Smallest eigenvalue                        ... 2.427e-05
Time for diagonalization                   ...    0.007 sec
Threshold for overlap eigenvalues          ... 1.000e-08
Number of eigenvalues below threshold      ... 0
Time for construction of square roots      ...    0.009 sec
Total time needed                          ...    0.017 sec

Time for model grid setup =    0.056 sec

------------------------------
INITIAL GUESS: MODEL POTENTIAL
------------------------------
Loading Hartree-Fock densities                     ... done
Calculating cut-offs                               ... done
Initializing the effective Hamiltonian             ... done
Setting up the integral package (SHARK)            ... done
Starting the Coulomb interaction                   ... done (   0.1 sec)
Reading the grid                                   ... done
Mapping shells                                     ... done
Starting the XC term evaluation                    ... done (   0.0 sec)
Transforming the Hamiltonian                       ... done (   0.0 sec)
Diagonalizing the Hamiltonian                      ... done (   0.0 sec)
Back transforming the eigenvectors                 ... done (   0.0 sec)
Now organizing SCF variables                       ... done
                      ------------------
                      INITIAL GUESS DONE (   0.2 sec)
                      ------------------
--------------
SCF ITERATIONS
--------------
ITER       Energy         Delta-E        Max-DP      RMS-DP      [F,P]     Damp
               ***  Starting incremental Fock matrix formation  ***
  0   -194.8836918254   0.000000000000 0.38759492  0.00657031  0.2046404 0.7000
  1   -194.9816701476  -0.097978322265 0.30339070  0.00497517  0.1342193 0.7000
                               ***Turning on DIIS***
  2   -195.0417897858  -0.060119638223 0.71617789  0.01160817  0.0803014 0.0000
  3   -194.6250866204   0.416703165402 0.03379942  0.00092573  0.0306519 0.0000
  4   -195.0948075072  -0.469720886731 0.01821724  0.00043232  0.0055173 0.0000
                      *** Initiating the SOSCF procedure ***
                           *** Shutting down DIIS ***
                      *** Re-Reading the Fockian *** 
                      *** Removing any level shift *** 
ITER      Energy       Delta-E        Grad      Rot      Max-DP    RMS-DP
  5   -195.14892577  -0.0541182647  0.000920  0.000920  0.005090  0.000139
               *** Restarting incremental Fock matrix formation ***
  6   -195.16429780  -0.0153720239  0.000290  0.000478  0.001706  0.000052
  7   -195.16430655  -0.0000087530  0.000118  0.000306  0.001188  0.000031
  8   -195.16430787  -0.0000013200  0.000030  0.000044  0.000150  0.000005
  9   -195.16430795  -0.0000000790  0.000013  0.000017  0.000036  0.000001
 10   -195.16430795  -0.0000000069  0.000003  0.000007  0.000018  0.000000
                  ***Gradient check signals convergence***
              ***Rediagonalizing the Fockian in SOSCF/NRSCF***

               *****************************************************
               *                     SUCCESS                       *
               *           SCF CONVERGED AFTER  11 CYCLES          *
               *****************************************************


----------------
TOTAL SCF ENERGY
----------------

Total Energy       :         -195.16430796 Eh           -5310.69081 eV

Components:
Nuclear Repulsion  :          169.98807936 Eh            4625.61080 eV
Electronic Energy  :         -365.15238732 Eh           -9936.30161 eV
One Electron Energy:         -598.32183934 Eh          -16281.16497 eV
Two Electron Energy:          233.16945202 Eh            6344.86336 eV

Virial components:
Potential Energy   :         -390.14021074 Eh          -10616.25485 eV
Kinetic Energy     :          194.97590278 Eh            5305.56404 eV
Virial Ratio       :            2.00096630


---------------
SCF CONVERGENCE
---------------

  Last Energy change         ...   -2.2722e-09  Tolerance :   1.0000e-08
  Last MAX-Density change    ...    1.9214e-05  Tolerance :   1.0000e-07
  Last RMS-Density change    ...    3.0193e-07  Tolerance :   5.0000e-09
  Last Orbital Gradient      ...    1.0171e-06  Tolerance :   1.0000e-05
  Last Orbital Rotation      ...    4.5486e-06  Tolerance :   1.0000e-05

             **** THE GBW FILE WAS UPDATED (DZ_1-pentene.gbw) ****
             **** DENSITY DZ_1-pentene.scfp WAS UPDATED ****
             **** ENERGY FILE WAS UPDATED (DZ_1-pentene.en.tmp) ****
             **** THE GBW FILE WAS UPDATED (DZ_1-pentene.gbw) ****
             **** DENSITY DZ_1-pentene.scfp WAS UPDATED ****
----------------
ORBITAL ENERGIES
----------------

  NO   OCC          E(Eh)            E(eV) 
   0   2.0000     -11.236377      -305.7574 
   1   2.0000     -11.228660      -305.5474 
   2   2.0000     -11.226531      -305.4894 
   3   2.0000     -11.223636      -305.4107 
   4   2.0000     -11.219615      -305.3013 
   5   2.0000      -1.089425       -29.6448 
   6   2.0000      -1.024379       -27.8748 
   7   2.0000      -0.924668       -25.1615 
   8   2.0000      -0.812906       -22.1203 
   9   2.0000      -0.756635       -20.5891 
  10   2.0000      -0.649268       -17.6675 
  11   2.0000      -0.615601       -16.7513 
  12   2.0000      -0.590635       -16.0720 
  13   2.0000      -0.565992       -15.4014 
  14   2.0000      -0.537327       -14.6214 
  15   2.0000      -0.509726       -13.8703 
  16   2.0000      -0.482055       -13.1174 
  17   2.0000      -0.470818       -12.8116 
  18   2.0000      -0.469216       -12.7680 
  19   2.0000      -0.357977        -9.7411 
  20   0.0000       0.037787         1.0282 
  21   0.0000       0.043795         1.1917 
  22   0.0000       0.045807         1.2465 
  23   0.0000       0.049898         1.3578 
  24   0.0000       0.062338         1.6963 
  25   0.0000       0.066358         1.8057 
  26   0.0000       0.072070         1.9611 
  27   0.0000       0.077413         2.1065 
  28   0.0000       0.084397         2.2966 
  29   0.0000       0.095679         2.6036 
  30   0.0000       0.112331         3.0567 
  31   0.0000       0.125366         3.4114 
  32   0.0000       0.140124         3.8130 
  33   0.0000       0.142614         3.8807 
  34   0.0000       0.153272         4.1708 
  35   0.0000       0.159272         4.3340 
  36   0.0000       0.168784         4.5928 
  37   0.0000       0.173821         4.7299 
  38   0.0000       0.176892         4.8135 
  39   0.0000       0.180330         4.9070 
  40   0.0000       0.181760         4.9459 
  41   0.0000       0.187161         5.0929 
  42   0.0000       0.199269         5.4224 
  43   0.0000       0.204259         5.5582 
  44   0.0000       0.208589         5.6760 
  45   0.0000       0.215240         5.8570 
  46   0.0000       0.219780         5.9805 
  47   0.0000       0.232230         6.3193 
  48   0.0000       0.244778         6.6608 
  49   0.0000       0.266644         7.2557 
  50   0.0000       0.285340         7.7645 
  51   0.0000       0.303903         8.2696 
  52   0.0000       0.311494         8.4762 
  53   0.0000       0.325142         8.8476 
  54   0.0000       0.329335         8.9617 
  55   0.0000       0.342909         9.3310 
  56   0.0000       0.359563         9.7842 
  57   0.0000       0.362289         9.8584 
  58   0.0000       0.379010        10.3134 
  59   0.0000       0.385273        10.4838 
  60   0.0000       0.402897        10.9634 
  61   0.0000       0.405147        11.0246 
  62   0.0000       0.429673        11.6920 
  63   0.0000       0.434159        11.8141 
  64   0.0000       0.447430        12.1752 
  65   0.0000       0.449721        12.2375 
  66   0.0000       0.456956        12.4344 
  67   0.0000       0.461077        12.5465 
  68   0.0000       0.472216        12.8496 
  69   0.0000       0.481458        13.1011 
  70   0.0000       0.485386        13.2080 
  71   0.0000       0.489087        13.3087 
  72   0.0000       0.494382        13.4528 
  73   0.0000       0.503404        13.6983 
  74   0.0000       0.516463        14.0537 
  75   0.0000       0.531040        14.4503 
  76   0.0000       0.541074        14.7234 
  77   0.0000       0.552845        15.0437 
  78   0.0000       0.562286        15.3006 
  79   0.0000       0.571375        15.5479 
  80   0.0000       0.579981        15.7821 
  81   0.0000       0.582000        15.8370 
  82   0.0000       0.587450        15.9853 
  83   0.0000       0.613382        16.6910 
  84   0.0000       0.618171        16.8213 
  85   0.0000       0.621339        16.9075 
  86   0.0000       0.627573        17.0771 
  87   0.0000       0.634542        17.2668 
  88   0.0000       0.646154        17.5827 
  89   0.0000       0.649870        17.6839 
  90   0.0000       0.663982        18.0679 
  91   0.0000       0.677306        18.4304 
  92   0.0000       0.687653        18.7120 
  93   0.0000       0.696144        18.9430 
  94   0.0000       0.702488        19.1157 
  95   0.0000       0.712068        19.3764 
  96   0.0000       0.720204        19.5977 
  97   0.0000       0.729328        19.8460 
  98   0.0000       0.741265        20.1708 
  99   0.0000       0.747814        20.3491 
 100   0.0000       0.760895        20.7050 
 101   0.0000       0.781192        21.2573 
 102   0.0000       0.787309        21.4238 
 103   0.0000       0.809309        22.0224 
 104   0.0000       0.811767        22.0893 
 105   0.0000       0.830437        22.5974 
 106   0.0000       0.836948        22.7745 
 107   0.0000       0.844114        22.9695 
 108   0.0000       0.855841        23.2886 
 109   0.0000       0.867115        23.5954 
 110   0.0000       0.887380        24.1468 
 111   0.0000       0.901007        24.5176 
 112   0.0000       0.911502        24.8032 
 113   0.0000       0.932222        25.3670 
 114   0.0000       0.945927        25.7400 
 115   0.0000       0.952128        25.9087 
 116   0.0000       0.967490        26.3267 
 117   0.0000       0.987239        26.8641 
 118   0.0000       0.998691        27.1758 
 119   0.0000       1.030070        28.0296 
 120   0.0000       1.058996        28.8167 
 121   0.0000       1.120995        30.5038 
 122   0.0000       1.129340        30.7309 
 123   0.0000       1.151481        31.3334 
 124   0.0000       1.188435        32.3390 
 125   0.0000       1.209720        32.9182 
 126   0.0000       1.230203        33.4755 
 127   0.0000       1.259352        34.2687 
 128   0.0000       1.278664        34.7942 
 129   0.0000       1.282587        34.9010 
 130   0.0000       1.304343        35.4930 
 131   0.0000       1.359895        37.0046 
 132   0.0000       1.372235        37.3404 
 133   0.0000       1.397722        38.0340 
 134   0.0000       1.440781        39.2056 
 135   0.0000       1.514315        41.2066 
 136   0.0000       1.531555        41.6757 
 137   0.0000       1.572835        42.7990 
 138   0.0000       1.589913        43.2637 
 139   0.0000       1.608266        43.7631 
 140   0.0000       1.642146        44.6851 
 141   0.0000       1.648363        44.8542 
 142   0.0000       1.672881        45.5214 
 143   0.0000       1.677784        45.6548 
 144   0.0000       1.717469        46.7347 
 145   0.0000       1.739702        47.3397 
 146   0.0000       1.773820        48.2681 
 147   0.0000       1.796440        48.8836 
 148   0.0000       1.812868        49.3306 
 149   0.0000       1.867968        50.8300 
 150   0.0000       1.874075        50.9962 
 151   0.0000       1.896260        51.5998 
 152   0.0000       1.921128        52.2766 
 153   0.0000       1.936596        52.6974 
 154   0.0000       1.968599        53.5683 
 155   0.0000       1.984909        54.0121 
 156   0.0000       1.997088        54.3435 
 157   0.0000       2.028805        55.2066 
 158   0.0000       2.049508        55.7699 
 159   0.0000       2.077268        56.5253 
 160   0.0000       2.093502        56.9671 
 161   0.0000       2.103228        57.2317 
 162   0.0000       2.105574        57.2956 
 163   0.0000       2.125758        57.8448 
 164   0.0000       2.143965        58.3402 
 165   0.0000       2.174672        59.1758 
 166   0.0000       2.187123        59.5146 
 167   0.0000       2.219788        60.4035 
 168   0.0000       2.223178        60.4957 
 169   0.0000       2.242805        61.0298 
 170   0.0000       2.260370        61.5078 
 171   0.0000       2.303352        62.6774 
 172   0.0000       2.305306        62.7306 
 173   0.0000       2.331375        63.4399 
 174   0.0000       2.351214        63.9798 
 175   0.0000       2.356344        64.1194 
 176   0.0000       2.368290        64.4444 
 177   0.0000       2.426122        66.0181 
 178   0.0000       2.436394        66.2976 
 179   0.0000       2.496412        67.9308 
 180   0.0000       2.513919        68.4072 
 181   0.0000       2.546753        69.3007 
 182   0.0000       2.568618        69.8956 
 183   0.0000       2.603951        70.8571 
 184   0.0000       2.647759        72.0492 
 185   0.0000       2.690297        73.2067 
 186   0.0000       2.698332        73.4254 
 187   0.0000       2.739900        74.5565 
 188   0.0000       2.758144        75.0529 
 189   0.0000       2.776109        75.5418 
 190   0.0000       2.812977        76.5450 
 191   0.0000       2.842099        77.3374 
 192   0.0000       2.885295        78.5129 
 193   0.0000       2.914919        79.3190 
 194   0.0000       2.945702        80.1566 
 195   0.0000       2.964895        80.6789 
 196   0.0000       2.978170        81.0401 
 197   0.0000       3.026357        82.3514 
 198   0.0000       3.127935        85.1154 
 199   0.0000       3.147253        85.6411 
 200   0.0000       3.161902        86.0397 
 201   0.0000       3.273141        89.0667 
 202   0.0000       3.365982        91.5930 
 203   0.0000       3.428390        93.2912 
 204   0.0000       3.704801       100.8128 

                    ********************************
                    * MULLIKEN POPULATION ANALYSIS *
                    ********************************

-----------------------
MULLIKEN ATOMIC CHARGES
-----------------------
   0 C :    0.405299
   1 C :    0.812496
   2 C :    0.405370
   3 C :    0.185426
   4 C :    0.029592
   5 H :   -0.293790
   6 H :   -0.286503
   7 H :   -0.461188
   8 H :   -0.082623
   9 H :   -0.078780
  10 H :   -0.068852
  11 H :   -0.216663
  12 H :   -0.070948
  13 H :   -0.117299
  14 H :   -0.161537
Sum of atomic charges:    0.0000000

--------------------------------
MULLIKEN REDUCED ORBITAL CHARGES
--------------------------------
  0 C s       :     3.028717  s :     3.028717
      pz      :     0.955467  p :     2.636569
      px      :     0.886041
      py      :     0.795061
      dz2     :     0.007988  d :    -0.070585
      dxz     :     0.007774
      dyz     :    -0.016518
      dx2y2   :    -0.039647
      dxy     :    -0.030182
  1 C s       :     2.601575  s :     2.601575
      pz      :     0.862211  p :     2.600782
      px      :     0.867701
      py      :     0.870871
      dz2     :     0.019201  d :    -0.014853
      dxz     :     0.021950
      dyz     :    -0.003047
      dx2y2   :    -0.026356
      dxy     :    -0.026600
  2 C s       :     2.905139  s :     2.905139
      pz      :     0.842960  p :     2.696986
      px      :     0.977606
      py      :     0.876420
      dz2     :    -0.003435  d :    -0.007495
      dxz     :    -0.001714
      dyz     :    -0.006310
      dx2y2   :    -0.002233
      dxy     :     0.006196
  3 C s       :     2.758948  s :     2.758948
      pz      :     0.968758  p :     3.011329
      px      :     1.161768
      py      :     0.880803
      dz2     :     0.007240  d :     0.044298
      dxz     :     0.019631
      dyz     :     0.014478
      dx2y2   :    -0.016686
      dxy     :     0.019634
  4 C s       :     2.729482  s :     2.729482
      pz      :     0.968909  p :     3.076909
      px      :     1.131757
      py      :     0.976243
      dz2     :     0.000228  d :     0.164017
      dxz     :     0.036561
      dyz     :     0.018273
      dx2y2   :     0.037897
      dxy     :     0.071058
  5 H s       :     1.304665  s :     1.304665
      pz      :     0.005761  p :    -0.010875
      px      :     0.008962
      py      :    -0.025597
  6 H s       :     1.287836  s :     1.287836
      pz      :     0.010037  p :    -0.001333
      px      :    -0.020573
      py      :     0.009202
  7 H s       :     1.464304  s :     1.464304
      pz      :     0.000840  p :    -0.003116
      px      :    -0.019409
      py      :     0.015454
  8 H s       :     1.106765  s :     1.106765
      pz      :    -0.012223  p :    -0.024141
      px      :    -0.004250
      py      :    -0.007668
  9 H s       :     1.103580  s :     1.103580
      pz      :    -0.009221  p :    -0.024799
      px      :    -0.008989
      py      :    -0.006589
 10 H s       :     1.090356  s :     1.090356
      pz      :    -0.000857  p :    -0.021505
      px      :    -0.003752
      py      :    -0.016897
 11 H s       :     1.233789  s :     1.233789
      pz      :    -0.005797  p :    -0.017126
      px      :    -0.015392
      py      :     0.004063
 12 H s       :     1.098755  s :     1.098755
      pz      :     0.001712  p :    -0.027807
      px      :    -0.011925
      py      :    -0.017594
 13 H s       :     1.158019  s :     1.158019
      pz      :    -0.004925  p :    -0.040720
      px      :    -0.016070
      py      :    -0.019725
 14 H s       :     1.199983  s :     1.199983
      pz      :    -0.013756  p :    -0.038446
      px      :    -0.021666
      py      :    -0.003023


                     *******************************
                     * LOEWDIN POPULATION ANALYSIS *
                     *******************************

----------------------
LOEWDIN ATOMIC CHARGES
----------------------
   0 C :    0.156916
   1 C :   -0.069645
   2 C :    0.129823
   3 C :   -0.047590
   4 C :   -0.073123
   5 H :   -0.046363
   6 H :   -0.040776
   7 H :   -0.000868
   8 H :   -0.019732
   9 H :   -0.021675
  10 H :   -0.020188
  11 H :    0.014864
  12 H :    0.016629
  13 H :    0.012071
  14 H :    0.009655

-------------------------------
LOEWDIN REDUCED ORBITAL CHARGES
-------------------------------
  0 C s       :     2.659267  s :     2.659267
      pz      :     0.830701  p :     2.726836
      px      :     0.970627
      py      :     0.925508
      dz2     :     0.046906  d :     0.456981
      dxz     :     0.063658
      dyz     :     0.063664
      dx2y2   :     0.160974
      dxy     :     0.121780
  1 C s       :     2.626582  s :     2.626582
      pz      :     0.785107  p :     2.657933
      px      :     0.968027
      py      :     0.904799
      dz2     :     0.083257  d :     0.785130
      dxz     :     0.173822
      dyz     :     0.078583
      dx2y2   :     0.256771
      dxy     :     0.192698
  2 C s       :     2.600486  s :     2.600486
      pz      :     0.923300  p :     2.762853
      px      :     0.918598
      py      :     0.920955
      dz2     :     0.098360  d :     0.506837
      dxz     :     0.115393
      dyz     :     0.048998
      dx2y2   :     0.130798
      dxy     :     0.113288
  3 C s       :     2.571767  s :     2.571767
      pz      :     0.905185  p :     2.715216
      px      :     0.910975
      py      :     0.899056
      dz2     :     0.172678  d :     0.760607
      dxz     :     0.142490
      dyz     :     0.074151
      dx2y2   :     0.208187
      dxy     :     0.163101
  4 C s       :     2.579727  s :     2.579727
      pz      :     0.906161  p :     2.711027
      px      :     0.902031
      py      :     0.902836
      dz2     :     0.176953  d :     0.782368
      dxz     :     0.151152
      dyz     :     0.075289
      dx2y2   :     0.219396
      dxy     :     0.159578
  5 H s       :     0.760923  s :     0.760923
      pz      :     0.078206  p :     0.285439
      px      :     0.117183
      py      :     0.090050
  6 H s       :     0.755710  s :     0.755710
      pz      :     0.085327  p :     0.285066
      px      :     0.065992
      py      :     0.133747
  7 H s       :     0.741968  s :     0.741968
      pz      :     0.076469  p :     0.258900
      px      :     0.055856
      py      :     0.126575
  8 H s       :     0.741622  s :     0.741622
      pz      :     0.081949  p :     0.278110
      px      :     0.064616
      py      :     0.131545
  9 H s       :     0.744204  s :     0.744204
      pz      :     0.089083  p :     0.277471
      px      :     0.097287
      py      :     0.091101
 10 H s       :     0.741743  s :     0.741743
      pz      :     0.139682  p :     0.278444
      px      :     0.067568
      py      :     0.071194
 11 H s       :     0.724354  s :     0.724354
      pz      :     0.075893  p :     0.260781
      px      :     0.060355
      py      :     0.124533
 12 H s       :     0.724837  s :     0.724837
      pz      :     0.131513  p :     0.258534
      px      :     0.064236
      py      :     0.062785
 13 H s       :     0.730834  s :     0.730834
      pz      :     0.132900  p :     0.257095
      px      :     0.060304
      py      :     0.063892
 14 H s       :     0.732346  s :     0.732346
      pz      :     0.075623  p :     0.257999
      px      :     0.057737
      py      :     0.124638


                      *****************************
                      * MAYER POPULATION ANALYSIS *
                      *****************************

  NA   - Mulliken gross atomic population
  ZA   - Total nuclear charge
  QA   - Mulliken gross atomic charge
  VA   - Mayer's total valence
  BVA  - Mayer's bonded valence
  FA   - Mayer's free valence

  ATOM       NA         ZA         QA         VA         BVA        FA
  0 C      5.5947     6.0000     0.4053     3.8072     3.8072    -0.0000
  1 C      5.1875     6.0000     0.8125     3.6587     3.6587    -0.0000
  2 C      5.5946     6.0000     0.4054     3.9273     3.9273     0.0000
  3 C      5.8146     6.0000     0.1854     3.9392     3.9392    -0.0000
  4 C      5.9704     6.0000     0.0296     4.3564     4.3564     0.0000
  5 H      1.2938     1.0000    -0.2938     0.7021     0.7021     0.0000
  6 H      1.2865     1.0000    -0.2865     0.7412     0.7412     0.0000
  7 H      1.4612     1.0000    -0.4612     0.6157     0.6157     0.0000
  8 H      1.0826     1.0000    -0.0826     0.8038     0.8038     0.0000
  9 H      1.0788     1.0000    -0.0788     0.7652     0.7652     0.0000
 10 H      1.0689     1.0000    -0.0689     0.8013     0.8013     0.0000
 11 H      1.2167     1.0000    -0.2167     0.7378     0.7378    -0.0000
 12 H      1.0709     1.0000    -0.0709     0.7861     0.7861    -0.0000
 13 H      1.1173     1.0000    -0.1173     0.6895     0.6895     0.0000
 14 H      1.1615     1.0000    -0.1615     0.7222     0.7222     0.0000

  Mayer bond orders larger than 0.100000
B(  0-C ,  1-C ) :   1.9129 B(  0-C ,  5-H ) :   0.7441 B(  0-C ,  6-H ) :   0.9121 
B(  1-C ,  3-C ) :   1.1441 B(  1-C ,  5-H ) :   0.1689 B(  1-C ,  7-H ) :   0.5822 
B(  2-C ,  4-C ) :   1.2052 B(  2-C ,  8-H ) :   0.9292 B(  2-C ,  9-H ) :   0.9124 
B(  2-C , 10-H ) :   0.9463 B(  3-C ,  4-C ) :   1.2388 B(  3-C , 11-H ) :   0.8070 
B(  3-C , 12-H ) :   0.8605 B(  4-C , 13-H ) :   0.8702 B(  4-C , 14-H ) :   0.8257 
B(  5-H ,  6-H ) :  -0.1923 

-------
TIMINGS
-------

Total SCF time: 0 days 0 hours 0 min 14 sec 

Total time                  ....      14.573 sec
Sum of individual times     ....      14.100 sec  ( 96.8%)

Fock matrix formation       ....      13.541 sec  ( 92.9%)
Diagonalization             ....       0.102 sec  (  0.7%)
Density matrix formation    ....       0.013 sec  (  0.1%)
Population analysis         ....       0.059 sec  (  0.4%)
Initial guess               ....       0.158 sec  (  1.1%)
Orbital Transformation      ....       0.000 sec  (  0.0%)
Orbital Orthonormalization  ....       0.000 sec  (  0.0%)
DIIS solution               ....       0.103 sec  (  0.7%)
SOSCF solution              ....       0.069 sec  (  0.5%)

Maximum memory used throughout the entire SCF-calculation: 231.6 MB


           ************************************************************
           *        Program running with 16 parallel MPI-processes    *
           *              working on a common directory               *
           ************************************************************

------------------------------------------------------------------------------
                                ORCA  MP2 
------------------------------------------------------------------------------

Freezing NCore=10 chemical core electrons

-------------
RI-MP2 ENERGY
-------------
Dimension of the basis                    ...  205
Memory devoted to MP2                     ...  256 MB   
Data format for buffers                   ... DOUBLE
Compression type for matrix containers    ... UNCOMPRESSED
Overall scaling of the MP2 energy         ...   1.000e+00
Calculating two index integrals           ... done (    0.003 sec)
Cholesky decomposition of V**-1           ... done (    0.042 sec)

-----------------
RI-TRANSFORMATION (AUX index driven)
-----------------

Dimension of the orbital-basis         ... 205
Dimension of the aux-basis             ... 590
Transformation of internal/external MOs...    5-  19 to   20- 204
Number Format for Storage              ... Double (8 Byte)
Integral mode                          ... Direct

First Phase: integral generation and transformation of MO indices
  Aux angular momentum 0               ... done (    0.012 sec)
  Aux angular momentum 1               ... done (    0.017 sec)
  Aux angular momentum 2               ... done (    0.021 sec)
  Aux angular momentum 3               ... done (    0.010 sec)
Closing buffer VIA ( 0.01 GB; CompressionRatio= 1.00)
  Phase 1 completed in     0.194 sec
Second Phase: sorting and transformation of aux index

IA-Transformation
Memory available                       ... 211 MB 
Max. # MO pairs treated in a batch     ... 1    
# of internal orbitals                 ... 15
# batches for internal orbitals        ... 1
Closing buffer IAV ( 0.01 GB; CompressionRatio= 1.00)
(ia|v) transformation done in     0.030 sec

  Phase 2 completed in     0.088 sec
RI-Integral transformation completed in     0.303 sec
Opening buffers                              ... done

Starting loop over batches of integrals:

Operator 0  - window                       ... (  5- 19)x( 20-204)
Operator 0  - Memory available             ...   256 MB
Operator 0  - Memory needed per MO         ...   0.8 MB
Operator 0  - Number of orbitals per batch ... 1
Operator 0  - Number of batches            ... 1

OPERATOR  0   PASS   0:  MOs     5 ...    5 +    6 ...    6 +    7 ...    7 +    8 ...    8
                            +    9 ...    9 +   10 ...   10 +   11 ...   11 +   12 ...   12
                            +   13 ...   13 +   14 ...   14 +   15 ...   15 +   16 ...   16
                            +   17 ...   17 +   18 ...   18 +   19 ...   19
  Reading integrals       ... ok
Time spent in pair loops =     0.005 sec
Deleting buffer (Ka|jb)[aa] ...done

-----------------------------------------------
 RI-MP2 CORRELATION ENERGY:     -0.729868779 Eh
-----------------------------------------------


-------
TIMINGS
-------

Total time                :    0.408 sec
Integral trafo            :    0.312 sec ( 76.4%)
I/O of integrals          :    0.000 sec (  0.1%)
K(i,j) Operators          :    0.002 sec (  0.4%)
T(i,j) pair energies      :    0.000 sec (  0.0%)
V-calculation             :    0.003 sec (  0.7%)
V**(-1/2)                 :    0.042 sec ( 10.2%)
Gamma(ia|P)               :    0.000 sec (  0.0%)
Gamma-Trafo               :    0.000 sec (  0.0%)
D(virtual)                :    0.000 sec (  0.0%)
D(internal)               :    0.000 sec (  0.0%)
W(virtual)                :    0.000 sec (  0.0%)
W(internal)               :    0.000 sec (  0.0%)
L(virtual)                :    0.000 sec (  0.0%)
L(internal)               :    0.000 sec (  0.0%)
G(D)                      :    0.000 sec (  0.0%)
G(Z)                      :    0.000 sec (  0.0%)
Z-Vector Solution         :    0.000 sec (  0.0%)
3-Index Derivative        :    0.000 sec (  0.0%)
2-Index Derivative        :    0.000 sec (  0.0%)
Separable Gradient        :    0.000 sec (  0.0%)


---------------------------------------
MP2 TOTAL ENERGY:     -195.894176736 Eh
---------------------------------------

Maximum memory used throughout the entire MP2-calculation: 88.4 MB

-------------------------   --------------------
FINAL SINGLE POINT ENERGY      -195.894176735540
-------------------------   --------------------


                            ***************************************
                            *     ORCA property calculations      *
                            ***************************************


  WARNING: The energy has been calculated at the MP2 level but the densities
           used in the property calculations are still SCF densities
           MP2 response densities have not been calculated 
           use %mp2 Density relaxed end
           or  %mp2 Density unrelaxed end

                                    ---------------------
                                    Active property flags
                                    ---------------------
   (+) Dipole Moment


------------------------------------------------------------------------------
                       ORCA ELECTRIC PROPERTIES CALCULATION
------------------------------------------------------------------------------

Dipole Moment Calculation                       ... on
Quadrupole Moment Calculation                   ... off
Polarizability Calculation                      ... off
GBWName                                         ... DZ_1-pentene.gbw
Electron density                                ... DZ_1-pentene.scfp
The origin for moment calculation is the CENTER OF MASS  = ( 0.078484,  0.010140  0.005939)

-------------
DIPOLE MOMENT
-------------
                                X             Y             Z
Electronic contribution:      2.96983       0.43334       0.26523
Nuclear contribution   :     -3.13935      -0.40562      -0.23755
                        -----------------------------------------
Total Dipole Moment    :     -0.16952       0.02772       0.02767
                        -----------------------------------------
Magnitude (a.u.)       :      0.17398
Magnitude (Debye)      :      0.44223



--------------------
Rotational spectrum 
--------------------
 
Rotational constants in cm-1:     0.616880     0.070431     0.069277 
Rotational constants in MHz : 18493.590493  2111.482657  2076.857963 

 Dipole components along the rotational axes: 
x,y,z [a.u.] :     0.169462     0.023298     0.031776 
x,y,z [Debye]:     0.430737     0.059218     0.080767 

 

Timings for individual modules:

Sum of individual times         ...       33.635 sec (=   0.561 min)
GTO integral calculation        ...        6.421 sec (=   0.107 min)  19.1 %
SCF iterations                  ...       22.567 sec (=   0.376 min)  67.1 %
MP2 module                      ...        4.647 sec (=   0.077 min)  13.8 %
                             ****ORCA TERMINATED NORMALLY****
TOTAL RUN TIME: 0 days 0 hours 0 minutes 38 seconds 791 msec
