
                                 *****************
                                 * O   R   C   A *
                                 *****************

                                            #,                                       
                                            ###                                      
                                            ####                                     
                                            #####                                    
                                            ######                                   
                                           ########,                                 
                                     ,,################,,,,,                         
                               ,,#################################,,                 
                          ,,##########################################,,             
                       ,#########################################, ''#####,          
                    ,#############################################,,   '####,        
                  ,##################################################,,,,####,       
                ,###########''''           ''''###############################       
              ,#####''   ,,,,##########,,,,          '''####'''          '####       
            ,##' ,,,,###########################,,,                        '##       
           ' ,,###''''                  '''############,,,                           
         ,,##''                                '''############,,,,        ,,,,,,###''
      ,#''                                            '''#######################'''  
     '                                                          ''''####''''         
             ,#######,   #######,   ,#######,      ##                                
            ,#'     '#,  ##    ##  ,#'     '#,    #''#        ######   ,####,        
            ##       ##  ##   ,#'  ##            #'  '#       #        #'  '#        
            ##       ##  #######   ##           ,######,      #####,   #    #        
            '#,     ,#'  ##    ##  '#,     ,#' ,#      #,         ##   #,  ,#        
             '#######'   ##     ##  '#######'  #'      '#     #####' # '####'        



                  #######################################################
                  #                        -***-                        #
                  #          Department of theory and spectroscopy      #
                  #    Directorship and core code : Frank Neese         #
                  #        Max Planck Institute fuer Kohlenforschung    #
                  #                Kaiser Wilhelm Platz 1               #
                  #                 D-45470 Muelheim/Ruhr               #
                  #                      Germany                        #
                  #                                                     #
                  #                  All rights reserved                #
                  #                        -***-                        #
                  #######################################################


                         Program Version 5.0.3 -  RELEASE  -


 With contributions from (in alphabetic order):
   Daniel Aravena         : Magnetic Suceptibility
   Michael Atanasov       : Ab Initio Ligand Field Theory (pilot matlab implementation)
   Alexander A. Auer      : GIAO ZORA, VPT2 properties, NMR spectrum
   Ute Becker             : Parallelization
   Giovanni Bistoni       : ED, misc. LED, open-shell LED, HFLD
   Martin Brehm           : Molecular dynamics
   Dmytro Bykov           : SCF Hessian
   Vijay G. Chilkuri      : MRCI spin determinant printing, contributions to CSF-ICE
   Dipayan Datta          : RHF DLPNO-CCSD density
   Achintya Kumar Dutta   : EOM-CC, STEOM-CC
   Dmitry Ganyushin       : Spin-Orbit,Spin-Spin,Magnetic field MRCI
   Miquel Garcia          : C-PCM and meta-GGA Hessian, CC/C-PCM, Gaussian charge scheme
   Yang Guo               : DLPNO-NEVPT2, F12-NEVPT2, CIM, IAO-localization
   Andreas Hansen         : Spin unrestricted coupled pair/coupled cluster methods
   Benjamin Helmich-Paris : MC-RPA, TRAH-SCF, COSX integrals
   Lee Huntington         : MR-EOM, pCC
   Robert Izsak           : Overlap fitted RIJCOSX, COSX-SCS-MP3, EOM
   Marcus Kettner         : VPT2
   Christian Kollmar      : KDIIS, OOCD, Brueckner-CCSD(T), CCSD density, CASPT2, CASPT2-K
   Simone Kossmann        : Meta GGA functionals, TD-DFT gradient, OOMP2, MP2 Hessian
   Martin Krupicka        : Initial AUTO-CI
   Lucas Lang             : DCDCAS
   Marvin Lechner         : AUTO-CI (C++ implementation), FIC-MRCC
   Dagmar Lenk            : GEPOL surface, SMD
   Dimitrios Liakos       : Extrapolation schemes; Compound Job, initial MDCI parallelization
   Dimitrios Manganas     : Further ROCIS development; embedding schemes
   Dimitrios Pantazis     : SARC Basis sets
   Anastasios Papadopoulos: AUTO-CI, single reference methods and gradients
   Taras Petrenko         : DFT Hessian,TD-DFT gradient, ASA, ECA, R-Raman, ABS, FL, XAS/XES, NRVS
   Peter Pinski           : DLPNO-MP2, DLPNO-MP2 Gradient
   Christoph Reimann      : Effective Core Potentials
   Marius Retegan         : Local ZFS, SOC
   Christoph Riplinger    : Optimizer, TS searches, QM/MM, DLPNO-CCSD(T), (RO)-DLPNO pert. Triples
   Tobias Risthaus        : Range-separated hybrids, TD-DFT gradient, RPA, STAB
   Michael Roemelt        : Original ROCIS implementation
   Masaaki Saitow         : Open-shell DLPNO-CCSD energy and density
   Barbara Sandhoefer     : DKH picture change effects
   Avijit Sen             : IP-ROCIS
   Kantharuban Sivalingam : CASSCF convergence, NEVPT2, FIC-MRCI
   Bernardo de Souza      : ESD, SOC TD-DFT
   Georgi Stoychev        : AutoAux, RI-MP2 NMR, DLPNO-MP2 response
   Willem Van den Heuvel  : Paramagnetic NMR
   Boris Wezisla          : Elementary symmetry handling
   Frank Wennmohs         : Technical directorship


 We gratefully acknowledge several colleagues who have allowed us to
 interface, adapt or use parts of their codes:
   Stefan Grimme, W. Hujo, H. Kruse, P. Pracht,  : VdW corrections, initial TS optimization,
                  C. Bannwarth, S. Ehlert          DFT functionals, gCP, sTDA/sTD-DF
   Ed Valeev, F. Pavosevic, A. Kumar             : LibInt (2-el integral package), F12 methods
   Garnet Chan, S. Sharma, J. Yang, R. Olivares  : DMRG
   Ulf Ekstrom                                   : XCFun DFT Library
   Mihaly Kallay                                 : mrcc  (arbitrary order and MRCC methods)
   Jiri Pittner, Ondrej Demel                    : Mk-CCSD
   Frank Weinhold                                : gennbo (NPA and NBO analysis)
   Christopher J. Cramer and Donald G. Truhlar   : smd solvation model
   Lars Goerigk                                  : TD-DFT with DH, B97 family of functionals
   V. Asgeirsson, H. Jonsson                     : NEB implementation
   FAccTs GmbH                                   : IRC, NEB, NEB-TS, DLPNO-Multilevel, CI-OPT
                                                   MM, QMMM, 2- and 3-layer-ONIOM, Crystal-QMMM,
                                                   LR-CPCM, SF, NACMEs, symmetry and pop. for TD-DFT,
                                                   nearIR, NL-DFT gradient (VV10), updates on ESD,
                                                   ML-optimized integration grids
   S Lehtola, MJT Oliveira, MAL Marques          : LibXC Library
   Liviu Ungur et al                             : ANISO software


 Your calculation uses the libint2 library for the computation of 2-el integrals
 For citations please refer to: http://libint.valeyev.net

 Your ORCA version has been built with support for libXC version: 5.1.0
 For citations please refer to: https://tddft.org/programs/libxc/

 This ORCA versions uses:
   CBLAS   interface :  Fast vector & matrix operations
   LAPACKE interface :  Fast linear algebra routines
   SCALAPACK package :  Parallel linear algebra routines
   Shared memory     :  Shared parallel matrices
   BLAS/LAPACK       :  OpenBLAS 0.3.15  USE64BITINT DYNAMIC_ARCH NO_AFFINITY SkylakeX SINGLE_THREADED
        Core in use  :  SkylakeX
   Copyright (c) 2011-2014, The OpenBLAS Project


================================================================================

----- Orbital basis set information -----
Your calculation utilizes the basis: aug-cc-pVDZ 
    H, B-Ne : Obtained from the ccRepo (grant-hill.group.shef.ac.uk/ccrepo) Feb. 2017
              R. A. Kendall, T. H. Dunning, Jr., R. J. Harrison, J. Chem. Phys. 96, 6796 (1992)
         He : Obtained from the ccRepo (grant-hill.group.shef.ac.uk/ccrepo) Feb. 2017
              D. E. Woon, T. H. Dunning, Jr., J. Chem. Phys. 100, 2975 (1994)
  Li-Be, Na : Obtained from the ccRepo (grant-hill.group.shef.ac.uk/ccrepo) Feb. 2017
              B. P. Prascher, D. E. Woon, K. A. Peterson, T. H. Dunning, Jr., A. K. Wilson, Theor. Chem. Acc. 128, 69 (2011)
         Mg : Obtained from the Peterson Research Group Website (tyr0.chem.wsu.edu/~kipeters) Feb. 2017
              B. P. Prascher, D. E. Woon, K. A. Peterson, T. H. Dunning, Jr., A. K. Wilson, Theor. Chem. Acc. 128, 69 (2011)
      Al-Ar : Obtained from the ccRepo (grant-hill.group.shef.ac.uk/ccrepo) Feb. 2017
              D. E. Woon, T. H. Dunning, Jr., J. Chem. Phys. 98, 1358 (1993)
      Sc-Zn : Obtained from the ccRepo (grant-hill.group.shef.ac.uk/ccrepo) Feb. 2017
              N. B. Balabanov, K. A. Peterson, J. Chem. Phys. 123, 064107 (2005)
              N. B. Balabanov, K. A. Peterson, J. Chem. Phys. 125, 074110 (2006)
      Ga-Kr : Obtained from the ccRepo (grant-hill.group.shef.ac.uk/ccrepo) Feb. 2017
              A. K. Wilson, D. E. Woon, K. A. Peterson, T. H. Dunning, Jr., J. Chem. Phys. 110, 7667 (1999)

----- AuxC basis set information -----
Your calculation utilizes the auxiliary basis: aug-cc-pVDZ/C 
  H-He, B, Ne, Al-Ar, Ga-Ge, Se-Br : Obtained from the EMSL Basis Set Exchange (bse.pnl.gov) Feb. 2017
                                     F. Weigend, A. Kohn, C. Hattig, J. Chem. Phys. 116, 3175 (2002)
                            Be, Mg : Obtained from the TURBOMOLE 7.0 basis set library
                                     C. Haettig, Phys. Chem. Chem. Phys. 7, 59 (2005)
                               C-F : Obtained from the EMSL Basis Set Exchange (bse.pnl.gov) Feb. 2017
                                     C. Haettig, Phys. Chem. Chem. Phys. 7, 59 (2005)
                                     F. Weigend, A. Kohn, C. Hattig, J. Chem. Phys. 116, 3175 (2002)
                                As : Obtained from the EMSL Basis Set Exchange (bse.pnl.gov) Feb. 2017
                                     C. Haettig, G. Schmitz, J. Kossmann, Phys. Chem. Chem. Phys. 14, 6549 (2012)
                                Kr : Obtained from the TURBOMOLE 7.0 basis set library
                                     F. Weigend, A. Kohn, C. Hattig, J. Chem. Phys. 116, 3175 (2002)
                                     S function revised in Sep. 2009

================================================================================
                                        WARNINGS
                       Please study these warnings very carefully!
================================================================================


WARNING: No MP2 level density has been requested!
         To caclulate MP2 level properties use
         %mp2 Density relaxed end
         or
         %mp2 Density unrelaxed end

WARNING: Post HF methods need fully converged wavefunctions
  ===> : Setting SCFConvForced true
         You can overwrite this default with %scf ConvForced false 


INFO   : the flag for use of the SHARK integral package has been found!

================================================================================
                                       INPUT FILE
================================================================================
NAME = DZ_2-hexyne.inp
|  1> !ri-mp2 aug-cc-pvdz aug-cc-pvdz/c tightscf
|  2> %pal nprocs 16 end
|  3> 
|  4> * xyz 0 1
|  5> C      1.212934   -2.830317    0.000000
|  6> C     -1.715980    2.860634    0.000000
|  7> C      0.924480   -0.299270    0.000000
|  8> C      0.000000    0.830193    0.000000
|  9> C      0.223042   -1.668570    0.000000
| 10> C     -0.778310    1.745812    0.000000
| 11> H      0.694512   -3.789693    0.000000
| 12> H     -2.748510    2.506561    0.000000
| 13> H      1.857339   -2.802347    0.881179
| 14> H      1.857339   -2.802347   -0.881179
| 15> H     -0.428117   -1.730803   -0.874251
| 16> H     -0.428117   -1.730803    0.874251
| 17> H      1.579877   -0.230796   -0.873928
| 18> H      1.579877   -0.230796    0.873928
| 19> H     -1.580599    3.490066    0.881436
| 20> H     -1.580599    3.490066   -0.881436
| 21> *
| 22> 
| 23>                          ****END OF INPUT****
================================================================================

                       ****************************
                       * Single Point Calculation *
                       ****************************

---------------------------------
CARTESIAN COORDINATES (ANGSTROEM)
---------------------------------
  C      1.212934   -2.830317    0.000000
  C     -1.715980    2.860634    0.000000
  C      0.924480   -0.299270    0.000000
  C      0.000000    0.830193    0.000000
  C      0.223042   -1.668570    0.000000
  C     -0.778310    1.745812    0.000000
  H      0.694512   -3.789693    0.000000
  H     -2.748510    2.506561    0.000000
  H      1.857339   -2.802347    0.881179
  H      1.857339   -2.802347   -0.881179
  H     -0.428117   -1.730803   -0.874251
  H     -0.428117   -1.730803    0.874251
  H      1.579877   -0.230796   -0.873928
  H      1.579877   -0.230796    0.873928
  H     -1.580599    3.490066    0.881436
  H     -1.580599    3.490066   -0.881436

----------------------------
CARTESIAN COORDINATES (A.U.)
----------------------------
  NO LB      ZA    FRAG     MASS         X           Y           Z
   0 C     6.0000    0    12.011    2.292113   -5.348524    0.000000
   1 C     6.0000    0    12.011   -3.242732    5.405815    0.000000
   2 C     6.0000    0    12.011    1.747014   -0.565538    0.000000
   3 C     6.0000    0    12.011    0.000000    1.568837    0.000000
   4 C     6.0000    0    12.011    0.421488   -3.153140    0.000000
   5 C     6.0000    0    12.011   -1.470793    3.299107    0.000000
   6 H     1.0000    0     1.008    1.312437   -7.161482    0.000000
   7 H     1.0000    0     1.008   -5.193931    4.736714    0.000000
   8 H     1.0000    0     1.008    3.509862   -5.295668    1.665187
   9 H     1.0000    0     1.008    3.509862   -5.295668   -1.665187
  10 H     1.0000    0     1.008   -0.809024   -3.270744   -1.652095
  11 H     1.0000    0     1.008   -0.809024   -3.270744    1.652095
  12 H     1.0000    0     1.008    2.985535   -0.436141   -1.651485
  13 H     1.0000    0     1.008    2.985535   -0.436141    1.651485
  14 H     1.0000    0     1.008   -2.986899    6.595269    1.665673
  15 H     1.0000    0     1.008   -2.986899    6.595269   -1.665673

--------------------------------
INTERNAL COORDINATES (ANGSTROEM)
--------------------------------
 C      0   0   0     0.000000000000     0.00000000     0.00000000
 C      1   0   0     6.400426587642     0.00000000     0.00000000
 C      1   2   0     2.547430985586    20.73140669     0.00000000
 C      3   1   2     1.459571834056   147.20096767     0.00000000
 C      1   2   4     1.526283808364    13.20024355   180.00000000
 C      4   3   1     1.201717358309   178.93500064     0.00000000
 H      1   2   6     1.090487817199   124.38121718   180.00000085
 H      2   1   3     1.091552055666    98.30538291   180.00000085
 H      1   2   8     1.092024063364   104.31566035   236.38559574
 H      1   2   8     1.092024063364   104.31566035   123.61440426
 H      5   1   7     1.091877191158   110.08404701   301.51223768
 H      5   1   7     1.091877191158   110.08404701    58.48776232
 H      3   1   2     1.094524584223    89.67653403   232.98397442
 H      3   1   2     1.094524584223    89.67653403   127.01602558
 H      2   1   3     1.091531987567   117.12752595   294.86047266
 H      2   1   3     1.091531987567   117.12752595    65.13952734

---------------------------
INTERNAL COORDINATES (A.U.)
---------------------------
 C      0   0   0     0.000000000000     0.00000000     0.00000000
 C      1   0   0    12.095053390912     0.00000000     0.00000000
 C      1   2   0     4.813946907823    20.73140669     0.00000000
 C      3   1   2     2.758191039151   147.20096767     0.00000000
 C      1   2   4     2.884258400446    13.20024355   180.00000000
 C      4   3   1     2.270916697583   178.93500064     0.00000000
 H      1   2   6     2.060723326884   124.38121718   180.00000085
 H      2   1   3     2.062734446128    98.30538291   180.00000085
 H      1   2   8     2.063626411410   104.31566035   236.38559574
 H      1   2   8     2.063626411410   104.31566035   123.61440426
 H      5   1   7     2.063348863164   110.08404701   301.51223768
 H      5   1   7     2.063348863164   110.08404701    58.48776232
 H      3   1   2     2.068351711026    89.67653403   232.98397442
 H      3   1   2     2.068351711026    89.67653403   127.01602558
 H      2   1   3     2.062696522916   117.12752595   294.86047266
 H      2   1   3     2.062696522916   117.12752595    65.13952734

---------------------
BASIS SET INFORMATION
---------------------
There are 2 groups of distinct atoms

 Group   1 Type C   : 18s5p2d contracted to 4s3p2d pattern {8811/311/11}
 Group   2 Type H   : 5s2p contracted to 3s2p pattern {311/11}

Atom   0C    basis set group =>   1
Atom   1C    basis set group =>   1
Atom   2C    basis set group =>   1
Atom   3C    basis set group =>   1
Atom   4C    basis set group =>   1
Atom   5C    basis set group =>   1
Atom   6H    basis set group =>   2
Atom   7H    basis set group =>   2
Atom   8H    basis set group =>   2
Atom   9H    basis set group =>   2
Atom  10H    basis set group =>   2
Atom  11H    basis set group =>   2
Atom  12H    basis set group =>   2
Atom  13H    basis set group =>   2
Atom  14H    basis set group =>   2
Atom  15H    basis set group =>   2
---------------------------------
AUXILIARY/C BASIS SET INFORMATION
---------------------------------
There are 2 groups of distinct atoms

 Group   1 Type C   : 8s6p5d3f contracted to 8s6p5d3f pattern {11111111/111111/11111/111}
 Group   2 Type H   : 4s3p2d contracted to 4s3p2d pattern {1111/111/11}

Atom   0C    basis set group =>   1
Atom   1C    basis set group =>   1
Atom   2C    basis set group =>   1
Atom   3C    basis set group =>   1
Atom   4C    basis set group =>   1
Atom   5C    basis set group =>   1
Atom   6H    basis set group =>   2
Atom   7H    basis set group =>   2
Atom   8H    basis set group =>   2
Atom   9H    basis set group =>   2
Atom  10H    basis set group =>   2
Atom  11H    basis set group =>   2
Atom  12H    basis set group =>   2
Atom  13H    basis set group =>   2
Atom  14H    basis set group =>   2
Atom  15H    basis set group =>   2


           ************************************************************
           *        Program running with 16 parallel MPI-processes    *
           *              working on a common directory               *
           ************************************************************
------------------------------------------------------------------------------
                           ORCA GTO INTEGRAL CALCULATION
------------------------------------------------------------------------------
------------------------------------------------------------------------------
                   ___                                                        
                  /   \      - P O W E R E D   B Y -                         
                 /     \                                                     
                 |  |  |   _    _      __       _____    __    __             
                 |  |  |  | |  | |    /  \     |  _  \  |  |  /  |          
                  \  \/   | |  | |   /    \    | | | |  |  | /  /          
                 / \  \   | |__| |  /  /\  \   | |_| |  |  |/  /          
                |  |  |   |  __  | /  /__\  \  |    /   |      \           
                |  |  |   | |  | | |   __   |  |    \   |  |\   \          
                \     /   | |  | | |  |  |  |  | |\  \  |  | \   \       
                 \___/    |_|  |_| |__|  |__|  |_| \__\ |__|  \__/        
                                                                              
                      - O R C A' S   B I G   F R I E N D -                    
                                      &                                       
                       - I N T E G R A L  F E E D E R -                       
                                                                              
 v1 FN, 2020, v2 2021                                                         
------------------------------------------------------------------------------


Reading SHARK input file DZ_2-hexyne.SHARKINP.tmp ... ok
----------------------
SHARK INTEGRAL PACKAGE
----------------------

Number of atoms                             ...     16
Number of basis functions                   ...    264
Number of shells                            ...    140
Maximum angular momentum                    ...      2
Integral batch strategy                     ... SHARK/LIBINT Hybrid
RI-J (if used) integral strategy            ... SPLIT-RIJ (Revised 2003 algorithm where possible)
Printlevel                                  ...      1
Contraction scheme used                     ... PARTIAL GENERAL contraction
Coulomb Range Separation                    ... NOT USED
Exchange Range Separation                   ... NOT USED
Finite Nucleus Model                        ... NOT USED
Auxiliary Coulomb fitting basis             ... NOT available
Auxiliary J/K fitting basis                 ... NOT available
Auxiliary Correlation fitting basis         ... AVAILABLE
   # of basis functions in Aux-C            ...    662
   # of shells in Aux-C                     ...    222
   Maximum angular momentum in Aux-C        ...      3
Auxiliary 'external' fitting basis          ... NOT available
Integral threshold                          ...     2.500000e-11
Primitive cut-off                           ...     2.500000e-12
Primitive pair pre-selection threshold      ...     2.500000e-12

Calculating pre-screening integrals         ... done (  0.0 sec) Dimension = 140
Calculating pre-screening integrals (ORCA)  ... done (  0.1 sec) Dimension = 104
Organizing shell pair data                  ... done (  0.1 sec)
Shell pair information
Total number of shell pairs                 ...      9870
Shell pairs after pre-screening             ...      8551
Total number of primitive shell pairs       ...     14926
Primitive shell pairs kept                  ...     11782
          la=0 lb=0:   3184 shell pairs
          la=1 lb=0:   3127 shell pairs
          la=1 lb=1:    708 shell pairs
          la=2 lb=0:   1010 shell pairs
          la=2 lb=1:    445 shell pairs
          la=2 lb=2:     77 shell pairs

Calculating one electron integrals          ... done (  0.0 sec)
Calculating RI/C V-Matrix + Cholesky decomp.... done (  0.0 sec)
Calculating Nuclear repulsion               ... done (  0.0 sec) ENN=    206.635435378175 Eh

SHARK setup successfully completed in   0.3 seconds

Maximum memory used throughout the entire GTOINT-calculation: 18.2 MB


           ************************************************************
           *        Program running with 16 parallel MPI-processes    *
           *              working on a common directory               *
           ************************************************************
-------------------------------------------------------------------------------
                                 ORCA SCF
-------------------------------------------------------------------------------

------------
SCF SETTINGS
------------
Hamiltonian:
 Ab initio Hamiltonian  Method          .... Hartree-Fock(GTOs)


General Settings:
 Integral files         IntName         .... DZ_2-hexyne
 Hartree-Fock type      HFTyp           .... RHF
 Total Charge           Charge          ....    0
 Multiplicity           Mult            ....    1
 Number of Electrons    NEL             ....   46
 Basis Dimension        Dim             ....  228
 Nuclear Repulsion      ENuc            ....    206.6354353782 Eh

Convergence Acceleration:
 DIIS                   CNVDIIS         .... on
   Start iteration      DIISMaxIt       ....    12
   Startup error        DIISStart       ....  0.200000
   # of expansion vecs  DIISMaxEq       ....     5
   Bias factor          DIISBfac        ....   1.050
   Max. coefficient     DIISMaxC        ....  10.000
 Trust-Rad. Augm. Hess. CNVTRAH         .... auto
   Auto Start mean grad. ratio tolernc. ....  1.125000
   Auto Start start iteration           ....    20
   Auto Start num. interpolation iter.  ....    10
   Max. Number of Micro iterations      ....    16
   Max. Number of Macro iterations      .... Maxiter - #DIIS iter
   Number of Davidson start vectors     ....     2
   Converg. threshold I  (grad. norm)   ....   1.000e-05
   Converg. threshold II (energy diff.) ....   1.000e-08
   Grad. Scal. Fac. for Micro threshold ....   0.100
   Minimum threshold for Micro iter.    ....   0.010
   NR start threshold (gradient norm)   ....   0.001
   Initial trust radius                 ....   0.400
   Minimum AH scaling param. (alpha)    ....   1.000
   Maximum AH scaling param. (alpha)    .... 1000.000
   Orbital update algorithm             .... Taylor
   White noise on init. David. guess    .... on
   Maximum white noise                  ....   0.010
   Quad. conv. algorithm                .... NR
 SOSCF                  CNVSOSCF        .... on
   Start iteration      SOSCFMaxIt      ....   150
   Startup grad/error   SOSCFStart      ....  0.003300
 Level Shifting         CNVShift        .... on
   Level shift para.    LevelShift      ....    0.2500
   Turn off err/grad.   ShiftErr        ....    0.0010
 Zerner damping         CNVZerner       .... off
 Static damping         CNVDamp         .... on
   Fraction old density DampFac         ....    0.7000
   Max. Damping (<1)    DampMax         ....    0.9800
   Min. Damping (>=0)   DampMin         ....    0.0000
   Turn off err/grad.   DampErr         ....    0.1000
 Fernandez-Rico         CNVRico         .... off

SCF Procedure:
 Maximum # iterations   MaxIter         ....   125
 SCF integral mode      SCFMode         .... Direct
   Integral package                     .... SHARK and LIBINT hybrid scheme
 Reset frequency        DirectResetFreq ....    20
 Integral Threshold     Thresh          ....  2.500e-11 Eh
 Primitive CutOff       TCut            ....  2.500e-12 Eh

Convergence Tolerance:
 Convergence Check Mode ConvCheckMode   .... Total+1el-Energy
 Convergence forced     ConvForced      .... 1
 Energy Change          TolE            ....  1.000e-08 Eh
 1-El. energy change                    ....  1.000e-05 Eh
 Orbital Gradient       TolG            ....  1.000e-05
 Orbital Rotation angle TolX            ....  1.000e-05
 DIIS Error             TolErr          ....  5.000e-07


Diagonalization of the overlap matrix:
Smallest eigenvalue                        ... 1.086e-05
Time for diagonalization                   ...    0.008 sec
Threshold for overlap eigenvalues          ... 1.000e-08
Number of eigenvalues below threshold      ... 0
Time for construction of square roots      ...    0.052 sec
Total time needed                          ...    0.061 sec

Time for model grid setup =    0.112 sec

------------------------------
INITIAL GUESS: MODEL POTENTIAL
------------------------------
Loading Hartree-Fock densities                     ... done
Calculating cut-offs                               ... done
Initializing the effective Hamiltonian             ... done
Setting up the integral package (SHARK)            ... done
Starting the Coulomb interaction                   ... done (   0.0 sec)
Reading the grid                                   ... done
Mapping shells                                     ... done
Starting the XC term evaluation                    ... done (   0.0 sec)
Transforming the Hamiltonian                       ... done (   0.0 sec)
Diagonalizing the Hamiltonian                      ... done (   0.0 sec)
Back transforming the eigenvectors                 ... done (   0.0 sec)
Now organizing SCF variables                       ... done
                      ------------------
                      INITIAL GUESS DONE (   0.2 sec)
                      ------------------
--------------
SCF ITERATIONS
--------------
ITER       Energy         Delta-E        Max-DP      RMS-DP      [F,P]     Damp
               ***  Starting incremental Fock matrix formation  ***
  0   -232.6973179574   0.000000000000 0.21656197  0.00601898  0.2049262 0.7000
  1   -232.8020225136  -0.104704556162 0.15611355  0.00443938  0.1346815 0.7000
                               ***Turning on DIIS***
  2   -232.8676707376  -0.065648224052 0.36782094  0.01021837  0.0808926 0.0000
  3   -232.4583378566   0.409332881073 0.06898276  0.00133480  0.0299829 0.0000
  4   -232.9358871403  -0.477549283732 0.02977046  0.00067049  0.0073121 0.0000
                      *** Initiating the SOSCF procedure ***
                           *** Shutting down DIIS ***
                      *** Re-Reading the Fockian *** 
                      *** Removing any level shift *** 
ITER      Energy       Delta-E        Grad      Rot      Max-DP    RMS-DP
  5   -232.98527373  -0.0493865852  0.001160  0.001160  0.015020  0.000247
               *** Restarting incremental Fock matrix formation ***
  6   -233.00359281  -0.0183190856  0.000364  0.000457  0.004175  0.000075
  7   -233.00360301  -0.0000101995  0.000104  0.000269  0.002109  0.000037
  8   -233.00360447  -0.0000014616  0.000063  0.000092  0.000424  0.000007
  9   -233.00360456  -0.0000000861  0.000025  0.000025  0.000107  0.000002
 10   -233.00360458  -0.0000000181  0.000006  0.000010  0.000024  0.000001
 11   -233.00360458  -0.0000000049  0.000004  0.000011  0.000016  0.000000
                  ***Gradient check signals convergence***
              ***Rediagonalizing the Fockian in SOSCF/NRSCF***

               *****************************************************
               *                     SUCCESS                       *
               *           SCF CONVERGED AFTER  12 CYCLES          *
               *****************************************************


----------------
TOTAL SCF ENERGY
----------------

Total Energy       :         -233.00360458 Eh           -6340.35042 eV

Components:
Nuclear Repulsion  :          206.63543538 Eh            5622.83606 eV
Electronic Energy  :         -439.63903996 Eh          -11963.18647 eV
One Electron Energy:         -722.06175871 Eh          -19648.29935 eV
Two Electron Energy:          282.42271875 Eh            7685.11288 eV

Virial components:
Potential Energy   :         -465.80183582 Eh          -12675.11234 eV
Kinetic Energy     :          232.79823123 Eh            6334.76192 eV
Virial Ratio       :            2.00088219


---------------
SCF CONVERGENCE
---------------

  Last Energy change         ...   -2.2224e-09  Tolerance :   1.0000e-08
  Last MAX-Density change    ...    1.8849e-05  Tolerance :   1.0000e-07
  Last RMS-Density change    ...    3.5139e-07  Tolerance :   5.0000e-09
  Last Orbital Gradient      ...    1.4089e-06  Tolerance :   1.0000e-05
  Last Orbital Rotation      ...    7.0153e-06  Tolerance :   1.0000e-05

             **** THE GBW FILE WAS UPDATED (DZ_2-hexyne.gbw) ****
             **** DENSITY DZ_2-hexyne.scfp WAS UPDATED ****
             **** ENERGY FILE WAS UPDATED (DZ_2-hexyne.en.tmp) ****
             **** THE GBW FILE WAS UPDATED (DZ_2-hexyne.gbw) ****
             **** DENSITY DZ_2-hexyne.scfp WAS UPDATED ****
----------------
ORBITAL ENERGIES
----------------

  NO   OCC          E(Eh)            E(eV) 
   0   2.0000     -11.248021      -306.0742 
   1   2.0000     -11.247596      -306.0626 
   2   2.0000     -11.229929      -305.5819 
   3   2.0000     -11.222526      -305.3805 
   4   2.0000     -11.221647      -305.3565 
   5   2.0000     -11.218023      -305.2579 
   6   2.0000      -1.087123       -29.5821 
   7   2.0000      -1.041663       -28.3451 
   8   2.0000      -0.976589       -26.5743 
   9   2.0000      -0.913433       -24.8558 
  10   2.0000      -0.816312       -22.2130 
  11   2.0000      -0.660881       -17.9835 
  12   2.0000      -0.638547       -17.3757 
  13   2.0000      -0.609043       -16.5729 
  14   2.0000      -0.583515       -15.8783 
  15   2.0000      -0.581586       -15.8258 
  16   2.0000      -0.568585       -15.4720 
  17   2.0000      -0.549768       -14.9599 
  18   2.0000      -0.506791       -13.7905 
  19   2.0000      -0.488626       -13.2962 
  20   2.0000      -0.478161       -13.0114 
  21   2.0000      -0.359984        -9.7957 
  22   2.0000      -0.359844        -9.7918 
  23   0.0000       0.035969         0.9788 
  24   0.0000       0.039472         1.0741 
  25   0.0000       0.048461         1.3187 
  26   0.0000       0.050506         1.3743 
  27   0.0000       0.059564         1.6208 
  28   0.0000       0.065080         1.7709 
  29   0.0000       0.065104         1.7716 
  30   0.0000       0.073527         2.0008 
  31   0.0000       0.082873         2.2551 
  32   0.0000       0.090481         2.4621 
  33   0.0000       0.102060         2.7772 
  34   0.0000       0.120570         3.2809 
  35   0.0000       0.136361         3.7106 
  36   0.0000       0.143280         3.8988 
  37   0.0000       0.153424         4.1749 
  38   0.0000       0.155668         4.2360 
  39   0.0000       0.156783         4.2663 
  40   0.0000       0.165270         4.4972 
  41   0.0000       0.167714         4.5637 
  42   0.0000       0.171311         4.6616 
  43   0.0000       0.172103         4.6832 
  44   0.0000       0.177038         4.8174 
  45   0.0000       0.182352         4.9620 
  46   0.0000       0.190676         5.1885 
  47   0.0000       0.198875         5.4117 
  48   0.0000       0.203275         5.5314 
  49   0.0000       0.215539         5.8651 
  50   0.0000       0.221931         6.0390 
  51   0.0000       0.230024         6.2593 
  52   0.0000       0.240268         6.5380 
  53   0.0000       0.256919         6.9911 
  54   0.0000       0.259063         7.0495 
  55   0.0000       0.269300         7.3280 
  56   0.0000       0.288393         7.8476 
  57   0.0000       0.292360         7.9555 
  58   0.0000       0.297300         8.0899 
  59   0.0000       0.307243         8.3605 
  60   0.0000       0.308561         8.3964 
  61   0.0000       0.322845         8.7851 
  62   0.0000       0.324560         8.8317 
  63   0.0000       0.329988         8.9794 
  64   0.0000       0.373232        10.1562 
  65   0.0000       0.383766        10.4428 
  66   0.0000       0.388380        10.5684 
  67   0.0000       0.399571        10.8729 
  68   0.0000       0.416974        11.3464 
  69   0.0000       0.419970        11.4280 
  70   0.0000       0.424884        11.5617 
  71   0.0000       0.432286        11.7631 
  72   0.0000       0.443671        12.0729 
  73   0.0000       0.444166        12.0864 
  74   0.0000       0.448689        12.2094 
  75   0.0000       0.458348        12.4723 
  76   0.0000       0.463915        12.6238 
  77   0.0000       0.477732        12.9997 
  78   0.0000       0.481629        13.1058 
  79   0.0000       0.489586        13.3223 
  80   0.0000       0.499989        13.6054 
  81   0.0000       0.503591        13.7034 
  82   0.0000       0.514390        13.9973 
  83   0.0000       0.517418        14.0797 
  84   0.0000       0.519745        14.1430 
  85   0.0000       0.522925        14.2295 
  86   0.0000       0.554241        15.0817 
  87   0.0000       0.559915        15.2361 
  88   0.0000       0.566730        15.4215 
  89   0.0000       0.571627        15.5548 
  90   0.0000       0.588759        16.0210 
  91   0.0000       0.595919        16.2158 
  92   0.0000       0.598336        16.2816 
  93   0.0000       0.602577        16.3970 
  94   0.0000       0.611770        16.6471 
  95   0.0000       0.614348        16.7172 
  96   0.0000       0.633143        17.2287 
  97   0.0000       0.641696        17.4614 
  98   0.0000       0.643116        17.5001 
  99   0.0000       0.650471        17.7002 
 100   0.0000       0.651733        17.7346 
 101   0.0000       0.661231        17.9930 
 102   0.0000       0.665512        18.1095 
 103   0.0000       0.672046        18.2873 
 104   0.0000       0.683999        18.6126 
 105   0.0000       0.708754        19.2862 
 106   0.0000       0.721411        19.6306 
 107   0.0000       0.723144        19.6778 
 108   0.0000       0.731054        19.8930 
 109   0.0000       0.742145        20.1948 
 110   0.0000       0.745169        20.2771 
 111   0.0000       0.758543        20.6410 
 112   0.0000       0.775411        21.1000 
 113   0.0000       0.784710        21.3531 
 114   0.0000       0.788748        21.4629 
 115   0.0000       0.805355        21.9148 
 116   0.0000       0.814741        22.1702 
 117   0.0000       0.819363        22.2960 
 118   0.0000       0.836847        22.7718 
 119   0.0000       0.844443        22.9785 
 120   0.0000       0.867656        23.6101 
 121   0.0000       0.880229        23.9522 
 122   0.0000       0.882596        24.0167 
 123   0.0000       0.894409        24.3381 
 124   0.0000       0.906739        24.6736 
 125   0.0000       0.936694        25.4887 
 126   0.0000       0.953687        25.9512 
 127   0.0000       0.954482        25.9728 
 128   0.0000       0.969639        26.3852 
 129   0.0000       0.983482        26.7619 
 130   0.0000       1.048838        28.5403 
 131   0.0000       1.055837        28.7308 
 132   0.0000       1.063637        28.9430 
 133   0.0000       1.105929        30.0939 
 134   0.0000       1.124325        30.5944 
 135   0.0000       1.141330        31.0572 
 136   0.0000       1.154498        31.4155 
 137   0.0000       1.162517        31.6337 
 138   0.0000       1.167688        31.7744 
 139   0.0000       1.181783        32.1579 
 140   0.0000       1.192971        32.4624 
 141   0.0000       1.239667        33.7331 
 142   0.0000       1.269792        34.5528 
 143   0.0000       1.270323        34.5672 
 144   0.0000       1.271939        34.6112 
 145   0.0000       1.298219        35.3263 
 146   0.0000       1.336182        36.3594 
 147   0.0000       1.402079        38.1525 
 148   0.0000       1.403115        38.1807 
 149   0.0000       1.434187        39.0262 
 150   0.0000       1.465648        39.8823 
 151   0.0000       1.492786        40.6208 
 152   0.0000       1.506379        40.9907 
 153   0.0000       1.533574        41.7307 
 154   0.0000       1.560923        42.4749 
 155   0.0000       1.566694        42.6319 
 156   0.0000       1.614265        43.9264 
 157   0.0000       1.633555        44.4513 
 158   0.0000       1.643019        44.7088 
 159   0.0000       1.652339        44.9624 
 160   0.0000       1.698044        46.2061 
 161   0.0000       1.738500        47.3070 
 162   0.0000       1.745662        47.5019 
 163   0.0000       1.753986        47.7284 
 164   0.0000       1.769176        48.1417 
 165   0.0000       1.792904        48.7874 
 166   0.0000       1.838451        50.0268 
 167   0.0000       1.842638        50.1407 
 168   0.0000       1.874181        50.9991 
 169   0.0000       1.884677        51.2847 
 170   0.0000       1.906720        51.8845 
 171   0.0000       1.941797        52.8390 
 172   0.0000       1.950542        53.0769 
 173   0.0000       1.969740        53.5994 
 174   0.0000       1.987804        54.0909 
 175   0.0000       2.019979        54.9664 
 176   0.0000       2.020846        54.9900 
 177   0.0000       2.026544        55.1451 
 178   0.0000       2.046386        55.6850 
 179   0.0000       2.075318        56.4723 
 180   0.0000       2.105146        57.2839 
 181   0.0000       2.129887        57.9572 
 182   0.0000       2.130005        57.9604 
 183   0.0000       2.138537        58.1926 
 184   0.0000       2.176466        59.2247 
 185   0.0000       2.176950        59.2378 
 186   0.0000       2.217840        60.3505 
 187   0.0000       2.267361        61.6980 
 188   0.0000       2.277834        61.9830 
 189   0.0000       2.288495        62.2731 
 190   0.0000       2.292842        62.3914 
 191   0.0000       2.303624        62.6848 
 192   0.0000       2.335641        63.5560 
 193   0.0000       2.342687        63.7478 
 194   0.0000       2.375748        64.6474 
 195   0.0000       2.396766        65.2193 
 196   0.0000       2.403666        65.4071 
 197   0.0000       2.415693        65.7344 
 198   0.0000       2.451507        66.7089 
 199   0.0000       2.516444        68.4759 
 200   0.0000       2.553255        69.4776 
 201   0.0000       2.559229        69.6402 
 202   0.0000       2.582562        70.2751 
 203   0.0000       2.602302        70.8122 
 204   0.0000       2.669094        72.6297 
 205   0.0000       2.693304        73.2885 
 206   0.0000       2.698664        73.4344 
 207   0.0000       2.704405        73.5906 
 208   0.0000       2.761721        75.1502 
 209   0.0000       2.777038        75.5670 
 210   0.0000       2.805501        76.3415 
 211   0.0000       2.881396        78.4068 
 212   0.0000       2.903028        78.9954 
 213   0.0000       2.914427        79.3056 
 214   0.0000       2.919208        79.4357 
 215   0.0000       2.946732        80.1847 
 216   0.0000       2.959497        80.5320 
 217   0.0000       3.003408        81.7269 
 218   0.0000       3.041067        82.7516 
 219   0.0000       3.075465        83.6877 
 220   0.0000       3.101695        84.4014 
 221   0.0000       3.138946        85.4151 
 222   0.0000       3.168444        86.2177 
 223   0.0000       3.204040        87.1864 
 224   0.0000       3.263577        88.8064 
 225   0.0000       3.500775        95.2609 
 226   0.0000       3.690128       100.4135 
 227   0.0000       3.944553       107.3367 

                    ********************************
                    * MULLIKEN POPULATION ANALYSIS *
                    ********************************

-----------------------
MULLIKEN ATOMIC CHARGES
-----------------------
   0 C :    0.490340
   1 C :    0.151619
   2 C :   -0.103065
   3 C :    0.177664
   4 C :    0.313942
   5 C :   -0.931795
   6 H :   -0.069481
   7 H :    0.112087
   8 H :   -0.078766
   9 H :   -0.078766
  10 H :   -0.174404
  11 H :   -0.174404
  12 H :    0.058260
  13 H :    0.058260
  14 H :    0.124255
  15 H :    0.124255
Sum of atomic charges:   -0.0000000

--------------------------------
MULLIKEN REDUCED ORBITAL CHARGES
--------------------------------
  0 C s       :     2.822118  s :     2.822118
      pz      :     0.875147  p :     2.698653
      px      :     0.916258
      py      :     0.907248
      dz2     :    -0.006460  d :    -0.011111
      dxz     :     0.002858
      dyz     :    -0.006388
      dx2y2   :    -0.010556
      dxy     :     0.009437
  1 C s       :     2.850995  s :     2.850995
      pz      :     0.839075  p :     2.946868
      px      :     0.988803
      py      :     1.118990
      dz2     :    -0.000806  d :     0.050517
      dxz     :    -0.005965
      dyz     :     0.021503
      dx2y2   :     0.030942
      dxy     :     0.004844
  2 C s       :     2.872709  s :     2.872709
      pz      :     0.810018  p :     3.120882
      px      :     1.039690
      py      :     1.271173
      dz2     :     0.005073  d :     0.109475
      dxz     :     0.020752
      dyz     :     0.018561
      dx2y2   :    -0.012672
      dxy     :     0.077760
  3 C s       :     2.929068  s :     2.929068
      pz      :     0.899057  p :     2.475558
      px      :     0.749423
      py      :     0.827077
      dz2     :     0.007823  d :     0.417710
      dxz     :     0.146463
      dyz     :     0.147204
      dx2y2   :     0.059867
      dxy     :     0.056353
  4 C s       :     2.538944  s :     2.538944
      pz      :     0.915447  p :     2.970059
      px      :     0.956533
      py      :     1.098078
      dz2     :     0.006245  d :     0.177056
      dxz     :     0.007559
      dyz     :     0.015928
      dx2y2   :     0.078009
      dxy     :     0.069314
  5 C s       :     3.559609  s :     3.559609
      pz      :     0.906124  p :     2.627806
      px      :     0.795172
      py      :     0.926511
      dz2     :     0.020467  d :     0.744380
      dxz     :     0.108446
      dyz     :     0.213932
      dx2y2   :     0.340792
      dxy     :     0.060744
  6 H s       :     1.092431  s :     1.092431
      pz      :    -0.017602  p :    -0.022950
      px      :    -0.003292
      py      :    -0.002055
  7 H s       :     0.872180  s :     0.872180
      pz      :    -0.014921  p :     0.015733
      px      :     0.021795
      py      :     0.008859
  8 H s       :     1.096282  s :     1.096282
      pz      :     0.001203  p :    -0.017517
      px      :    -0.014910
      py      :    -0.003809
  9 H s       :     1.096282  s :     1.096282
      pz      :     0.001203  p :    -0.017517
      px      :    -0.014910
      py      :    -0.003809
 10 H s       :     1.208845  s :     1.208845
      pz      :    -0.002128  p :    -0.034441
      px      :    -0.014611
      py      :    -0.017702
 11 H s       :     1.208845  s :     1.208845
      pz      :    -0.002128  p :    -0.034441
      px      :    -0.014611
      py      :    -0.017702
 12 H s       :     0.959113  s :     0.959113
      pz      :     0.005629  p :    -0.017373
      px      :    -0.010578
      py      :    -0.012424
 13 H s       :     0.959113  s :     0.959113
      pz      :     0.005629  p :    -0.017373
      px      :    -0.010578
      py      :    -0.012424
 14 H s       :     0.865347  s :     0.865347
      pz      :     0.013283  p :     0.010398
      px      :    -0.003872
      py      :     0.000988
 15 H s       :     0.865347  s :     0.865347
      pz      :     0.013283  p :     0.010398
      px      :    -0.003872
      py      :     0.000988


                     *******************************
                     * LOEWDIN POPULATION ANALYSIS *
                     *******************************

----------------------
LOEWDIN ATOMIC CHARGES
----------------------
   0 C :    0.131192
   1 C :    0.112217
   2 C :   -0.063770
   3 C :   -0.025303
   4 C :   -0.063861
   5 C :   -0.061150
   6 H :   -0.020626
   7 H :   -0.012169
   8 H :   -0.019330
   9 H :   -0.019330
  10 H :    0.013176
  11 H :    0.013176
  12 H :    0.020170
  13 H :    0.020170
  14 H :   -0.012281
  15 H :   -0.012281

-------------------------------
LOEWDIN REDUCED ORBITAL CHARGES
-------------------------------
  0 C s       :     2.599997  s :     2.599997
      pz      :     0.924188  p :     2.763794
      px      :     0.918117
      py      :     0.921488
      dz2     :     0.071453  d :     0.505017
      dxz     :     0.154275
      dyz     :     0.045109
      dx2y2   :     0.119135
      dxy     :     0.115046
  1 C s       :     2.602118  s :     2.602118
      pz      :     0.931501  p :     2.780814
      px      :     0.926189
      py      :     0.923124
      dz2     :     0.071746  d :     0.504852
      dxz     :     0.035924
      dyz     :     0.148833
      dx2y2   :     0.140964
      dxy     :     0.107385
  2 C s       :     2.572714  s :     2.572714
      pz      :     0.908939  p :     2.722449
      px      :     0.902123
      py      :     0.911386
      dz2     :     0.089169  d :     0.768607
      dxz     :     0.179022
      dyz     :     0.120872
      dx2y2   :     0.186056
      dxy     :     0.193489
  3 C s       :     2.684572  s :     2.684572
      pz      :     0.793049  p :     2.660491
      px      :     0.907366
      py      :     0.960076
      dz2     :     0.057392  d :     0.680240
      dxz     :     0.111403
      dyz     :     0.124104
      dx2y2   :     0.214064
      dxy     :     0.173277
  4 C s       :     2.578824  s :     2.578824
      pz      :     0.912891  p :     2.704203
      px      :     0.903326
      py      :     0.887986
      dz2     :     0.090955  d :     0.780834
      dxz     :     0.193553
      dyz     :     0.117618
      dx2y2   :     0.195551
      dxy     :     0.183157
  5 C s       :     2.694768  s :     2.694768
      pz      :     0.804488  p :     2.672770
      px      :     0.910736
      py      :     0.957545
      dz2     :     0.056986  d :     0.693611
      dxz     :     0.085981
      dyz     :     0.147705
      dx2y2   :     0.232698
      dxy     :     0.170241
  6 H s       :     0.743155  s :     0.743155
      pz      :     0.074135  p :     0.277471
      px      :     0.085799
      py      :     0.117537
  7 H s       :     0.728612  s :     0.728612
      pz      :     0.072929  p :     0.283557
      px      :     0.134964
      py      :     0.075665
  8 H s       :     0.741263  s :     0.741263
      pz      :     0.119106  p :     0.278067
      px      :     0.091472
      py      :     0.067490
  9 H s       :     0.741263  s :     0.741263
      pz      :     0.119106  p :     0.278067
      px      :     0.091472
      py      :     0.067490
 10 H s       :     0.729798  s :     0.729798
      pz      :     0.114947  p :     0.257026
      px      :     0.085232
      py      :     0.056848
 11 H s       :     0.729798  s :     0.729798
      pz      :     0.114947  p :     0.257026
      px      :     0.085232
      py      :     0.056848
 12 H s       :     0.715529  s :     0.715529
      pz      :     0.114579  p :     0.264301
      px      :     0.089471
      py      :     0.060251
 13 H s       :     0.715529  s :     0.715529
      pz      :     0.114579  p :     0.264301
      px      :     0.089471
      py      :     0.060251
 14 H s       :     0.728743  s :     0.728743
      pz      :     0.119670  p :     0.283538
      px      :     0.070778
      py      :     0.093090
 15 H s       :     0.728743  s :     0.728743
      pz      :     0.119670  p :     0.283538
      px      :     0.070778
      py      :     0.093090


                      *****************************
                      * MAYER POPULATION ANALYSIS *
                      *****************************

  NA   - Mulliken gross atomic population
  ZA   - Total nuclear charge
  QA   - Mulliken gross atomic charge
  VA   - Mayer's total valence
  BVA  - Mayer's bonded valence
  FA   - Mayer's free valence

  ATOM       NA         ZA         QA         VA         BVA        FA
  0 C      5.5097     6.0000     0.4903     3.8140     3.8140    -0.0000
  1 C      5.8484     6.0000     0.1516     3.8725     3.8725    -0.0000
  2 C      6.1031     6.0000    -0.1031     4.5420     4.5420    -0.0000
  3 C      5.8223     6.0000     0.1777     4.0167     4.0167    -0.0000
  4 C      5.6861     6.0000     0.3139     3.9534     3.9534    -0.0000
  5 C      6.9318     6.0000    -0.9318     5.0633     5.0633    -0.0000
  6 H      1.0695     1.0000    -0.0695     0.7538     0.7538     0.0000
  7 H      0.8879     1.0000     0.1121     0.9119     0.9119    -0.0000
  8 H      1.0788     1.0000    -0.0788     0.8234     0.8234    -0.0000
  9 H      1.0788     1.0000    -0.0788     0.8234     0.8234    -0.0000
 10 H      1.1744     1.0000    -0.1744     0.7281     0.7281    -0.0000
 11 H      1.1744     1.0000    -0.1744     0.7281     0.7281    -0.0000
 12 H      0.9417     1.0000     0.0583     0.7799     0.7799     0.0000
 13 H      0.9417     1.0000     0.0583     0.7799     0.7799     0.0000
 14 H      0.8757     1.0000     0.1243     0.8891     0.8891     0.0000
 15 H      0.8757     1.0000     0.1243     0.8891     0.8891    -0.0000

  Mayer bond orders larger than 0.100000
B(  0-C ,  4-C ) :   1.1581 B(  0-C ,  6-H ) :   0.9103 B(  0-C ,  8-H ) :   0.9297 
B(  0-C ,  9-H ) :   0.9297 B(  1-C ,  3-C ) :   0.3254 B(  1-C ,  5-C ) :   1.1585 
B(  1-C ,  7-H ) :   0.8040 B(  1-C , 14-H ) :   0.7922 B(  1-C , 15-H ) :   0.7922 
B(  2-C ,  3-C ) :   1.2516 B(  2-C ,  4-C ) :   1.3026 B(  2-C ,  5-C ) :   0.3723 
B(  2-C , 12-H ) :   0.8021 B(  2-C , 13-H ) :   0.8021 B(  3-C ,  4-C ) :  -0.1553 
B(  3-C ,  5-C ) :   2.5891 B(  3-C , 12-H ) :   0.1939 B(  3-C , 13-H ) :   0.1939 
B(  3-C , 14-H ) :  -0.1140 B(  3-C , 15-H ) :  -0.1140 B(  4-C , 10-H ) :   0.7572 
B(  4-C , 11-H ) :   0.7572 B(  5-C ,  7-H ) :   0.2922 B(  5-C , 12-H ) :  -0.1036 
B(  5-C , 13-H ) :  -0.1036 B(  5-C , 14-H ) :   0.3132 B(  5-C , 15-H ) :   0.3132 


-------
TIMINGS
-------

Total SCF time: 0 days 0 hours 0 min 18 sec 

Total time                  ....      18.840 sec
Sum of individual times     ....      18.264 sec  ( 96.9%)

Fock matrix formation       ....      17.477 sec  ( 92.8%)
Diagonalization             ....       0.116 sec  (  0.6%)
Density matrix formation    ....       0.019 sec  (  0.1%)
Population analysis         ....       0.108 sec  (  0.6%)
Initial guess               ....       0.088 sec  (  0.5%)
Orbital Transformation      ....       0.000 sec  (  0.0%)
Orbital Orthonormalization  ....       0.000 sec  (  0.0%)
DIIS solution               ....       0.260 sec  (  1.4%)
SOSCF solution              ....       0.084 sec  (  0.4%)

Maximum memory used throughout the entire SCF-calculation: 233.0 MB


           ************************************************************
           *        Program running with 16 parallel MPI-processes    *
           *              working on a common directory               *
           ************************************************************

------------------------------------------------------------------------------
                                ORCA  MP2 
------------------------------------------------------------------------------

Freezing NCore=12 chemical core electrons

-------------
RI-MP2 ENERGY
-------------
Dimension of the basis                    ...  228
Memory devoted to MP2                     ...  256 MB   
Data format for buffers                   ... DOUBLE
Compression type for matrix containers    ... UNCOMPRESSED
Overall scaling of the MP2 energy         ...   1.000e+00
Calculating two index integrals           ... done (    0.004 sec)
Cholesky decomposition of V**-1           ... done (    0.048 sec)

-----------------
RI-TRANSFORMATION (AUX index driven)
-----------------

Dimension of the orbital-basis         ... 228
Dimension of the aux-basis             ... 662
Transformation of internal/external MOs...    6-  22 to   23- 227
Number Format for Storage              ... Double (8 Byte)
Integral mode                          ... Direct

First Phase: integral generation and transformation of MO indices
  Aux angular momentum 0               ... done (    0.014 sec)
  Aux angular momentum 1               ... done (    0.021 sec)
  Aux angular momentum 2               ... done (    0.028 sec)
  Aux angular momentum 3               ... done (    0.016 sec)
Closing buffer VIA ( 0.02 GB; CompressionRatio= 1.00)
  Phase 1 completed in     0.202 sec
Second Phase: sorting and transformation of aux index

IA-Transformation
Memory available                       ... 210 MB 
Max. # MO pairs treated in a batch     ... 2    
# of internal orbitals                 ... 17
# batches for internal orbitals        ... 1
Closing buffer IAV ( 0.02 GB; CompressionRatio= 1.00)
(ia|v) transformation done in     0.037 sec

  Phase 2 completed in     0.074 sec
RI-Integral transformation completed in     0.282 sec
Opening buffers                              ... done

Starting loop over batches of integrals:

Operator 0  - window                       ... (  6- 22)x( 23-227)
Operator 0  - Memory available             ...   256 MB
Operator 0  - Memory needed per MO         ...   1.0 MB
Operator 0  - Number of orbitals per batch ... 2
Operator 0  - Number of batches            ... 1

OPERATOR  0   PASS   0:  MOs     6 ...    7 +    8 ...    9 +   10 ...   11 +   12 ...   13
                            +   14 ...   15 +   16 ...   17 +   18 ...   19 +   20 ...   21
                            +   22 ...   22
  Reading integrals       ... ok
Time spent in pair loops =     0.009 sec
Deleting buffer (Ka|jb)[aa] ...done

-----------------------------------------------
 RI-MP2 CORRELATION ENERGY:     -0.852196773 Eh
-----------------------------------------------


-------
TIMINGS
-------

Total time                :    0.422 sec
Integral trafo            :    0.291 sec ( 68.9%)
I/O of integrals          :    0.001 sec (  0.2%)
K(i,j) Operators          :    0.005 sec (  1.2%)
T(i,j) pair energies      :    0.001 sec (  0.1%)
V-calculation             :    0.004 sec (  1.0%)
V**(-1/2)                 :    0.048 sec ( 11.4%)
Gamma(ia|P)               :    0.000 sec (  0.0%)
Gamma-Trafo               :    0.000 sec (  0.0%)
D(virtual)                :    0.000 sec (  0.0%)
D(internal)               :    0.000 sec (  0.0%)
W(virtual)                :    0.000 sec (  0.0%)
W(internal)               :    0.000 sec (  0.0%)
L(virtual)                :    0.000 sec (  0.0%)
L(internal)               :    0.000 sec (  0.0%)
G(D)                      :    0.000 sec (  0.0%)
G(Z)                      :    0.000 sec (  0.0%)
Z-Vector Solution         :    0.000 sec (  0.0%)
3-Index Derivative        :    0.000 sec (  0.0%)
2-Index Derivative        :    0.000 sec (  0.0%)
Separable Gradient        :    0.000 sec (  0.0%)


---------------------------------------
MP2 TOTAL ENERGY:     -233.855801356 Eh
---------------------------------------

Maximum memory used throughout the entire MP2-calculation: 90.9 MB

-------------------------   --------------------
FINAL SINGLE POINT ENERGY      -233.855801356345
-------------------------   --------------------


                            ***************************************
                            *     ORCA property calculations      *
                            ***************************************


  WARNING: The energy has been calculated at the MP2 level but the densities
           used in the property calculations are still SCF densities
           MP2 response densities have not been calculated 
           use %mp2 Density relaxed end
           or  %mp2 Density unrelaxed end

                                    ---------------------
                                    Active property flags
                                    ---------------------
   (+) Dipole Moment


------------------------------------------------------------------------------
                       ORCA ELECTRIC PROPERTIES CALCULATION
------------------------------------------------------------------------------

Dipole Moment Calculation                       ... on
Quadrupole Moment Calculation                   ... off
Polarizability Calculation                      ... off
GBWName                                         ... DZ_2-hexyne.gbw
Electron density                                ... DZ_2-hexyne.scfp
The origin for moment calculation is the CENTER OF MASS  = (-0.018359,  0.087584  0.000000)

-------------
DIPOLE MOMENT
-------------
                                X             Y             Z
Electronic contribution:     -0.89408       3.98233      -0.00000
Nuclear contribution   :      0.84450      -4.02887       0.00000
                        -----------------------------------------
Total Dipole Moment    :     -0.04958      -0.04655      -0.00000
                        -----------------------------------------
Magnitude (a.u.)       :      0.06801
Magnitude (Debye)      :      0.17286



--------------------
Rotational spectrum 
--------------------
 
Rotational constants in cm-1:     0.603832     0.039924     0.038511 
Rotational constants in MHz : 18102.419163  1196.888311  1154.525630 

 Dipole components along the rotational axes: 
x,y,z [a.u.] :     0.020276     0.064913    -0.000000 
x,y,z [Debye]:     0.051538     0.164997    -0.000000 

 

Timings for individual modules:

Sum of individual times         ...       31.757 sec (=   0.529 min)
GTO integral calculation        ...        4.485 sec (=   0.075 min)  14.1 %
SCF iterations                  ...       23.764 sec (=   0.396 min)  74.8 %
MP2 module                      ...        3.508 sec (=   0.058 min)  11.0 %
                             ****ORCA TERMINATED NORMALLY****
TOTAL RUN TIME: 0 days 0 hours 0 minutes 36 seconds 312 msec
