
                                 *****************
                                 * O   R   C   A *
                                 *****************

                                            #,                                       
                                            ###                                      
                                            ####                                     
                                            #####                                    
                                            ######                                   
                                           ########,                                 
                                     ,,################,,,,,                         
                               ,,#################################,,                 
                          ,,##########################################,,             
                       ,#########################################, ''#####,          
                    ,#############################################,,   '####,        
                  ,##################################################,,,,####,       
                ,###########''''           ''''###############################       
              ,#####''   ,,,,##########,,,,          '''####'''          '####       
            ,##' ,,,,###########################,,,                        '##       
           ' ,,###''''                  '''############,,,                           
         ,,##''                                '''############,,,,        ,,,,,,###''
      ,#''                                            '''#######################'''  
     '                                                          ''''####''''         
             ,#######,   #######,   ,#######,      ##                                
            ,#'     '#,  ##    ##  ,#'     '#,    #''#        ######   ,####,        
            ##       ##  ##   ,#'  ##            #'  '#       #        #'  '#        
            ##       ##  #######   ##           ,######,      #####,   #    #        
            '#,     ,#'  ##    ##  '#,     ,#' ,#      #,         ##   #,  ,#        
             '#######'   ##     ##  '#######'  #'      '#     #####' # '####'        



                  #######################################################
                  #                        -***-                        #
                  #          Department of theory and spectroscopy      #
                  #    Directorship and core code : Frank Neese         #
                  #        Max Planck Institute fuer Kohlenforschung    #
                  #                Kaiser Wilhelm Platz 1               #
                  #                 D-45470 Muelheim/Ruhr               #
                  #                      Germany                        #
                  #                                                     #
                  #                  All rights reserved                #
                  #                        -***-                        #
                  #######################################################


                         Program Version 5.0.3 -  RELEASE  -


 With contributions from (in alphabetic order):
   Daniel Aravena         : Magnetic Suceptibility
   Michael Atanasov       : Ab Initio Ligand Field Theory (pilot matlab implementation)
   Alexander A. Auer      : GIAO ZORA, VPT2 properties, NMR spectrum
   Ute Becker             : Parallelization
   Giovanni Bistoni       : ED, misc. LED, open-shell LED, HFLD
   Martin Brehm           : Molecular dynamics
   Dmytro Bykov           : SCF Hessian
   Vijay G. Chilkuri      : MRCI spin determinant printing, contributions to CSF-ICE
   Dipayan Datta          : RHF DLPNO-CCSD density
   Achintya Kumar Dutta   : EOM-CC, STEOM-CC
   Dmitry Ganyushin       : Spin-Orbit,Spin-Spin,Magnetic field MRCI
   Miquel Garcia          : C-PCM and meta-GGA Hessian, CC/C-PCM, Gaussian charge scheme
   Yang Guo               : DLPNO-NEVPT2, F12-NEVPT2, CIM, IAO-localization
   Andreas Hansen         : Spin unrestricted coupled pair/coupled cluster methods
   Benjamin Helmich-Paris : MC-RPA, TRAH-SCF, COSX integrals
   Lee Huntington         : MR-EOM, pCC
   Robert Izsak           : Overlap fitted RIJCOSX, COSX-SCS-MP3, EOM
   Marcus Kettner         : VPT2
   Christian Kollmar      : KDIIS, OOCD, Brueckner-CCSD(T), CCSD density, CASPT2, CASPT2-K
   Simone Kossmann        : Meta GGA functionals, TD-DFT gradient, OOMP2, MP2 Hessian
   Martin Krupicka        : Initial AUTO-CI
   Lucas Lang             : DCDCAS
   Marvin Lechner         : AUTO-CI (C++ implementation), FIC-MRCC
   Dagmar Lenk            : GEPOL surface, SMD
   Dimitrios Liakos       : Extrapolation schemes; Compound Job, initial MDCI parallelization
   Dimitrios Manganas     : Further ROCIS development; embedding schemes
   Dimitrios Pantazis     : SARC Basis sets
   Anastasios Papadopoulos: AUTO-CI, single reference methods and gradients
   Taras Petrenko         : DFT Hessian,TD-DFT gradient, ASA, ECA, R-Raman, ABS, FL, XAS/XES, NRVS
   Peter Pinski           : DLPNO-MP2, DLPNO-MP2 Gradient
   Christoph Reimann      : Effective Core Potentials
   Marius Retegan         : Local ZFS, SOC
   Christoph Riplinger    : Optimizer, TS searches, QM/MM, DLPNO-CCSD(T), (RO)-DLPNO pert. Triples
   Tobias Risthaus        : Range-separated hybrids, TD-DFT gradient, RPA, STAB
   Michael Roemelt        : Original ROCIS implementation
   Masaaki Saitow         : Open-shell DLPNO-CCSD energy and density
   Barbara Sandhoefer     : DKH picture change effects
   Avijit Sen             : IP-ROCIS
   Kantharuban Sivalingam : CASSCF convergence, NEVPT2, FIC-MRCI
   Bernardo de Souza      : ESD, SOC TD-DFT
   Georgi Stoychev        : AutoAux, RI-MP2 NMR, DLPNO-MP2 response
   Willem Van den Heuvel  : Paramagnetic NMR
   Boris Wezisla          : Elementary symmetry handling
   Frank Wennmohs         : Technical directorship


 We gratefully acknowledge several colleagues who have allowed us to
 interface, adapt or use parts of their codes:
   Stefan Grimme, W. Hujo, H. Kruse, P. Pracht,  : VdW corrections, initial TS optimization,
                  C. Bannwarth, S. Ehlert          DFT functionals, gCP, sTDA/sTD-DF
   Ed Valeev, F. Pavosevic, A. Kumar             : LibInt (2-el integral package), F12 methods
   Garnet Chan, S. Sharma, J. Yang, R. Olivares  : DMRG
   Ulf Ekstrom                                   : XCFun DFT Library
   Mihaly Kallay                                 : mrcc  (arbitrary order and MRCC methods)
   Jiri Pittner, Ondrej Demel                    : Mk-CCSD
   Frank Weinhold                                : gennbo (NPA and NBO analysis)
   Christopher J. Cramer and Donald G. Truhlar   : smd solvation model
   Lars Goerigk                                  : TD-DFT with DH, B97 family of functionals
   V. Asgeirsson, H. Jonsson                     : NEB implementation
   FAccTs GmbH                                   : IRC, NEB, NEB-TS, DLPNO-Multilevel, CI-OPT
                                                   MM, QMMM, 2- and 3-layer-ONIOM, Crystal-QMMM,
                                                   LR-CPCM, SF, NACMEs, symmetry and pop. for TD-DFT,
                                                   nearIR, NL-DFT gradient (VV10), updates on ESD,
                                                   ML-optimized integration grids
   S Lehtola, MJT Oliveira, MAL Marques          : LibXC Library
   Liviu Ungur et al                             : ANISO software


 Your calculation uses the libint2 library for the computation of 2-el integrals
 For citations please refer to: http://libint.valeyev.net

 Your ORCA version has been built with support for libXC version: 5.1.0
 For citations please refer to: https://tddft.org/programs/libxc/

 This ORCA versions uses:
   CBLAS   interface :  Fast vector & matrix operations
   LAPACKE interface :  Fast linear algebra routines
   SCALAPACK package :  Parallel linear algebra routines
   Shared memory     :  Shared parallel matrices
   BLAS/LAPACK       :  OpenBLAS 0.3.15  USE64BITINT DYNAMIC_ARCH NO_AFFINITY SkylakeX SINGLE_THREADED
        Core in use  :  SkylakeX
   Copyright (c) 2011-2014, The OpenBLAS Project


================================================================================

----- Orbital basis set information -----
Your calculation utilizes the basis: aug-cc-pVDZ 
    H, B-Ne : Obtained from the ccRepo (grant-hill.group.shef.ac.uk/ccrepo) Feb. 2017
              R. A. Kendall, T. H. Dunning, Jr., R. J. Harrison, J. Chem. Phys. 96, 6796 (1992)
         He : Obtained from the ccRepo (grant-hill.group.shef.ac.uk/ccrepo) Feb. 2017
              D. E. Woon, T. H. Dunning, Jr., J. Chem. Phys. 100, 2975 (1994)
  Li-Be, Na : Obtained from the ccRepo (grant-hill.group.shef.ac.uk/ccrepo) Feb. 2017
              B. P. Prascher, D. E. Woon, K. A. Peterson, T. H. Dunning, Jr., A. K. Wilson, Theor. Chem. Acc. 128, 69 (2011)
         Mg : Obtained from the Peterson Research Group Website (tyr0.chem.wsu.edu/~kipeters) Feb. 2017
              B. P. Prascher, D. E. Woon, K. A. Peterson, T. H. Dunning, Jr., A. K. Wilson, Theor. Chem. Acc. 128, 69 (2011)
      Al-Ar : Obtained from the ccRepo (grant-hill.group.shef.ac.uk/ccrepo) Feb. 2017
              D. E. Woon, T. H. Dunning, Jr., J. Chem. Phys. 98, 1358 (1993)
      Sc-Zn : Obtained from the ccRepo (grant-hill.group.shef.ac.uk/ccrepo) Feb. 2017
              N. B. Balabanov, K. A. Peterson, J. Chem. Phys. 123, 064107 (2005)
              N. B. Balabanov, K. A. Peterson, J. Chem. Phys. 125, 074110 (2006)
      Ga-Kr : Obtained from the ccRepo (grant-hill.group.shef.ac.uk/ccrepo) Feb. 2017
              A. K. Wilson, D. E. Woon, K. A. Peterson, T. H. Dunning, Jr., J. Chem. Phys. 110, 7667 (1999)

----- AuxC basis set information -----
Your calculation utilizes the auxiliary basis: aug-cc-pVDZ/C 
  H-He, B, Ne, Al-Ar, Ga-Ge, Se-Br : Obtained from the EMSL Basis Set Exchange (bse.pnl.gov) Feb. 2017
                                     F. Weigend, A. Kohn, C. Hattig, J. Chem. Phys. 116, 3175 (2002)
                            Be, Mg : Obtained from the TURBOMOLE 7.0 basis set library
                                     C. Haettig, Phys. Chem. Chem. Phys. 7, 59 (2005)
                               C-F : Obtained from the EMSL Basis Set Exchange (bse.pnl.gov) Feb. 2017
                                     C. Haettig, Phys. Chem. Chem. Phys. 7, 59 (2005)
                                     F. Weigend, A. Kohn, C. Hattig, J. Chem. Phys. 116, 3175 (2002)
                                As : Obtained from the EMSL Basis Set Exchange (bse.pnl.gov) Feb. 2017
                                     C. Haettig, G. Schmitz, J. Kossmann, Phys. Chem. Chem. Phys. 14, 6549 (2012)
                                Kr : Obtained from the TURBOMOLE 7.0 basis set library
                                     F. Weigend, A. Kohn, C. Hattig, J. Chem. Phys. 116, 3175 (2002)
                                     S function revised in Sep. 2009

================================================================================
                                        WARNINGS
                       Please study these warnings very carefully!
================================================================================


WARNING: No MP2 level density has been requested!
         To caclulate MP2 level properties use
         %mp2 Density relaxed end
         or
         %mp2 Density unrelaxed end

WARNING: Post HF methods need fully converged wavefunctions
  ===> : Setting SCFConvForced true
         You can overwrite this default with %scf ConvForced false 


INFO   : the flag for use of the SHARK integral package has been found!

================================================================================
                                       INPUT FILE
================================================================================
NAME = DZ_3-methyl-1-butanethiol.inp
|  1> !ri-mp2 aug-cc-pvdz aug-cc-pvdz/c tightscf
|  2> %pal nprocs 16 end
|  3> 
|  4> * xyz 0 1
|  5> C      1.606387   -0.480067    0.000000
|  6> H      2.540581    0.090664    0.000000
|  7> S     -2.130950    1.425864    0.000000
|  8> H     -3.258675    0.692401    0.000000
|  9> C     -0.938661    0.019058    0.000000
| 10> C      0.482787    0.577197    0.000000
| 11> C      1.606387   -1.344668    1.264784
| 12> C      1.606387   -1.344668   -1.264784
| 13> H     -1.123532   -0.585866    0.884604
| 14> H     -1.123532   -0.585866   -0.884604
| 15> H      0.607472    1.219754   -0.875670
| 16> H      0.607472    1.219754    0.875670
| 17> H      2.487666   -1.987485   -1.291990
| 18> H      2.487666   -1.987485    1.291990
| 19> H      0.730680   -1.994906    1.310682
| 20> H      0.730680   -1.994906   -1.310682
| 21> H      1.614497   -0.730494    2.167099
| 22> H      1.614497   -0.730494   -2.167099
| 23> *
| 24> 
| 25>                          ****END OF INPUT****
================================================================================

                       ****************************
                       * Single Point Calculation *
                       ****************************

---------------------------------
CARTESIAN COORDINATES (ANGSTROEM)
---------------------------------
  C      1.606387   -0.480067    0.000000
  H      2.540581    0.090664    0.000000
  S     -2.130950    1.425864    0.000000
  H     -3.258675    0.692401    0.000000
  C     -0.938661    0.019058    0.000000
  C      0.482787    0.577197    0.000000
  C      1.606387   -1.344668    1.264784
  C      1.606387   -1.344668   -1.264784
  H     -1.123532   -0.585866    0.884604
  H     -1.123532   -0.585866   -0.884604
  H      0.607472    1.219754   -0.875670
  H      0.607472    1.219754    0.875670
  H      2.487666   -1.987485   -1.291990
  H      2.487666   -1.987485    1.291990
  H      0.730680   -1.994906    1.310682
  H      0.730680   -1.994906   -1.310682
  H      1.614497   -0.730494    2.167099
  H      1.614497   -0.730494   -2.167099

----------------------------
CARTESIAN COORDINATES (A.U.)
----------------------------
  NO LB      ZA    FRAG     MASS         X           Y           Z
   0 C     6.0000    0    12.011    3.035631   -0.907195    0.000000
   1 H     1.0000    0     1.008    4.801002    0.171330    0.000000
   2 S    16.0000    0    32.060   -4.026912    2.694492    0.000000
   3 H     1.0000    0     1.008   -6.158003    1.308448    0.000000
   4 C     6.0000    0    12.011   -1.773812    0.036014    0.000000
   5 C     6.0000    0    12.011    0.912335    1.090744    0.000000
   6 C     6.0000    0    12.011    3.035631   -2.541054    2.390095
   7 C     6.0000    0    12.011    3.035631   -2.541054   -2.390095
   8 H     1.0000    0     1.008   -2.123168   -1.107126    1.671659
   9 H     1.0000    0     1.008   -2.123168   -1.107126   -1.671659
  10 H     1.0000    0     1.008    1.147956    2.305001   -1.654776
  11 H     1.0000    0     1.008    1.147956    2.305001    1.654776
  12 H     1.0000    0     1.008    4.701007   -3.755802   -2.441507
  13 H     1.0000    0     1.008    4.701007   -3.755802    2.441507
  14 H     1.0000    0     1.008    1.380785   -3.769826    2.476830
  15 H     1.0000    0     1.008    1.380785   -3.769826   -2.476830
  16 H     1.0000    0     1.008    3.050957   -1.380434    4.095224
  17 H     1.0000    0     1.008    3.050957   -1.380434   -4.095224

--------------------------------
INTERNAL COORDINATES (ANGSTROEM)
--------------------------------
 C      0   0   0     0.000000000000     0.00000000     0.00000000
 H      1   0   0     1.094738463742     0.00000000     0.00000000
 S      1   2   0     4.195266478822   121.55758523     0.00000000
 H      3   1   2     1.345262668773   119.94012486   180.00000000
 C      3   1   2     1.844086814973    22.69799552   180.00000000
 C      5   3   1     1.527099721703   108.84405783     0.00000000
 C      1   2   3     1.532061831604   107.11029728   239.74303039
 C      1   2   3     1.532061831604   107.11029728   120.25696961
 H      5   3   1     1.087490031786   108.32715767   121.02956478
 H      5   3   1     1.087490031786   108.32715767   238.97043522
 H      6   5   3     1.093262912741   108.72170713   302.25113666
 H      6   5   3     1.093262912741   108.72170713    57.74886334
 H      8   1   2     1.091149182177   110.67373958    57.08080801
 H      7   1   2     1.091149182177   110.67373958   302.91919199
 H      7   1   2     1.091686233721   111.76765863   183.49557368
 H      8   1   2     1.091686233721   111.76765863   176.50442632
 H      7   1   2     1.091534623180   111.40129565    62.77854335
 H      8   1   2     1.091534623180   111.40129565   297.22145665

---------------------------
INTERNAL COORDINATES (A.U.)
---------------------------
 C      0   0   0     0.000000000000     0.00000000     0.00000000
 H      1   0   0     2.068755884743     0.00000000     0.00000000
 S      1   2   0     7.927904703794   121.55758523     0.00000000
 H      3   1   2     2.542178022169   119.94012486   180.00000000
 C      3   1   2     3.484819047474    22.69799552   180.00000000
 C      5   3   1     2.885800253206   108.84405783     0.00000000
 C      1   2   3     2.895177281965   107.11029728   239.74303039
 C      1   2   3     2.895177281965   107.11029728   120.25696961
 H      5   3   1     2.055058333444   108.32715767   121.02956478
 H      5   3   1     2.055058333444   108.32715767   238.97043522
 H      6   5   3     2.065967497453   108.72170713   302.25113666
 H      6   5   3     2.065967497453   108.72170713    57.74886334
 H      8   1   2     2.061973125567   110.67373958    57.08080801
 H      7   1   2     2.061973125567   110.67373958   302.91919199
 H      7   1   2     2.062988005906   111.76765863   183.49557368
 H      8   1   2     2.062988005906   111.76765863   176.50442632
 H      7   1   2     2.062701503503   111.40129565    62.77854335
 H      8   1   2     2.062701503503   111.40129565   297.22145665

---------------------
BASIS SET INFORMATION
---------------------
There are 3 groups of distinct atoms

 Group   1 Type C   : 18s5p2d contracted to 4s3p2d pattern {8811/311/11}
 Group   2 Type H   : 5s2p contracted to 3s2p pattern {311/11}
 Group   3 Type S   : 35s16p2d contracted to 5s4p2d pattern {11111111/7711/11}

Atom   0C    basis set group =>   1
Atom   1H    basis set group =>   2
Atom   2S    basis set group =>   3
Atom   3H    basis set group =>   2
Atom   4C    basis set group =>   1
Atom   5C    basis set group =>   1
Atom   6C    basis set group =>   1
Atom   7C    basis set group =>   1
Atom   8H    basis set group =>   2
Atom   9H    basis set group =>   2
Atom  10H    basis set group =>   2
Atom  11H    basis set group =>   2
Atom  12H    basis set group =>   2
Atom  13H    basis set group =>   2
Atom  14H    basis set group =>   2
Atom  15H    basis set group =>   2
Atom  16H    basis set group =>   2
Atom  17H    basis set group =>   2
---------------------------------
AUXILIARY/C BASIS SET INFORMATION
---------------------------------
There are 3 groups of distinct atoms

 Group   1 Type C   : 8s6p5d3f contracted to 8s6p5d3f pattern {11111111/111111/11111/111}
 Group   2 Type H   : 4s3p2d contracted to 4s3p2d pattern {1111/111/11}
 Group   3 Type S   : 10s8p6d4f contracted to 10s8p6d4f pattern {1111111111/11111111/111111/1111}

Atom   0C    basis set group =>   1
Atom   1H    basis set group =>   2
Atom   2S    basis set group =>   3
Atom   3H    basis set group =>   2
Atom   4C    basis set group =>   1
Atom   5C    basis set group =>   1
Atom   6C    basis set group =>   1
Atom   7C    basis set group =>   1
Atom   8H    basis set group =>   2
Atom   9H    basis set group =>   2
Atom  10H    basis set group =>   2
Atom  11H    basis set group =>   2
Atom  12H    basis set group =>   2
Atom  13H    basis set group =>   2
Atom  14H    basis set group =>   2
Atom  15H    basis set group =>   2
Atom  16H    basis set group =>   2
Atom  17H    basis set group =>   2


           ************************************************************
           *        Program running with 16 parallel MPI-processes    *
           *              working on a common directory               *
           ************************************************************
------------------------------------------------------------------------------
                           ORCA GTO INTEGRAL CALCULATION
------------------------------------------------------------------------------
------------------------------------------------------------------------------
                   ___                                                        
                  /   \      - P O W E R E D   B Y -                         
                 /     \                                                     
                 |  |  |   _    _      __       _____    __    __             
                 |  |  |  | |  | |    /  \     |  _  \  |  |  /  |          
                  \  \/   | |  | |   /    \    | | | |  |  | /  /          
                 / \  \   | |__| |  /  /\  \   | |_| |  |  |/  /          
                |  |  |   |  __  | /  /__\  \  |    /   |      \           
                |  |  |   | |  | | |   __   |  |    \   |  |\   \          
                \     /   | |  | | |  |  |  |  | |\  \  |  | \   \       
                 \___/    |_|  |_| |__|  |__|  |_| \__\ |__|  \__/        
                                                                              
                      - O R C A' S   B I G   F R I E N D -                    
                                      &                                       
                       - I N T E G R A L  F E E D E R -                       
                                                                              
 v1 FN, 2020, v2 2021                                                         
------------------------------------------------------------------------------


Reading SHARK input file DZ_3-methyl-1-butanethiol.SHARKINP.tmp ... ok
----------------------
SHARK INTEGRAL PACKAGE
----------------------

Number of atoms                             ...     18
Number of basis functions                   ...    303
Number of shells                            ...    159
Maximum angular momentum                    ...      2
Integral batch strategy                     ... SHARK/LIBINT Hybrid
RI-J (if used) integral strategy            ... SPLIT-RIJ (Revised 2003 algorithm where possible)
Printlevel                                  ...      1
Contraction scheme used                     ... PARTIAL GENERAL contraction
Coulomb Range Separation                    ... NOT USED
Exchange Range Separation                   ... NOT USED
Finite Nucleus Model                        ... NOT USED
Auxiliary Coulomb fitting basis             ... NOT available
Auxiliary J/K fitting basis                 ... NOT available
Auxiliary Correlation fitting basis         ... AVAILABLE
   # of basis functions in Aux-C            ...    728
   # of shells in Aux-C                     ...    246
   Maximum angular momentum in Aux-C        ...      3
Auxiliary 'external' fitting basis          ... NOT available
Integral threshold                          ...     2.500000e-11
Primitive cut-off                           ...     2.500000e-12
Primitive pair pre-selection threshold      ...     2.500000e-12

Calculating pre-screening integrals         ... done (  0.0 sec) Dimension = 159
Calculating pre-screening integrals (ORCA)  ... done (  0.1 sec) Dimension = 116
Organizing shell pair data                  ... done (  0.1 sec)
Shell pair information
Total number of shell pairs                 ...     12720
Shell pairs after pre-screening             ...     11146
Total number of primitive shell pairs       ...     18772
Primitive shell pairs kept                  ...     15173
          la=0 lb=0:   4011 shell pairs
          la=1 lb=0:   4255 shell pairs
          la=1 lb=1:   1106 shell pairs
          la=2 lb=0:   1140 shell pairs
          la=2 lb=1:    556 shell pairs
          la=2 lb=2:     78 shell pairs

Calculating one electron integrals          ... done (  0.0 sec)
Calculating RI/C V-Matrix + Cholesky decomp.... done (  0.0 sec)
Calculating Nuclear repulsion               ... done (  0.0 sec) ENN=    300.721931005541 Eh

SHARK setup successfully completed in   0.4 seconds

Maximum memory used throughout the entire GTOINT-calculation: 33.3 MB


           ************************************************************
           *        Program running with 16 parallel MPI-processes    *
           *              working on a common directory               *
           ************************************************************
-------------------------------------------------------------------------------
                                 ORCA SCF
-------------------------------------------------------------------------------

------------
SCF SETTINGS
------------
Hamiltonian:
 Ab initio Hamiltonian  Method          .... Hartree-Fock(GTOs)


General Settings:
 Integral files         IntName         .... DZ_3-methyl-1-butanethiol
 Hartree-Fock type      HFTyp           .... RHF
 Total Charge           Charge          ....    0
 Multiplicity           Mult            ....    1
 Number of Electrons    NEL             ....   58
 Basis Dimension        Dim             ....  250
 Nuclear Repulsion      ENuc            ....    300.7219310055 Eh

Convergence Acceleration:
 DIIS                   CNVDIIS         .... on
   Start iteration      DIISMaxIt       ....    12
   Startup error        DIISStart       ....  0.200000
   # of expansion vecs  DIISMaxEq       ....     5
   Bias factor          DIISBfac        ....   1.050
   Max. coefficient     DIISMaxC        ....  10.000
 Trust-Rad. Augm. Hess. CNVTRAH         .... auto
   Auto Start mean grad. ratio tolernc. ....  1.125000
   Auto Start start iteration           ....    20
   Auto Start num. interpolation iter.  ....    10
   Max. Number of Micro iterations      ....    16
   Max. Number of Macro iterations      .... Maxiter - #DIIS iter
   Number of Davidson start vectors     ....     2
   Converg. threshold I  (grad. norm)   ....   1.000e-05
   Converg. threshold II (energy diff.) ....   1.000e-08
   Grad. Scal. Fac. for Micro threshold ....   0.100
   Minimum threshold for Micro iter.    ....   0.010
   NR start threshold (gradient norm)   ....   0.001
   Initial trust radius                 ....   0.400
   Minimum AH scaling param. (alpha)    ....   1.000
   Maximum AH scaling param. (alpha)    .... 1000.000
   Orbital update algorithm             .... Taylor
   White noise on init. David. guess    .... on
   Maximum white noise                  ....   0.010
   Quad. conv. algorithm                .... NR
 SOSCF                  CNVSOSCF        .... on
   Start iteration      SOSCFMaxIt      ....   150
   Startup grad/error   SOSCFStart      ....  0.003300
 Level Shifting         CNVShift        .... on
   Level shift para.    LevelShift      ....    0.2500
   Turn off err/grad.   ShiftErr        ....    0.0010
 Zerner damping         CNVZerner       .... off
 Static damping         CNVDamp         .... on
   Fraction old density DampFac         ....    0.7000
   Max. Damping (<1)    DampMax         ....    0.9800
   Min. Damping (>=0)   DampMin         ....    0.0000
   Turn off err/grad.   DampErr         ....    0.1000
 Fernandez-Rico         CNVRico         .... off

SCF Procedure:
 Maximum # iterations   MaxIter         ....   125
 SCF integral mode      SCFMode         .... Direct
   Integral package                     .... SHARK and LIBINT hybrid scheme
 Reset frequency        DirectResetFreq ....    20
 Integral Threshold     Thresh          ....  2.500e-11 Eh
 Primitive CutOff       TCut            ....  2.500e-12 Eh

Convergence Tolerance:
 Convergence Check Mode ConvCheckMode   .... Total+1el-Energy
 Convergence forced     ConvForced      .... 1
 Energy Change          TolE            ....  1.000e-08 Eh
 1-El. energy change                    ....  1.000e-05 Eh
 Orbital Gradient       TolG            ....  1.000e-05
 Orbital Rotation angle TolX            ....  1.000e-05
 DIIS Error             TolErr          ....  5.000e-07


Diagonalization of the overlap matrix:
Smallest eigenvalue                        ... 1.336e-05
Time for diagonalization                   ...    0.009 sec
Threshold for overlap eigenvalues          ... 1.000e-08
Number of eigenvalues below threshold      ... 0
Time for construction of square roots      ...    0.025 sec
Total time needed                          ...    0.035 sec

Time for model grid setup =    0.082 sec

------------------------------
INITIAL GUESS: MODEL POTENTIAL
------------------------------
Loading Hartree-Fock densities                     ... done
Calculating cut-offs                               ... done
Initializing the effective Hamiltonian             ... done
Setting up the integral package (SHARK)            ... done
Starting the Coulomb interaction                   ... done (   0.1 sec)
Reading the grid                                   ... done
Mapping shells                                     ... done
Starting the XC term evaluation                    ... done (   0.0 sec)
Transforming the Hamiltonian                       ... done (   0.0 sec)
Diagonalizing the Hamiltonian                      ... done (   0.0 sec)
Back transforming the eigenvectors                 ... done (   0.0 sec)
Now organizing SCF variables                       ... done
                      ------------------
                      INITIAL GUESS DONE (   0.2 sec)
                      ------------------
--------------
SCF ITERATIONS
--------------
ITER       Energy         Delta-E        Max-DP      RMS-DP      [F,P]     Damp
               ***  Starting incremental Fock matrix formation  ***
  0   -593.5750813397   0.000000000000 0.46673930  0.00496487  0.2025979 0.7000
  1   -593.6841479858  -0.109066646171 0.38479853  0.00380427  0.1322226 0.7000
                               ***Turning on DIIS***
  2   -593.7496723466  -0.065524360729 1.01698785  0.00932119  0.0785704 0.0000
  3   -593.1738200554   0.575852291167 0.12657849  0.00128182  0.0310424 0.0000
  4   -593.8146931753  -0.640873119844 0.05306879  0.00056353  0.0062651 0.0000
                      *** Initiating the SOSCF procedure ***
                           *** Shutting down DIIS ***
                      *** Re-Reading the Fockian *** 
                      *** Removing any level shift *** 
ITER      Energy       Delta-E        Grad      Rot      Max-DP    RMS-DP
  5   -593.86216552  -0.0474723474  0.001036  0.001036  0.009603  0.000151
               *** Restarting incremental Fock matrix formation ***
  6   -593.88385350  -0.0216879765  0.000295  0.000441  0.002529  0.000059
  7   -593.88386682  -0.0000133231  0.000118  0.000297  0.001497  0.000033
  8   -593.88386897  -0.0000021492  0.000032  0.000021  0.000238  0.000005
  9   -593.88386905  -0.0000000833  0.000008  0.000013  0.000097  0.000001
 10   -593.88386906  -0.0000000073  0.000004  0.000009  0.000038  0.000001
                 **** Energy Check signals convergence ****
              ***Rediagonalizing the Fockian in SOSCF/NRSCF***

               *****************************************************
               *                     SUCCESS                       *
               *           SCF CONVERGED AFTER  11 CYCLES          *
               *****************************************************


----------------
TOTAL SCF ENERGY
----------------

Total Energy       :         -593.88386906 Eh          -16160.40166 eV

Components:
Nuclear Repulsion  :          300.72193101 Eh            8183.05976 eV
Electronic Energy  :         -894.60580007 Eh          -24343.46142 eV
One Electron Energy:        -1410.50279483 Eh          -38381.73234 eV
Two Electron Energy:          515.89699476 Eh           14038.27092 eV

Virial components:
Potential Energy   :        -1187.51404835 Eh          -32313.90006 eV
Kinetic Energy     :          593.63017929 Eh           16153.49841 eV
Virial Ratio       :            2.00042735


---------------
SCF CONVERGENCE
---------------

  Last Energy change         ...   -1.9306e-09  Tolerance :   1.0000e-08
  Last MAX-Density change    ...    7.2922e-06  Tolerance :   1.0000e-07
  Last RMS-Density change    ...    1.7852e-07  Tolerance :   5.0000e-09
  Last Orbital Gradient      ...    8.0999e-07  Tolerance :   1.0000e-05
  Last Orbital Rotation      ...    1.2090e-06  Tolerance :   1.0000e-05

             **** THE GBW FILE WAS UPDATED (DZ_3-methyl-1-butanethiol.gbw) ****
             **** DENSITY DZ_3-methyl-1-butanethiol.scfp WAS UPDATED ****
             **** ENERGY FILE WAS UPDATED (DZ_3-methyl-1-butanethiol.en.tmp) ****
             **** THE GBW FILE WAS UPDATED (DZ_3-methyl-1-butanethiol.gbw) ****
             **** DENSITY DZ_3-methyl-1-butanethiol.scfp WAS UPDATED ****
----------------
ORBITAL ENERGIES
----------------

  NO   OCC          E(Eh)            E(eV) 
   0   2.0000     -91.950280     -2502.0943 
   1   2.0000     -11.264404      -306.5200 
   2   2.0000     -11.238264      -305.8087 
   3   2.0000     -11.233711      -305.6848 
   4   2.0000     -11.222098      -305.3688 
   5   2.0000     -11.222073      -305.3681 
   6   2.0000      -8.951746      -243.5894 
   7   2.0000      -6.633864      -180.5166 
   8   2.0000      -6.632479      -180.4789 
   9   2.0000      -6.630383      -180.4219 
  10   2.0000      -1.106748       -30.1162 
  11   2.0000      -1.038090       -28.2479 
  12   2.0000      -0.935871       -25.4663 
  13   2.0000      -0.933917       -25.4132 
  14   2.0000      -0.840461       -22.8701 
  15   2.0000      -0.757673       -20.6173 
  16   2.0000      -0.639904       -17.4127 
  17   2.0000      -0.636022       -17.3070 
  18   2.0000      -0.606938       -16.5156 
  19   2.0000      -0.568840       -15.4789 
  20   2.0000      -0.560384       -15.2488 
  21   2.0000      -0.534077       -14.5330 
  22   2.0000      -0.526518       -14.3273 
  23   2.0000      -0.505539       -13.7564 
  24   2.0000      -0.471869       -12.8402 
  25   2.0000      -0.466437       -12.6924 
  26   2.0000      -0.454384       -12.3644 
  27   2.0000      -0.439174       -11.9505 
  28   2.0000      -0.352260        -9.5855 
  29   0.0000       0.034541         0.9399 
  30   0.0000       0.040690         1.1072 
  31   0.0000       0.046493         1.2651 
  32   0.0000       0.047754         1.2995 
  33   0.0000       0.062352         1.6967 
  34   0.0000       0.067653         1.8409 
  35   0.0000       0.069407         1.8887 
  36   0.0000       0.069451         1.8899 
  37   0.0000       0.071527         1.9464 
  38   0.0000       0.091589         2.4923 
  39   0.0000       0.097100         2.6422 
  40   0.0000       0.097541         2.6542 
  41   0.0000       0.107515         2.9256 
  42   0.0000       0.128845         3.5060 
  43   0.0000       0.137702         3.7470 
  44   0.0000       0.149197         4.0598 
  45   0.0000       0.150462         4.0943 
  46   0.0000       0.153303         4.1716 
  47   0.0000       0.161722         4.4007 
  48   0.0000       0.161795         4.4027 
  49   0.0000       0.167498         4.5579 
  50   0.0000       0.169799         4.6205 
  51   0.0000       0.177882         4.8404 
  52   0.0000       0.185012         5.0344 
  53   0.0000       0.189012         5.1433 
  54   0.0000       0.191779         5.2186 
  55   0.0000       0.194129         5.2825 
  56   0.0000       0.197777         5.3818 
  57   0.0000       0.209761         5.7079 
  58   0.0000       0.214109         5.8262 
  59   0.0000       0.226876         6.1736 
  60   0.0000       0.232432         6.3248 
  61   0.0000       0.243562         6.6277 
  62   0.0000       0.245163         6.6712 
  63   0.0000       0.253150         6.8886 
  64   0.0000       0.266221         7.2442 
  65   0.0000       0.283248         7.7076 
  66   0.0000       0.301486         8.2039 
  67   0.0000       0.308102         8.3839 
  68   0.0000       0.316658         8.6167 
  69   0.0000       0.328286         8.9331 
  70   0.0000       0.334434         9.1004 
  71   0.0000       0.336984         9.1698 
  72   0.0000       0.346855         9.4384 
  73   0.0000       0.363244         9.8844 
  74   0.0000       0.379083        10.3154 
  75   0.0000       0.389356        10.5949 
  76   0.0000       0.390862        10.6359 
  77   0.0000       0.399370        10.8674 
  78   0.0000       0.406763        11.0686 
  79   0.0000       0.410172        11.1614 
  80   0.0000       0.418084        11.3766 
  81   0.0000       0.437145        11.8953 
  82   0.0000       0.442778        12.0486 
  83   0.0000       0.453401        12.3377 
  84   0.0000       0.461233        12.5508 
  85   0.0000       0.463435        12.6107 
  86   0.0000       0.470258        12.7964 
  87   0.0000       0.477568        12.9953 
  88   0.0000       0.480855        13.0847 
  89   0.0000       0.489002        13.3064 
  90   0.0000       0.500892        13.6300 
  91   0.0000       0.501992        13.6599 
  92   0.0000       0.510461        13.8903 
  93   0.0000       0.511521        13.9192 
  94   0.0000       0.516595        14.0573 
  95   0.0000       0.530661        14.4400 
  96   0.0000       0.547765        14.9055 
  97   0.0000       0.552305        15.0290 
  98   0.0000       0.554502        15.0888 
  99   0.0000       0.556828        15.1521 
 100   0.0000       0.579632        15.7726 
 101   0.0000       0.584290        15.8993 
 102   0.0000       0.597199        16.2506 
 103   0.0000       0.597215        16.2510 
 104   0.0000       0.610856        16.6222 
 105   0.0000       0.613510        16.6944 
 106   0.0000       0.619951        16.8697 
 107   0.0000       0.628473        17.1016 
 108   0.0000       0.629594        17.1321 
 109   0.0000       0.633774        17.2459 
 110   0.0000       0.646141        17.5824 
 111   0.0000       0.649795        17.6818 
 112   0.0000       0.656604        17.8671 
 113   0.0000       0.672907        18.3107 
 114   0.0000       0.690261        18.7830 
 115   0.0000       0.690926        18.8011 
 116   0.0000       0.708268        19.2730 
 117   0.0000       0.719460        19.5775 
 118   0.0000       0.727748        19.8030 
 119   0.0000       0.734020        19.9737 
 120   0.0000       0.740198        20.1418 
 121   0.0000       0.762383        20.7455 
 122   0.0000       0.767378        20.8814 
 123   0.0000       0.767784        20.8925 
 124   0.0000       0.781091        21.2546 
 125   0.0000       0.793882        21.6026 
 126   0.0000       0.794528        21.6202 
 127   0.0000       0.807564        21.9749 
 128   0.0000       0.811951        22.0943 
 129   0.0000       0.827713        22.5232 
 130   0.0000       0.828963        22.5572 
 131   0.0000       0.847344        23.0574 
 132   0.0000       0.855820        23.2881 
 133   0.0000       0.865778        23.5590 
 134   0.0000       0.872138        23.7321 
 135   0.0000       0.884427        24.0665 
 136   0.0000       0.893546        24.3146 
 137   0.0000       0.916462        24.9382 
 138   0.0000       0.923650        25.1338 
 139   0.0000       0.934697        25.4344 
 140   0.0000       0.947893        25.7935 
 141   0.0000       0.960537        26.1375 
 142   0.0000       0.962136        26.1811 
 143   0.0000       0.978146        26.6167 
 144   0.0000       0.993700        27.0400 
 145   0.0000       1.005452        27.3597 
 146   0.0000       1.007822        27.4242 
 147   0.0000       1.032549        28.0971 
 148   0.0000       1.047049        28.4917 
 149   0.0000       1.067224        29.0407 
 150   0.0000       1.080922        29.4134 
 151   0.0000       1.104773        30.0624 
 152   0.0000       1.151068        31.3221 
 153   0.0000       1.161121        31.5957 
 154   0.0000       1.169887        31.8343 
 155   0.0000       1.185097        32.2481 
 156   0.0000       1.201279        32.6885 
 157   0.0000       1.237688        33.6792 
 158   0.0000       1.260943        34.3120 
 159   0.0000       1.265256        34.4294 
 160   0.0000       1.286822        35.0162 
 161   0.0000       1.290758        35.1233 
 162   0.0000       1.331223        36.2244 
 163   0.0000       1.338838        36.4316 
 164   0.0000       1.361484        37.0479 
 165   0.0000       1.389744        37.8169 
 166   0.0000       1.399222        38.0748 
 167   0.0000       1.404513        38.2187 
 168   0.0000       1.406661        38.2772 
 169   0.0000       1.425759        38.7969 
 170   0.0000       1.438607        39.1465 
 171   0.0000       1.447146        39.3788 
 172   0.0000       1.526136        41.5283 
 173   0.0000       1.558870        42.4190 
 174   0.0000       1.560734        42.4697 
 175   0.0000       1.616409        43.9847 
 176   0.0000       1.619072        44.0572 
 177   0.0000       1.672094        45.5000 
 178   0.0000       1.675740        45.5992 
 179   0.0000       1.702985        46.3406 
 180   0.0000       1.757871        47.8341 
 181   0.0000       1.767016        48.0829 
 182   0.0000       1.767159        48.0868 
 183   0.0000       1.816883        49.4399 
 184   0.0000       1.842291        50.1313 
 185   0.0000       1.854611        50.4665 
 186   0.0000       1.866265        50.7836 
 187   0.0000       1.905133        51.8413 
 188   0.0000       1.910267        51.9810 
 189   0.0000       1.920825        52.2683 
 190   0.0000       1.946108        52.9563 
 191   0.0000       1.962046        53.3900 
 192   0.0000       1.993328        54.2412 
 193   0.0000       2.009887        54.6918 
 194   0.0000       2.010745        54.7152 
 195   0.0000       2.022372        55.0315 
 196   0.0000       2.034641        55.3654 
 197   0.0000       2.069428        56.3120 
 198   0.0000       2.089543        56.8594 
 199   0.0000       2.123059        57.7714 
 200   0.0000       2.142507        58.3006 
 201   0.0000       2.156920        58.6928 
 202   0.0000       2.163180        58.8631 
 203   0.0000       2.163874        58.8820 
 204   0.0000       2.168314        59.0028 
 205   0.0000       2.194695        59.7207 
 206   0.0000       2.218439        60.3668 
 207   0.0000       2.246020        61.1173 
 208   0.0000       2.255289        61.3695 
 209   0.0000       2.291409        62.3524 
 210   0.0000       2.308363        62.8138 
 211   0.0000       2.325691        63.2853 
 212   0.0000       2.341088        63.7042 
 213   0.0000       2.356258        64.1170 
 214   0.0000       2.374927        64.6251 
 215   0.0000       2.384642        64.8894 
 216   0.0000       2.424507        65.9742 
 217   0.0000       2.429779        66.1177 
 218   0.0000       2.460184        66.9450 
 219   0.0000       2.490079        67.7585 
 220   0.0000       2.493969        67.8643 
 221   0.0000       2.516848        68.4869 
 222   0.0000       2.531513        68.8860 
 223   0.0000       2.542573        69.1869 
 224   0.0000       2.572570        70.0032 
 225   0.0000       2.585378        70.3517 
 226   0.0000       2.596520        70.6549 
 227   0.0000       2.649585        72.0989 
 228   0.0000       2.663560        72.4791 
 229   0.0000       2.699927        73.4687 
 230   0.0000       2.717893        73.9576 
 231   0.0000       2.793935        76.0268 
 232   0.0000       2.801542        76.2338 
 233   0.0000       2.831163        77.0399 
 234   0.0000       2.867238        78.0215 
 235   0.0000       2.872468        78.1638 
 236   0.0000       2.924237        79.5725 
 237   0.0000       2.931495        79.7700 
 238   0.0000       2.962720        80.6197 
 239   0.0000       2.989532        81.3493 
 240   0.0000       3.011814        81.9556 
 241   0.0000       3.074860        83.6712 
 242   0.0000       3.076220        83.7082 
 243   0.0000       3.150583        85.7317 
 244   0.0000       3.196795        86.9892 
 245   0.0000       3.238022        88.1111 
 246   0.0000       3.249051        88.4112 
 247   0.0000       3.424498        93.1853 
 248   0.0000       3.459431        94.1359 
 249   0.0000       3.570533        97.1591 

                    ********************************
                    * MULLIKEN POPULATION ANALYSIS *
                    ********************************

-----------------------
MULLIKEN ATOMIC CHARGES
-----------------------
   0 C :   -1.291085
   1 H :   -0.061063
   2 S :    0.276455
   3 H :    0.081635
   4 C :    0.119770
   5 C :    0.410092
   6 C :    0.821872
   7 C :    0.821872
   8 H :   -0.173991
   9 H :   -0.173991
  10 H :   -0.158770
  11 H :   -0.158770
  12 H :   -0.105426
  13 H :   -0.105426
  14 H :   -0.073006
  15 H :   -0.073006
  16 H :   -0.078581
  17 H :   -0.078581
Sum of atomic charges:    0.0000000

--------------------------------
MULLIKEN REDUCED ORBITAL CHARGES
--------------------------------
  0 C s       :     3.256729  s :     3.256729
      pz      :     1.213184  p :     3.429261
      px      :     0.998198
      py      :     1.217879
      dz2     :     0.151277  d :     0.605096
      dxz     :     0.131678
      dyz     :     0.188041
      dx2y2   :     0.042569
      dxy     :     0.091531
  1 H s       :     1.153168  s :     1.153168
      pz      :    -0.025699  p :    -0.092104
      px      :    -0.036429
      py      :    -0.029976
  2 S s       :     5.739500  s :     5.739500
      pz      :     3.919317  p :     9.958210
      px      :     2.838270
      py      :     3.200623
      dz2     :     0.011160  d :     0.025835
      dxz     :    -0.002627
      dyz     :    -0.003348
      dx2y2   :    -0.003621
      dxy     :     0.024271
  3 H s       :     0.875125  s :     0.875125
      pz      :     0.030910  p :     0.043241
      px      :    -0.012503
      py      :     0.024834
  4 C s       :     2.698978  s :     2.698978
      pz      :     0.953193  p :     3.103084
      px      :     1.143638
      py      :     1.006253
      dz2     :    -0.002772  d :     0.078168
      dxz     :     0.031213
      dyz     :    -0.002104
      dx2y2   :     0.030004
      dxy     :     0.021827
  5 C s       :     2.659888  s :     2.659888
      pz      :     0.732995  p :     2.881441
      px      :     1.151249
      py      :     0.997197
      dz2     :    -0.007540  d :     0.048578
      dxz     :     0.005654
      dyz     :    -0.018855
      dx2y2   :    -0.006870
      dxy     :     0.076189
  6 C s       :     2.697750  s :     2.697750
      pz      :     0.924450  p :     2.511767
      px      :     0.727908
      py      :     0.859409
      dz2     :    -0.013104  d :    -0.031389
      dxz     :    -0.000292
      dyz     :     0.007729
      dx2y2   :    -0.008118
      dxy     :    -0.017604
  7 C s       :     2.697750  s :     2.697750
      pz      :     0.924450  p :     2.511767
      px      :     0.727908
      py      :     0.859409
      dz2     :    -0.013104  d :    -0.031389
      dxz     :    -0.000292
      dyz     :     0.007729
      dx2y2   :    -0.008118
      dxy     :    -0.017604
  8 H s       :     1.179672  s :     1.179672
      pz      :     0.014771  p :    -0.005680
      px      :    -0.020059
      py      :    -0.000393
  9 H s       :     1.179672  s :     1.179672
      pz      :     0.014771  p :    -0.005680
      px      :    -0.020059
      py      :    -0.000393
 10 H s       :     1.205429  s :     1.205429
      pz      :    -0.021209  p :    -0.046659
      px      :    -0.018824
      py      :    -0.006626
 11 H s       :     1.205429  s :     1.205429
      pz      :    -0.021209  p :    -0.046659
      px      :    -0.018824
      py      :    -0.006626
 12 H s       :     1.144428  s :     1.144428
      pz      :    -0.007107  p :    -0.039002
      px      :    -0.013508
      py      :    -0.018387
 13 H s       :     1.144428  s :     1.144428
      pz      :    -0.007107  p :    -0.039002
      px      :    -0.013508
      py      :    -0.018387
 14 H s       :     1.101503  s :     1.101503
      pz      :    -0.007128  p :    -0.028496
      px      :    -0.018596
      py      :    -0.002772
 15 H s       :     1.101503  s :     1.101503
      pz      :    -0.007128  p :    -0.028496
      px      :    -0.018596
      py      :    -0.002772
 16 H s       :     1.114603  s :     1.114603
      pz      :    -0.011701  p :    -0.036022
      px      :    -0.019632
      py      :    -0.004688
 17 H s       :     1.114603  s :     1.114603
      pz      :    -0.011701  p :    -0.036022
      px      :    -0.019632
      py      :    -0.004688


                     *******************************
                     * LOEWDIN POPULATION ANALYSIS *
                     *******************************

----------------------
LOEWDIN ATOMIC CHARGES
----------------------
   0 C :   -0.282672
   1 H :    0.036895
   2 S :    0.711567
   3 H :   -0.235478
   4 C :   -0.310867
   5 C :   -0.086729
   6 C :    0.155897
   7 C :    0.155897
   8 H :   -0.038189
   9 H :   -0.038189
  10 H :    0.010145
  11 H :    0.010145
  12 H :   -0.014110
  13 H :   -0.014110
  14 H :   -0.019129
  15 H :   -0.019129
  16 H :   -0.010972
  17 H :   -0.010972

-------------------------------
LOEWDIN REDUCED ORBITAL CHARGES
-------------------------------
  0 C s       :     2.557390  s :     2.557390
      pz      :     0.899094  p :     2.687760
      px      :     0.891697
      py      :     0.896970
      dz2     :     0.257381  d :     1.037522
      dxz     :     0.155992
      dyz     :     0.253841
      dx2y2   :     0.142797
      dxy     :     0.227511
  1 H s       :     0.717332  s :     0.717332
      pz      :     0.056535  p :     0.245773
      px      :     0.112139
      py      :     0.077099
  2 S s       :     5.177805  s :     5.177805
      pz      :     3.636912  p :     9.818600
      px      :     2.931689
      py      :     3.250000
      dz2     :     0.041425  d :     0.292028
      dxz     :     0.018681
      dyz     :     0.042102
      dx2y2   :     0.073756
      dxy     :     0.116064
  3 H s       :     0.836489  s :     0.836489
      pz      :     0.134393  p :     0.398989
      px      :     0.137531
      py      :     0.127065
  4 C s       :     2.627650  s :     2.627650
      pz      :     0.974448  p :     2.826162
      px      :     0.928142
      py      :     0.923572
      dz2     :     0.100005  d :     0.857055
      dxz     :     0.147538
      dyz     :     0.212051
      dx2y2   :     0.175443
      dxy     :     0.222017
  5 C s       :     2.570271  s :     2.570271
      pz      :     0.912819  p :     2.735112
      px      :     0.912766
      py      :     0.909528
      dz2     :     0.097671  d :     0.781346
      dxz     :     0.119390
      dyz     :     0.182578
      dx2y2   :     0.194696
      dxy     :     0.187010
  6 C s       :     2.587346  s :     2.587346
      pz      :     0.918062  p :     2.756692
      px      :     0.921437
      py      :     0.917193
      dz2     :     0.147852  d :     0.500064
      dxz     :     0.051269
      dyz     :     0.127765
      dx2y2   :     0.032388
      dxy     :     0.140789
  7 C s       :     2.587346  s :     2.587346
      pz      :     0.918062  p :     2.756692
      px      :     0.921437
      py      :     0.917193
      dz2     :     0.147852  d :     0.500064
      dxz     :     0.051269
      dyz     :     0.127765
      dx2y2   :     0.032388
      dxy     :     0.140789
  8 H s       :     0.746439  s :     0.746439
      pz      :     0.122325  p :     0.291749
      px      :     0.070079
      py      :     0.099346
  9 H s       :     0.746439  s :     0.746439
      pz      :     0.122325  p :     0.291749
      px      :     0.070079
      py      :     0.099346
 10 H s       :     0.726688  s :     0.726688
      pz      :     0.115488  p :     0.263166
      px      :     0.061279
      py      :     0.086399
 11 H s       :     0.726688  s :     0.726688
      pz      :     0.115488  p :     0.263166
      px      :     0.061279
      py      :     0.086399
 12 H s       :     0.736949  s :     0.736949
      pz      :     0.066545  p :     0.277161
      px      :     0.118323
      py      :     0.092292
 13 H s       :     0.736949  s :     0.736949
      pz      :     0.066545  p :     0.277161
      px      :     0.118323
      py      :     0.092292
 14 H s       :     0.733615  s :     0.733615
      pz      :     0.066602  p :     0.285514
      px      :     0.123111
      py      :     0.095801
 15 H s       :     0.733615  s :     0.733615
      pz      :     0.066602  p :     0.285514
      px      :     0.123111
      py      :     0.095801
 16 H s       :     0.735784  s :     0.735784
      pz      :     0.109073  p :     0.275189
      px      :     0.071767
      py      :     0.094349
 17 H s       :     0.735784  s :     0.735784
      pz      :     0.109073  p :     0.275189
      px      :     0.071767
      py      :     0.094349


                      *****************************
                      * MAYER POPULATION ANALYSIS *
                      *****************************

  NA   - Mulliken gross atomic population
  ZA   - Total nuclear charge
  QA   - Mulliken gross atomic charge
  VA   - Mayer's total valence
  BVA  - Mayer's bonded valence
  FA   - Mayer's free valence

  ATOM       NA         ZA         QA         VA         BVA        FA
  0 C      7.2911     6.0000    -1.2911     5.6558     5.6558     0.0000
  1 H      1.0611     1.0000    -0.0611     0.5914     0.5914     0.0000
  2 S     15.7235    16.0000     0.2765     1.8860     1.8860     0.0000
  3 H      0.9184     1.0000     0.0816     0.9167     0.9167     0.0000
  4 C      5.8802     6.0000     0.1198     4.1756     4.1756     0.0000
  5 C      5.5899     6.0000     0.4101     3.9808     3.9808     0.0000
  6 C      5.1781     6.0000     0.8219     3.5750     3.5750     0.0000
  7 C      5.1781     6.0000     0.8219     3.5750     3.5750     0.0000
  8 H      1.1740     1.0000    -0.1740     0.8546     0.8546     0.0000
  9 H      1.1740     1.0000    -0.1740     0.8546     0.8546    -0.0000
 10 H      1.1588     1.0000    -0.1588     0.6671     0.6671     0.0000
 11 H      1.1588     1.0000    -0.1588     0.6671     0.6671     0.0000
 12 H      1.1054     1.0000    -0.1054     0.7149     0.7149    -0.0000
 13 H      1.1054     1.0000    -0.1054     0.7149     0.7149    -0.0000
 14 H      1.0730     1.0000    -0.0730     0.7834     0.7834     0.0000
 15 H      1.0730     1.0000    -0.0730     0.7834     0.7834    -0.0000
 16 H      1.0786     1.0000    -0.0786     0.7067     0.7067     0.0000
 17 H      1.0786     1.0000    -0.0786     0.7067     0.7067     0.0000

  Mayer bond orders larger than 0.100000
B(  0-C ,  1-H ) :   0.7137 B(  0-C ,  4-C ) :  -0.1346 B(  0-C ,  5-C ) :   1.2940 
B(  0-C ,  6-C ) :   1.3647 B(  0-C ,  7-C ) :   1.3647 B(  0-C , 10-H ) :   0.1640 
B(  0-C , 11-H ) :   0.1640 B(  0-C , 12-H ) :   0.1536 B(  0-C , 13-H ) :   0.1536 
B(  0-C , 14-H ) :   0.1298 B(  0-C , 15-H ) :   0.1298 B(  2-S ,  3-H ) :   0.9586 
B(  2-S ,  4-C ) :   1.2480 B(  2-S ,  5-C ) :  -0.1277 B(  2-S ,  8-H ) :  -0.1090 
B(  2-S ,  9-H ) :  -0.1090 B(  4-C ,  5-C ) :   1.2388 B(  4-C ,  8-H ) :   0.8935 
B(  4-C ,  9-H ) :   0.8935 B(  5-C ,  8-H ) :   0.1069 B(  5-C ,  9-H ) :   0.1069 
B(  5-C , 10-H ) :   0.7510 B(  5-C , 11-H ) :   0.7510 B(  6-C ,  7-C ) :  -0.1827 
B(  6-C , 13-H ) :   0.7928 B(  6-C , 14-H ) :   0.8890 B(  6-C , 16-H ) :   0.8134 
B(  7-C , 12-H ) :   0.7928 B(  7-C , 15-H ) :   0.8890 B(  7-C , 17-H ) :   0.8134 
B( 10-H , 11-H ) :  -0.1378 B( 12-H , 17-H ) :  -0.1030 B( 13-H , 16-H ) :  -0.1030 


-------
TIMINGS
-------

Total SCF time: 0 days 0 hours 0 min 29 sec 

Total time                  ....      29.449 sec
Sum of individual times     ....      28.958 sec  ( 98.3%)

Fock matrix formation       ....      28.356 sec  ( 96.3%)
Diagonalization             ....       0.114 sec  (  0.4%)
Density matrix formation    ....       0.015 sec  (  0.1%)
Population analysis         ....       0.123 sec  (  0.4%)
Initial guess               ....       0.100 sec  (  0.3%)
Orbital Transformation      ....       0.000 sec  (  0.0%)
Orbital Orthonormalization  ....       0.000 sec  (  0.0%)
DIIS solution               ....       0.089 sec  (  0.3%)
SOSCF solution              ....       0.079 sec  (  0.3%)

Maximum memory used throughout the entire SCF-calculation: 235.4 MB


           ************************************************************
           *        Program running with 16 parallel MPI-processes    *
           *              working on a common directory               *
           ************************************************************

------------------------------------------------------------------------------
                                ORCA  MP2 
------------------------------------------------------------------------------

Freezing NCore=20 chemical core electrons

-------------
RI-MP2 ENERGY
-------------
Dimension of the basis                    ...  250
Memory devoted to MP2                     ...  256 MB   
Data format for buffers                   ... DOUBLE
Compression type for matrix containers    ... UNCOMPRESSED
Overall scaling of the MP2 energy         ...   1.000e+00
Calculating two index integrals           ... done (    0.003 sec)
Cholesky decomposition of V**-1           ... done (    0.051 sec)

-----------------
RI-TRANSFORMATION (AUX index driven)
-----------------

Dimension of the orbital-basis         ... 250
Dimension of the aux-basis             ... 728
Transformation of internal/external MOs...   10-  28 to   29- 249
Number Format for Storage              ... Double (8 Byte)
Integral mode                          ... Direct

First Phase: integral generation and transformation of MO indices
  Aux angular momentum 0               ... done (    0.021 sec)
  Aux angular momentum 1               ... done (    0.028 sec)
  Aux angular momentum 2               ... done (    0.037 sec)
  Aux angular momentum 3               ... done (    0.022 sec)
Closing buffer VIA ( 0.02 GB; CompressionRatio= 1.00)
  Phase 1 completed in     0.227 sec
Second Phase: sorting and transformation of aux index

IA-Transformation
Memory available                       ... 208 MB 
Max. # MO pairs treated in a batch     ... 2    
# of internal orbitals                 ... 19
# batches for internal orbitals        ... 1
Closing buffer IAV ( 0.02 GB; CompressionRatio= 1.00)
(ia|v) transformation done in     0.032 sec

  Phase 2 completed in     0.064 sec
RI-Integral transformation completed in     0.316 sec
Opening buffers                              ... done

Starting loop over batches of integrals:

Operator 0  - window                       ... ( 10- 28)x( 29-249)
Operator 0  - Memory available             ...   256 MB
Operator 0  - Memory needed per MO         ...   1.2 MB
Operator 0  - Number of orbitals per batch ... 2
Operator 0  - Number of batches            ... 1

OPERATOR  0   PASS   0:  MOs    10 ...   11 +   12 ...   13 +   14 ...   15 +   16 ...   17
                            +   18 ...   19 +   20 ...   21 +   22 ...   23 +   24 ...   25
                            +   26 ...   27 +   28 ...   28
  Reading integrals       ... ok
Time spent in pair loops =     0.011 sec
Deleting buffer (Ka|jb)[aa] ...done

-----------------------------------------------
 RI-MP2 CORRELATION ENERGY:     -0.902222218 Eh
-----------------------------------------------


-------
TIMINGS
-------

Total time                :    0.504 sec
Integral trafo            :    0.324 sec ( 64.4%)
I/O of integrals          :    0.001 sec (  0.2%)
K(i,j) Operators          :    0.006 sec (  1.2%)
T(i,j) pair energies      :    0.001 sec (  0.1%)
V-calculation             :    0.003 sec (  0.6%)
V**(-1/2)                 :    0.051 sec ( 10.1%)
Gamma(ia|P)               :    0.000 sec (  0.0%)
Gamma-Trafo               :    0.000 sec (  0.0%)
D(virtual)                :    0.000 sec (  0.0%)
D(internal)               :    0.000 sec (  0.0%)
W(virtual)                :    0.000 sec (  0.0%)
W(internal)               :    0.000 sec (  0.0%)
L(virtual)                :    0.000 sec (  0.0%)
L(internal)               :    0.000 sec (  0.0%)
G(D)                      :    0.000 sec (  0.0%)
G(Z)                      :    0.000 sec (  0.0%)
Z-Vector Solution         :    0.000 sec (  0.0%)
3-Index Derivative        :    0.000 sec (  0.0%)
2-Index Derivative        :    0.000 sec (  0.0%)
Separable Gradient        :    0.000 sec (  0.0%)


---------------------------------------
MP2 TOTAL ENERGY:     -594.786091282 Eh
---------------------------------------

Maximum memory used throughout the entire MP2-calculation: 95.0 MB

-------------------------   --------------------
FINAL SINGLE POINT ENERGY      -594.786091282259
-------------------------   --------------------


                            ***************************************
                            *     ORCA property calculations      *
                            ***************************************


  WARNING: The energy has been calculated at the MP2 level but the densities
           used in the property calculations are still SCF densities
           MP2 response densities have not been calculated 
           use %mp2 Density relaxed end
           or  %mp2 Density unrelaxed end

                                    ---------------------
                                    Active property flags
                                    ---------------------
   (+) Dipole Moment


------------------------------------------------------------------------------
                       ORCA ELECTRIC PROPERTIES CALCULATION
------------------------------------------------------------------------------

Dipole Moment Calculation                       ... on
Quadrupole Moment Calculation                   ... off
Polarizability Calculation                      ... off
GBWName                                         ... DZ_3-methyl-1-butanethiol.gbw
Electron density                                ... DZ_3-methyl-1-butanethiol.scfp
The origin for moment calculation is the CENTER OF MASS  = (-0.143837,  0.133703  0.000000)

-------------
DIPOLE MOMENT
-------------
                                X             Y             Z
Electronic contribution:     -8.00805       7.07451      -0.00000
Nuclear contribution   :      8.34251      -7.75475       0.00000
                        -----------------------------------------
Total Dipole Moment    :      0.33446      -0.68025      -0.00000
                        -----------------------------------------
Magnitude (a.u.)       :      0.75802
Magnitude (Debye)      :      1.92674



--------------------
Rotational spectrum 
--------------------
 
Rotational constants in cm-1:     0.198184     0.039501     0.036856 
Rotational constants in MHz :  5941.405815  1184.215812  1104.904156 

 Dipole components along the rotational axes: 
x,y,z [a.u.] :    -0.649213    -0.000000    -0.391308 
x,y,z [Debye]:    -1.650170    -0.000000    -0.994626 

 

Timings for individual modules:

Sum of individual times         ...       47.916 sec (=   0.799 min)
GTO integral calculation        ...        7.904 sec (=   0.132 min)  16.5 %
SCF iterations                  ...       36.744 sec (=   0.612 min)  76.7 %
MP2 module                      ...        3.268 sec (=   0.054 min)   6.8 %
                             ****ORCA TERMINATED NORMALLY****
TOTAL RUN TIME: 0 days 0 hours 0 minutes 51 seconds 457 msec
