
                                 *****************
                                 * O   R   C   A *
                                 *****************

                                            #,                                       
                                            ###                                      
                                            ####                                     
                                            #####                                    
                                            ######                                   
                                           ########,                                 
                                     ,,################,,,,,                         
                               ,,#################################,,                 
                          ,,##########################################,,             
                       ,#########################################, ''#####,          
                    ,#############################################,,   '####,        
                  ,##################################################,,,,####,       
                ,###########''''           ''''###############################       
              ,#####''   ,,,,##########,,,,          '''####'''          '####       
            ,##' ,,,,###########################,,,                        '##       
           ' ,,###''''                  '''############,,,                           
         ,,##''                                '''############,,,,        ,,,,,,###''
      ,#''                                            '''#######################'''  
     '                                                          ''''####''''         
             ,#######,   #######,   ,#######,      ##                                
            ,#'     '#,  ##    ##  ,#'     '#,    #''#        ######   ,####,        
            ##       ##  ##   ,#'  ##            #'  '#       #        #'  '#        
            ##       ##  #######   ##           ,######,      #####,   #    #        
            '#,     ,#'  ##    ##  '#,     ,#' ,#      #,         ##   #,  ,#        
             '#######'   ##     ##  '#######'  #'      '#     #####' # '####'        



                  #######################################################
                  #                        -***-                        #
                  #          Department of theory and spectroscopy      #
                  #    Directorship and core code : Frank Neese         #
                  #        Max Planck Institute fuer Kohlenforschung    #
                  #                Kaiser Wilhelm Platz 1               #
                  #                 D-45470 Muelheim/Ruhr               #
                  #                      Germany                        #
                  #                                                     #
                  #                  All rights reserved                #
                  #                        -***-                        #
                  #######################################################


                         Program Version 5.0.3 -  RELEASE  -


 With contributions from (in alphabetic order):
   Daniel Aravena         : Magnetic Suceptibility
   Michael Atanasov       : Ab Initio Ligand Field Theory (pilot matlab implementation)
   Alexander A. Auer      : GIAO ZORA, VPT2 properties, NMR spectrum
   Ute Becker             : Parallelization
   Giovanni Bistoni       : ED, misc. LED, open-shell LED, HFLD
   Martin Brehm           : Molecular dynamics
   Dmytro Bykov           : SCF Hessian
   Vijay G. Chilkuri      : MRCI spin determinant printing, contributions to CSF-ICE
   Dipayan Datta          : RHF DLPNO-CCSD density
   Achintya Kumar Dutta   : EOM-CC, STEOM-CC
   Dmitry Ganyushin       : Spin-Orbit,Spin-Spin,Magnetic field MRCI
   Miquel Garcia          : C-PCM and meta-GGA Hessian, CC/C-PCM, Gaussian charge scheme
   Yang Guo               : DLPNO-NEVPT2, F12-NEVPT2, CIM, IAO-localization
   Andreas Hansen         : Spin unrestricted coupled pair/coupled cluster methods
   Benjamin Helmich-Paris : MC-RPA, TRAH-SCF, COSX integrals
   Lee Huntington         : MR-EOM, pCC
   Robert Izsak           : Overlap fitted RIJCOSX, COSX-SCS-MP3, EOM
   Marcus Kettner         : VPT2
   Christian Kollmar      : KDIIS, OOCD, Brueckner-CCSD(T), CCSD density, CASPT2, CASPT2-K
   Simone Kossmann        : Meta GGA functionals, TD-DFT gradient, OOMP2, MP2 Hessian
   Martin Krupicka        : Initial AUTO-CI
   Lucas Lang             : DCDCAS
   Marvin Lechner         : AUTO-CI (C++ implementation), FIC-MRCC
   Dagmar Lenk            : GEPOL surface, SMD
   Dimitrios Liakos       : Extrapolation schemes; Compound Job, initial MDCI parallelization
   Dimitrios Manganas     : Further ROCIS development; embedding schemes
   Dimitrios Pantazis     : SARC Basis sets
   Anastasios Papadopoulos: AUTO-CI, single reference methods and gradients
   Taras Petrenko         : DFT Hessian,TD-DFT gradient, ASA, ECA, R-Raman, ABS, FL, XAS/XES, NRVS
   Peter Pinski           : DLPNO-MP2, DLPNO-MP2 Gradient
   Christoph Reimann      : Effective Core Potentials
   Marius Retegan         : Local ZFS, SOC
   Christoph Riplinger    : Optimizer, TS searches, QM/MM, DLPNO-CCSD(T), (RO)-DLPNO pert. Triples
   Tobias Risthaus        : Range-separated hybrids, TD-DFT gradient, RPA, STAB
   Michael Roemelt        : Original ROCIS implementation
   Masaaki Saitow         : Open-shell DLPNO-CCSD energy and density
   Barbara Sandhoefer     : DKH picture change effects
   Avijit Sen             : IP-ROCIS
   Kantharuban Sivalingam : CASSCF convergence, NEVPT2, FIC-MRCI
   Bernardo de Souza      : ESD, SOC TD-DFT
   Georgi Stoychev        : AutoAux, RI-MP2 NMR, DLPNO-MP2 response
   Willem Van den Heuvel  : Paramagnetic NMR
   Boris Wezisla          : Elementary symmetry handling
   Frank Wennmohs         : Technical directorship


 We gratefully acknowledge several colleagues who have allowed us to
 interface, adapt or use parts of their codes:
   Stefan Grimme, W. Hujo, H. Kruse, P. Pracht,  : VdW corrections, initial TS optimization,
                  C. Bannwarth, S. Ehlert          DFT functionals, gCP, sTDA/sTD-DF
   Ed Valeev, F. Pavosevic, A. Kumar             : LibInt (2-el integral package), F12 methods
   Garnet Chan, S. Sharma, J. Yang, R. Olivares  : DMRG
   Ulf Ekstrom                                   : XCFun DFT Library
   Mihaly Kallay                                 : mrcc  (arbitrary order and MRCC methods)
   Jiri Pittner, Ondrej Demel                    : Mk-CCSD
   Frank Weinhold                                : gennbo (NPA and NBO analysis)
   Christopher J. Cramer and Donald G. Truhlar   : smd solvation model
   Lars Goerigk                                  : TD-DFT with DH, B97 family of functionals
   V. Asgeirsson, H. Jonsson                     : NEB implementation
   FAccTs GmbH                                   : IRC, NEB, NEB-TS, DLPNO-Multilevel, CI-OPT
                                                   MM, QMMM, 2- and 3-layer-ONIOM, Crystal-QMMM,
                                                   LR-CPCM, SF, NACMEs, symmetry and pop. for TD-DFT,
                                                   nearIR, NL-DFT gradient (VV10), updates on ESD,
                                                   ML-optimized integration grids
   S Lehtola, MJT Oliveira, MAL Marques          : LibXC Library
   Liviu Ungur et al                             : ANISO software


 Your calculation uses the libint2 library for the computation of 2-el integrals
 For citations please refer to: http://libint.valeyev.net

 Your ORCA version has been built with support for libXC version: 5.1.0
 For citations please refer to: https://tddft.org/programs/libxc/

 This ORCA versions uses:
   CBLAS   interface :  Fast vector & matrix operations
   LAPACKE interface :  Fast linear algebra routines
   SCALAPACK package :  Parallel linear algebra routines
   Shared memory     :  Shared parallel matrices
   BLAS/LAPACK       :  OpenBLAS 0.3.15  USE64BITINT DYNAMIC_ARCH NO_AFFINITY SkylakeX SINGLE_THREADED
        Core in use  :  SkylakeX
   Copyright (c) 2011-2014, The OpenBLAS Project


================================================================================

----- Orbital basis set information -----
Your calculation utilizes the basis: aug-cc-pVDZ 
    H, B-Ne : Obtained from the ccRepo (grant-hill.group.shef.ac.uk/ccrepo) Feb. 2017
              R. A. Kendall, T. H. Dunning, Jr., R. J. Harrison, J. Chem. Phys. 96, 6796 (1992)
         He : Obtained from the ccRepo (grant-hill.group.shef.ac.uk/ccrepo) Feb. 2017
              D. E. Woon, T. H. Dunning, Jr., J. Chem. Phys. 100, 2975 (1994)
  Li-Be, Na : Obtained from the ccRepo (grant-hill.group.shef.ac.uk/ccrepo) Feb. 2017
              B. P. Prascher, D. E. Woon, K. A. Peterson, T. H. Dunning, Jr., A. K. Wilson, Theor. Chem. Acc. 128, 69 (2011)
         Mg : Obtained from the Peterson Research Group Website (tyr0.chem.wsu.edu/~kipeters) Feb. 2017
              B. P. Prascher, D. E. Woon, K. A. Peterson, T. H. Dunning, Jr., A. K. Wilson, Theor. Chem. Acc. 128, 69 (2011)
      Al-Ar : Obtained from the ccRepo (grant-hill.group.shef.ac.uk/ccrepo) Feb. 2017
              D. E. Woon, T. H. Dunning, Jr., J. Chem. Phys. 98, 1358 (1993)
      Sc-Zn : Obtained from the ccRepo (grant-hill.group.shef.ac.uk/ccrepo) Feb. 2017
              N. B. Balabanov, K. A. Peterson, J. Chem. Phys. 123, 064107 (2005)
              N. B. Balabanov, K. A. Peterson, J. Chem. Phys. 125, 074110 (2006)
      Ga-Kr : Obtained from the ccRepo (grant-hill.group.shef.ac.uk/ccrepo) Feb. 2017
              A. K. Wilson, D. E. Woon, K. A. Peterson, T. H. Dunning, Jr., J. Chem. Phys. 110, 7667 (1999)

----- AuxC basis set information -----
Your calculation utilizes the auxiliary basis: aug-cc-pVDZ/C 
  H-He, B, Ne, Al-Ar, Ga-Ge, Se-Br : Obtained from the EMSL Basis Set Exchange (bse.pnl.gov) Feb. 2017
                                     F. Weigend, A. Kohn, C. Hattig, J. Chem. Phys. 116, 3175 (2002)
                            Be, Mg : Obtained from the TURBOMOLE 7.0 basis set library
                                     C. Haettig, Phys. Chem. Chem. Phys. 7, 59 (2005)
                               C-F : Obtained from the EMSL Basis Set Exchange (bse.pnl.gov) Feb. 2017
                                     C. Haettig, Phys. Chem. Chem. Phys. 7, 59 (2005)
                                     F. Weigend, A. Kohn, C. Hattig, J. Chem. Phys. 116, 3175 (2002)
                                As : Obtained from the EMSL Basis Set Exchange (bse.pnl.gov) Feb. 2017
                                     C. Haettig, G. Schmitz, J. Kossmann, Phys. Chem. Chem. Phys. 14, 6549 (2012)
                                Kr : Obtained from the TURBOMOLE 7.0 basis set library
                                     F. Weigend, A. Kohn, C. Hattig, J. Chem. Phys. 116, 3175 (2002)
                                     S function revised in Sep. 2009

================================================================================
                                        WARNINGS
                       Please study these warnings very carefully!
================================================================================


WARNING: No MP2 level density has been requested!
         To caclulate MP2 level properties use
         %mp2 Density relaxed end
         or
         %mp2 Density unrelaxed end

WARNING: Post HF methods need fully converged wavefunctions
  ===> : Setting SCFConvForced true
         You can overwrite this default with %scf ConvForced false 


INFO   : the flag for use of the SHARK integral package has been found!

================================================================================
                                       INPUT FILE
================================================================================
NAME = DZ_3,3-dichloropropyne.inp
|  1> !ri-mp2 aug-cc-pvdz aug-cc-pvdz/c tightscf
|  2> %pal nprocs 16 end
|  3> 
|  4> * xyz 0 1
|  5> Cl     0.811282    1.486375   -0.113059
|  6> Cl     0.811397   -1.486324   -0.112983
|  7> C     -0.023639    0.000009    0.490782
|  8> C     -1.414266   -0.000051    0.121661
|  9> C     -2.577535   -0.000087   -0.162983
| 10> H      0.115063    0.000040    1.565162
| 11> H     -3.607963   -0.000119   -0.419211
| 12> *
| 13> 
| 14>                          ****END OF INPUT****
================================================================================

                       ****************************
                       * Single Point Calculation *
                       ****************************

---------------------------------
CARTESIAN COORDINATES (ANGSTROEM)
---------------------------------
  Cl     0.811282    1.486375   -0.113059
  Cl     0.811397   -1.486324   -0.112983
  C     -0.023639    0.000009    0.490782
  C     -1.414266   -0.000051    0.121661
  C     -2.577535   -0.000087   -0.162983
  H      0.115063    0.000040    1.565162
  H     -3.607963   -0.000119   -0.419211

----------------------------
CARTESIAN COORDINATES (A.U.)
----------------------------
  NO LB      ZA    FRAG     MASS         X           Y           Z
   0 Cl   17.0000    0    35.453    1.533101    2.808842   -0.213651
   1 Cl   17.0000    0    35.453    1.533318   -2.808745   -0.213507
   2 C     6.0000    0    12.011   -0.044671    0.000017    0.927444
   3 C     6.0000    0    12.011   -2.672575   -0.000096    0.229906
   4 C     6.0000    0    12.011   -4.870835   -0.000164   -0.307993
   5 H     1.0000    0     1.008    0.217438    0.000076    2.957728
   6 H     1.0000    0     1.008   -6.818062   -0.000225   -0.792194

--------------------------------
INTERNAL COORDINATES (ANGSTROEM)
--------------------------------
 Cl     0   0   0     0.000000000000     0.00000000     0.00000000
 Cl     1   0   0     2.972699003196     0.00000000     0.00000000
 C      1   2   0     1.808590864590    34.73187764     0.00000000
 C      3   1   2     1.438782043734   111.13517596   236.10836010
 C      4   3   1     1.197587981901   178.88420590   241.80840298
 H      3   1   2     1.083296187644   105.78301649   114.06121499
 H      5   4   3     1.061807257553   179.78566240   179.96691090

---------------------------
INTERNAL COORDINATES (A.U.)
---------------------------
 Cl     0   0   0     0.000000000000     0.00000000     0.00000000
 Cl     1   0   0     5.617586994621     0.00000000     0.00000000
 C      1   2   0     3.417741422387    34.73187764     0.00000000
 C      3   1   2     2.718904029060   111.13517596   236.10836010
 C      4   3   1     2.263113307068   178.88420590   241.80840298
 H      3   1   2     2.047133116569   105.78301649   114.06121499
 H      5   4   3     2.006524923785   179.78566240   179.96691090

---------------------
BASIS SET INFORMATION
---------------------
There are 3 groups of distinct atoms

 Group   1 Type Cl  : 35s16p2d contracted to 5s4p2d pattern {11111111/7711/11}
 Group   2 Type C   : 18s5p2d contracted to 4s3p2d pattern {8811/311/11}
 Group   3 Type H   : 5s2p contracted to 3s2p pattern {311/11}

Atom   0Cl   basis set group =>   1
Atom   1Cl   basis set group =>   1
Atom   2C    basis set group =>   2
Atom   3C    basis set group =>   2
Atom   4C    basis set group =>   2
Atom   5H    basis set group =>   3
Atom   6H    basis set group =>   3
---------------------------------
AUXILIARY/C BASIS SET INFORMATION
---------------------------------
There are 3 groups of distinct atoms

 Group   1 Type Cl  : 10s8p6d4f contracted to 10s8p6d4f pattern {1111111111/11111111/111111/1111}
 Group   2 Type C   : 8s6p5d3f contracted to 8s6p5d3f pattern {11111111/111111/11111/111}
 Group   3 Type H   : 4s3p2d contracted to 4s3p2d pattern {1111/111/11}

Atom   0Cl   basis set group =>   1
Atom   1Cl   basis set group =>   1
Atom   2C    basis set group =>   2
Atom   3C    basis set group =>   2
Atom   4C    basis set group =>   2
Atom   5H    basis set group =>   3
Atom   6H    basis set group =>   3


           ************************************************************
           *        Program running with 16 parallel MPI-processes    *
           *              working on a common directory               *
           ************************************************************
------------------------------------------------------------------------------
                           ORCA GTO INTEGRAL CALCULATION
------------------------------------------------------------------------------
------------------------------------------------------------------------------
                   ___                                                        
                  /   \      - P O W E R E D   B Y -                         
                 /     \                                                     
                 |  |  |   _    _      __       _____    __    __             
                 |  |  |  | |  | |    /  \     |  _  \  |  |  /  |          
                  \  \/   | |  | |   /    \    | | | |  |  | /  /          
                 / \  \   | |__| |  /  /\  \   | |_| |  |  |/  /          
                |  |  |   |  __  | /  /__\  \  |    /   |      \           
                |  |  |   | |  | | |   __   |  |    \   |  |\   \          
                \     /   | |  | | |  |  |  |  | |\  \  |  | \   \       
                 \___/    |_|  |_| |__|  |__|  |_| \__\ |__|  \__/        
                                                                              
                      - O R C A' S   B I G   F R I E N D -                    
                                      &                                       
                       - I N T E G R A L  F E E D E R -                       
                                                                              
 v1 FN, 2020, v2 2021                                                         
------------------------------------------------------------------------------


Reading SHARK input file DZ_3,3-dichloropropyne.SHARKINP.tmp ... ok
----------------------
SHARK INTEGRAL PACKAGE
----------------------

Number of atoms                             ...      7
Number of basis functions                   ...    205
Number of shells                            ...    103
Maximum angular momentum                    ...      2
Integral batch strategy                     ... SHARK/LIBINT Hybrid
RI-J (if used) integral strategy            ... SPLIT-RIJ (Revised 2003 algorithm where possible)
Printlevel                                  ...      1
Contraction scheme used                     ... PARTIAL GENERAL contraction
Coulomb Range Separation                    ... NOT USED
Exchange Range Separation                   ... NOT USED
Finite Nucleus Model                        ... NOT USED
Auxiliary Coulomb fitting basis             ... NOT available
Auxiliary J/K fitting basis                 ... NOT available
Auxiliary Correlation fitting basis         ... AVAILABLE
   # of basis functions in Aux-C            ...    446
   # of shells in Aux-C                     ...    140
   Maximum angular momentum in Aux-C        ...      3
Auxiliary 'external' fitting basis          ... NOT available
Integral threshold                          ...     2.500000e-11
Primitive cut-off                           ...     2.500000e-12
Primitive pair pre-selection threshold      ...     2.500000e-12

Calculating pre-screening integrals         ... done (  0.0 sec) Dimension = 103
Calculating pre-screening integrals (ORCA)  ... done (  0.1 sec) Dimension = 59
Organizing shell pair data                  ... done (  0.0 sec)
Shell pair information
Total number of shell pairs                 ...      5356
Shell pairs after pre-screening             ...      4209
Total number of primitive shell pairs       ...      6456
Primitive shell pairs kept                  ...      4891
          la=0 lb=0:   1277 shell pairs
          la=1 lb=0:   1514 shell pairs
          la=1 lb=1:    447 shell pairs
          la=2 lb=0:    606 shell pairs
          la=2 lb=1:    310 shell pairs
          la=2 lb=2:     55 shell pairs

Calculating one electron integrals          ... done (  0.0 sec)
Calculating RI/C V-Matrix + Cholesky decomp.... done (  0.0 sec)
Calculating Nuclear repulsion               ... done (  0.0 sec) ENN=    239.188016690758 Eh

SHARK setup successfully completed in   0.3 seconds

Maximum memory used throughout the entire GTOINT-calculation: 28.0 MB


           ************************************************************
           *        Program running with 16 parallel MPI-processes    *
           *              working on a common directory               *
           ************************************************************
-------------------------------------------------------------------------------
                                 ORCA SCF
-------------------------------------------------------------------------------

------------
SCF SETTINGS
------------
Hamiltonian:
 Ab initio Hamiltonian  Method          .... Hartree-Fock(GTOs)


General Settings:
 Integral files         IntName         .... DZ_3,3-dichloropropyne
 Hartree-Fock type      HFTyp           .... RHF
 Total Charge           Charge          ....    0
 Multiplicity           Mult            ....    1
 Number of Electrons    NEL             ....   54
 Basis Dimension        Dim             ....  141
 Nuclear Repulsion      ENuc            ....    239.1880166908 Eh

Convergence Acceleration:
 DIIS                   CNVDIIS         .... on
   Start iteration      DIISMaxIt       ....    12
   Startup error        DIISStart       ....  0.200000
   # of expansion vecs  DIISMaxEq       ....     5
   Bias factor          DIISBfac        ....   1.050
   Max. coefficient     DIISMaxC        ....  10.000
 Trust-Rad. Augm. Hess. CNVTRAH         .... auto
   Auto Start mean grad. ratio tolernc. ....  1.125000
   Auto Start start iteration           ....    20
   Auto Start num. interpolation iter.  ....    10
   Max. Number of Micro iterations      ....    16
   Max. Number of Macro iterations      .... Maxiter - #DIIS iter
   Number of Davidson start vectors     ....     2
   Converg. threshold I  (grad. norm)   ....   1.000e-05
   Converg. threshold II (energy diff.) ....   1.000e-08
   Grad. Scal. Fac. for Micro threshold ....   0.100
   Minimum threshold for Micro iter.    ....   0.010
   NR start threshold (gradient norm)   ....   0.001
   Initial trust radius                 ....   0.400
   Minimum AH scaling param. (alpha)    ....   1.000
   Maximum AH scaling param. (alpha)    .... 1000.000
   Orbital update algorithm             .... Taylor
   White noise on init. David. guess    .... on
   Maximum white noise                  ....   0.010
   Quad. conv. algorithm                .... NR
 SOSCF                  CNVSOSCF        .... on
   Start iteration      SOSCFMaxIt      ....   150
   Startup grad/error   SOSCFStart      ....  0.003300
 Level Shifting         CNVShift        .... on
   Level shift para.    LevelShift      ....    0.2500
   Turn off err/grad.   ShiftErr        ....    0.0010
 Zerner damping         CNVZerner       .... off
 Static damping         CNVDamp         .... on
   Fraction old density DampFac         ....    0.7000
   Max. Damping (<1)    DampMax         ....    0.9800
   Min. Damping (>=0)   DampMin         ....    0.0000
   Turn off err/grad.   DampErr         ....    0.1000
 Fernandez-Rico         CNVRico         .... off

SCF Procedure:
 Maximum # iterations   MaxIter         ....   125
 SCF integral mode      SCFMode         .... Direct
   Integral package                     .... SHARK and LIBINT hybrid scheme
 Reset frequency        DirectResetFreq ....    20
 Integral Threshold     Thresh          ....  2.500e-11 Eh
 Primitive CutOff       TCut            ....  2.500e-12 Eh

Convergence Tolerance:
 Convergence Check Mode ConvCheckMode   .... Total+1el-Energy
 Convergence forced     ConvForced      .... 1
 Energy Change          TolE            ....  1.000e-08 Eh
 1-El. energy change                    ....  1.000e-05 Eh
 Orbital Gradient       TolG            ....  1.000e-05
 Orbital Rotation angle TolX            ....  1.000e-05
 DIIS Error             TolErr          ....  5.000e-07


Diagonalization of the overlap matrix:
Smallest eigenvalue                        ... 2.416e-05
Time for diagonalization                   ...    0.004 sec
Threshold for overlap eigenvalues          ... 1.000e-08
Number of eigenvalues below threshold      ... 0
Time for construction of square roots      ...    0.006 sec
Total time needed                          ...    0.010 sec

Time for model grid setup =    0.049 sec

------------------------------
INITIAL GUESS: MODEL POTENTIAL
------------------------------
Loading Hartree-Fock densities                     ... done
Calculating cut-offs                               ... done
Initializing the effective Hamiltonian             ... done
Setting up the integral package (SHARK)            ... done
Starting the Coulomb interaction                   ... done (   0.0 sec)
Reading the grid                                   ... done
Mapping shells                                     ... done
Starting the XC term evaluation                    ... done (   0.0 sec)
Transforming the Hamiltonian                       ... done (   0.0 sec)
Diagonalizing the Hamiltonian                      ... done (   0.0 sec)
Back transforming the eigenvectors                 ... done (   0.0 sec)
Now organizing SCF variables                       ... done
                      ------------------
                      INITIAL GUESS DONE (   0.1 sec)
                      ------------------
--------------
SCF ITERATIONS
--------------
ITER       Energy         Delta-E        Max-DP      RMS-DP      [F,P]     Damp
               ***  Starting incremental Fock matrix formation  ***
  0  -1033.5867876659   0.000000000000 0.26166138  0.00668867  0.1444538 0.7000
  1  -1033.6251660909  -0.038378425044 0.19232806  0.00508684  0.0992945 0.7000
                               ***Turning on DIIS***
  2  -1033.6505465210  -0.025380430101 0.43976140  0.01184310  0.0625820 0.0000
  3  -1033.5604064933   0.090140027695 0.04418591  0.00116116  0.0240992 0.0000
  4  -1033.7137772678  -0.153370774504 0.01985076  0.00060567  0.0045749 0.0000
                      *** Initiating the SOSCF procedure ***
                           *** Shutting down DIIS ***
                      *** Re-Reading the Fockian *** 
                      *** Removing any level shift *** 
ITER      Energy       Delta-E        Grad      Rot      Max-DP    RMS-DP
  5  -1033.69615647   0.0176208026  0.001313  0.001313  0.006424  0.000193
               *** Restarting incremental Fock matrix formation ***
  6  -1033.70679710  -0.0106406314  0.000451  0.000742  0.002453  0.000074
  7  -1033.70680463  -0.0000075302  0.000213  0.000603  0.001688  0.000052
  8  -1033.70680625  -0.0000016246  0.000119  0.000127  0.000640  0.000018
  9  -1033.70680655  -0.0000003029  0.000021  0.000033  0.000209  0.000005
 10  -1033.70680658  -0.0000000248  0.000013  0.000046  0.000066  0.000002
 11  -1033.70680659  -0.0000000099  0.000003  0.000011  0.000029  0.000001
                  ***Gradient check signals convergence***
              ***Rediagonalizing the Fockian in SOSCF/NRSCF***

               *****************************************************
               *                     SUCCESS                       *
               *           SCF CONVERGED AFTER  12 CYCLES          *
               *****************************************************


----------------
TOTAL SCF ENERGY
----------------

Total Energy       :        -1033.70680659 Eh          -28128.59224 eV

Components:
Nuclear Repulsion  :          239.18801669 Eh            6508.63683 eV
Electronic Energy  :        -1272.89482328 Eh          -34637.22906 eV
One Electron Energy:        -1900.10891993 Eh          -51704.59232 eV
Two Electron Energy:          627.21409665 Eh           17067.36326 eV

Virial components:
Potential Energy   :        -2067.28432421 Eh          -56253.66634 eV
Kinetic Energy     :         1033.57751762 Eh           28125.07411 eV
Virial Ratio       :            2.00012509


---------------
SCF CONVERGENCE
---------------

  Last Energy change         ...   -1.1764e-09  Tolerance :   1.0000e-08
  Last MAX-Density change    ...    2.2097e-05  Tolerance :   1.0000e-07
  Last RMS-Density change    ...    7.4975e-07  Tolerance :   5.0000e-09
  Last Orbital Gradient      ...    2.2599e-06  Tolerance :   1.0000e-05
  Last Orbital Rotation      ...    6.7786e-06  Tolerance :   1.0000e-05

             **** THE GBW FILE WAS UPDATED (DZ_3,3-dichloropropyne.gbw) ****
             **** DENSITY DZ_3,3-dichloropropyne.scfp WAS UPDATED ****
             **** ENERGY FILE WAS UPDATED (DZ_3,3-dichloropropyne.en.tmp) ****
             **** THE GBW FILE WAS UPDATED (DZ_3,3-dichloropropyne.gbw) ****
             **** DENSITY DZ_3,3-dichloropropyne.scfp WAS UPDATED ****
----------------
ORBITAL ENERGIES
----------------

  NO   OCC          E(Eh)            E(eV) 
   0   2.0000    -104.854645     -2853.2399 
   1   2.0000    -104.854645     -2853.2399 
   2   2.0000     -11.408073      -310.4294 
   3   2.0000     -11.275877      -306.8322 
   4   2.0000     -11.271579      -306.7153 
   5   2.0000     -10.580299      -287.9046 
   6   2.0000     -10.580285      -287.9042 
   7   2.0000      -8.047939      -218.9955 
   8   2.0000      -8.047937      -218.9955 
   9   2.0000      -8.044431      -218.9001 
  10   2.0000      -8.044430      -218.9001 
  11   2.0000      -8.044363      -218.8982 
  12   2.0000      -8.044362      -218.8982 
  13   2.0000      -1.209365       -32.9085 
  14   2.0000      -1.100535       -29.9471 
  15   2.0000      -1.065256       -28.9871 
  16   2.0000      -0.934856       -25.4387 
  17   2.0000      -0.759989       -20.6804 
  18   2.0000      -0.705623       -19.2010 
  19   2.0000      -0.635219       -17.2852 
  20   2.0000      -0.604006       -16.4359 
  21   2.0000      -0.488860       -13.3026 
  22   2.0000      -0.483075       -13.1451 
  23   2.0000      -0.460926       -12.5424 
  24   2.0000      -0.452408       -12.3106 
  25   2.0000      -0.422570       -11.4987 
  26   2.0000      -0.418822       -11.3967 
  27   0.0000       0.033636         0.9153 
  28   0.0000       0.041244         1.1223 
  29   0.0000       0.074839         2.0365 
  30   0.0000       0.081493         2.2175 
  31   0.0000       0.089246         2.4285 
  32   0.0000       0.091480         2.4893 
  33   0.0000       0.100308         2.7295 
  34   0.0000       0.125785         3.4228 
  35   0.0000       0.144361         3.9283 
  36   0.0000       0.144929         3.9437 
  37   0.0000       0.146077         3.9750 
  38   0.0000       0.155383         4.2282 
  39   0.0000       0.162830         4.4308 
  40   0.0000       0.163593         4.4516 
  41   0.0000       0.176851         4.8124 
  42   0.0000       0.182142         4.9563 
  43   0.0000       0.191506         5.2111 
  44   0.0000       0.192208         5.2303 
  45   0.0000       0.211872         5.7653 
  46   0.0000       0.216198         5.8831 
  47   0.0000       0.238522         6.4905 
  48   0.0000       0.276717         7.5298 
  49   0.0000       0.280403         7.6302 
  50   0.0000       0.308040         8.3822 
  51   0.0000       0.308523         8.3953 
  52   0.0000       0.319723         8.7001 
  53   0.0000       0.331289         9.0148 
  54   0.0000       0.368115        10.0169 
  55   0.0000       0.408248        11.1090 
  56   0.0000       0.411123        11.1872 
  57   0.0000       0.423935        11.5359 
  58   0.0000       0.429828        11.6962 
  59   0.0000       0.437370        11.9014 
  60   0.0000       0.468822        12.7573 
  61   0.0000       0.480519        13.0756 
  62   0.0000       0.490682        13.3521 
  63   0.0000       0.501758        13.6535 
  64   0.0000       0.506052        13.7704 
  65   0.0000       0.519709        14.1420 
  66   0.0000       0.543244        14.7824 
  67   0.0000       0.558659        15.2019 
  68   0.0000       0.574126        15.6228 
  69   0.0000       0.582274        15.8445 
  70   0.0000       0.601846        16.3771 
  71   0.0000       0.613609        16.6971 
  72   0.0000       0.633628        17.2419 
  73   0.0000       0.681653        18.5487 
  74   0.0000       0.687883        18.7183 
  75   0.0000       0.699535        19.0353 
  76   0.0000       0.699849        19.0439 
  77   0.0000       0.758898        20.6507 
  78   0.0000       0.774407        21.0727 
  79   0.0000       0.779468        21.2104 
  80   0.0000       0.802172        21.8282 
  81   0.0000       0.810820        22.0635 
  82   0.0000       0.836685        22.7674 
  83   0.0000       0.856526        23.3073 
  84   0.0000       0.866721        23.5847 
  85   0.0000       0.881345        23.9826 
  86   0.0000       0.924446        25.1555 
  87   0.0000       0.944764        25.7083 
  88   0.0000       0.955718        26.0064 
  89   0.0000       0.984071        26.7779 
  90   0.0000       1.003362        27.3029 
  91   0.0000       1.036895        28.2154 
  92   0.0000       1.096048        29.8250 
  93   0.0000       1.101960        29.9859 
  94   0.0000       1.124394        30.5963 
  95   0.0000       1.141194        31.0535 
  96   0.0000       1.179096        32.0848 
  97   0.0000       1.216020        33.0896 
  98   0.0000       1.241414        33.7806 
  99   0.0000       1.243523        33.8380 
 100   0.0000       1.269695        34.5502 
 101   0.0000       1.371065        37.3086 
 102   0.0000       1.400501        38.1096 
 103   0.0000       1.417450        38.5708 
 104   0.0000       1.424035        38.7500 
 105   0.0000       1.433961        39.0201 
 106   0.0000       1.455009        39.5928 
 107   0.0000       1.456298        39.6279 
 108   0.0000       1.497663        40.7535 
 109   0.0000       1.498131        40.7662 
 110   0.0000       1.516897        41.2769 
 111   0.0000       1.517634        41.2969 
 112   0.0000       1.580713        43.0134 
 113   0.0000       1.583946        43.1013 
 114   0.0000       1.637396        44.5558 
 115   0.0000       1.672428        45.5091 
 116   0.0000       1.693455        46.0813 
 117   0.0000       1.702598        46.3300 
 118   0.0000       1.723959        46.9113 
 119   0.0000       1.729596        47.0647 
 120   0.0000       1.880755        51.1780 
 121   0.0000       1.896195        51.5981 
 122   0.0000       1.899627        51.6915 
 123   0.0000       1.908097        51.9220 
 124   0.0000       1.923461        52.3400 
 125   0.0000       2.025611        55.1197 
 126   0.0000       2.101800        57.1929 
 127   0.0000       2.236422        60.8561 
 128   0.0000       2.265861        61.6572 
 129   0.0000       2.270564        61.7852 
 130   0.0000       2.331290        63.4376 
 131   0.0000       2.375741        64.6472 
 132   0.0000       2.410271        65.5868 
 133   0.0000       2.597113        70.6710 
 134   0.0000       2.620277        71.3014 
 135   0.0000       2.714184        73.8567 
 136   0.0000       2.785201        75.7892 
 137   0.0000       2.815983        76.6268 
 138   0.0000       2.955342        80.4189 
 139   0.0000       3.560247        96.8792 
 140   0.0000       4.102420       111.6325 

                    ********************************
                    * MULLIKEN POPULATION ANALYSIS *
                    ********************************

-----------------------
MULLIKEN ATOMIC CHARGES
-----------------------
   0 Cl:    0.030399
   1 Cl:    0.030400
   2 C :   -0.986898
   3 C :    0.460226
   4 C :    0.676079
   5 H :    0.190871
   6 H :   -0.401077
Sum of atomic charges:   -0.0000000

--------------------------------
MULLIKEN REDUCED ORBITAL CHARGES
--------------------------------
  0 Cls       :     5.984729  s :     5.984729
      pz      :     3.863186  p :    10.958177
      px      :     3.742020
      py      :     3.352971
      dz2     :     0.003664  d :     0.026695
      dxz     :     0.002095
      dyz     :     0.009797
      dx2y2   :     0.000051
      dxy     :     0.011088
  1 Cls       :     5.984728  s :     5.984728
      pz      :     3.863209  p :    10.958176
      px      :     3.741969
      py      :     3.352998
      dz2     :     0.003664  d :     0.026695
      dxz     :     0.002095
      dyz     :     0.009795
      dx2y2   :     0.000049
      dxy     :     0.011091
  2 C s       :     3.262260  s :     3.262260
      pz      :     1.175618  p :     3.513786
      px      :     1.162017
      py      :     1.176150
      dz2     :     0.013965  d :     0.210852
      dxz     :     0.044949
      dyz     :     0.076151
      dx2y2   :     0.028633
      dxy     :     0.047155
  3 C s       :     3.269086  s :     3.269086
      pz      :     0.938411  p :     2.431156
      px      :     0.527762
      py      :     0.964983
      dz2     :    -0.016839  d :    -0.160468
      dxz     :     0.092252
      dyz     :    -0.005245
      dx2y2   :     0.014234
      dxy     :    -0.244869
  4 C s       :     2.965189  s :     2.965189
      pz      :     0.953943  p :     2.332733
      px      :     0.396725
      py      :     0.982065
      dz2     :     0.003231  d :     0.025998
      dxz     :     0.022422
      dyz     :    -0.000107
      dx2y2   :     0.005904
      dxy     :    -0.005451
  5 H s       :     0.798250  s :     0.798250
      pz      :     0.021952  p :     0.010880
      px      :    -0.003297
      py      :    -0.007776
  6 H s       :     1.399121  s :     1.399121
      pz      :     0.003930  p :     0.001956
      px      :    -0.006909
      py      :     0.004935


                     *******************************
                     * LOEWDIN POPULATION ANALYSIS *
                     *******************************

----------------------
LOEWDIN ATOMIC CHARGES
----------------------
   0 Cl:    0.487631
   1 Cl:    0.487630
   2 C :   -0.854404
   3 C :   -0.208877
   4 C :    0.229758
   5 H :   -0.048903
   6 H :   -0.092836

-------------------------------
LOEWDIN REDUCED ORBITAL CHARGES
-------------------------------
  0 Cls       :     5.526287  s :     5.526287
      pz      :     3.740422  p :    10.822657
      px      :     3.668643
      py      :     3.413592
      dz2     :     0.024774  d :     0.163425
      dxz     :     0.012985
      dyz     :     0.038994
      dx2y2   :     0.039964
      dxy     :     0.046708
  1 Cls       :     5.526288  s :     5.526288
      pz      :     3.740438  p :    10.822658
      px      :     3.668609
      py      :     3.413611
      dz2     :     0.024773  d :     0.163424
      dxz     :     0.012986
      dyz     :     0.038990
      dx2y2   :     0.039964
      dxy     :     0.046711
  2 C s       :     2.688134  s :     2.688134
      pz      :     0.991331  p :     2.828109
      px      :     0.979633
      py      :     0.857145
      dz2     :     0.247058  d :     1.338160
      dxz     :     0.186050
      dyz     :     0.222428
      dx2y2   :     0.332481
      dxy     :     0.350143
  3 C s       :     2.712347  s :     2.712347
      pz      :     0.837636  p :     2.784443
      px      :     1.103280
      py      :     0.843527
      dz2     :     0.090588  d :     0.712088
      dxz     :     0.217684
      dyz     :     0.011969
      dx2y2   :     0.176797
      dxy     :     0.215050
  4 C s       :     2.764016  s :     2.764016
      pz      :     0.827501  p :     2.704203
      px      :     1.073232
      py      :     0.803469
      dz2     :     0.038187  d :     0.302023
      dxz     :     0.082493
      dyz     :     0.004724
      dx2y2   :     0.106098
      dxy     :     0.070520
  5 H s       :     0.748345  s :     0.748345
      pz      :     0.159816  p :     0.300558
      px      :     0.069405
      py      :     0.071337
  6 H s       :     0.789887  s :     0.789887
      pz      :     0.083244  p :     0.302949
      px      :     0.141598
      py      :     0.078106


                      *****************************
                      * MAYER POPULATION ANALYSIS *
                      *****************************

  NA   - Mulliken gross atomic population
  ZA   - Total nuclear charge
  QA   - Mulliken gross atomic charge
  VA   - Mayer's total valence
  BVA  - Mayer's bonded valence
  FA   - Mayer's free valence

  ATOM       NA         ZA         QA         VA         BVA        FA
  0 Cl    16.9696    17.0000     0.0304     1.0240     1.0240    -0.0000
  1 Cl    16.9696    17.0000     0.0304     1.0240     1.0240    -0.0000
  2 C      6.9869     6.0000    -0.9869     4.7171     4.7171    -0.0000
  3 C      5.5398     6.0000     0.4602     3.0402     3.0402    -0.0000
  4 C      5.3239     6.0000     0.6761     3.2311     3.2311    -0.0000
  5 H      0.8091     1.0000     0.1909     0.8839     0.8839    -0.0000
  6 H      1.4011     1.0000    -0.4011     0.5961     0.5961    -0.0000

  Mayer bond orders larger than 0.100000
B(  0-Cl,  2-C ) :   1.3864 B(  0-Cl,  3-C ) :  -0.4063 B(  0-Cl,  4-C ) :   0.1297 
B(  1-Cl,  2-C ) :   1.3864 B(  1-Cl,  3-C ) :  -0.4063 B(  1-Cl,  4-C ) :   0.1297 
B(  2-C ,  3-C ) :   0.8199 B(  2-C ,  5-H ) :   0.9785 B(  3-C ,  4-C ) :   2.7203 
B(  3-C ,  5-H ) :   0.1014 B(  3-C ,  6-H ) :   0.2112 B(  4-C ,  5-H ) :  -0.1040 
B(  4-C ,  6-H ) :   0.2623 

-------
TIMINGS
-------

Total SCF time: 0 days 0 hours 0 min 5 sec 

Total time                  ....       5.792 sec
Sum of individual times     ....       5.276 sec  ( 91.1%)

Fock matrix formation       ....       4.818 sec  ( 83.2%)
Diagonalization             ....       0.074 sec  (  1.3%)
Density matrix formation    ....       0.014 sec  (  0.2%)
Population analysis         ....       0.059 sec  (  1.0%)
Initial guess               ....       0.095 sec  (  1.6%)
Orbital Transformation      ....       0.000 sec  (  0.0%)
Orbital Orthonormalization  ....       0.000 sec  (  0.0%)
DIIS solution               ....       0.125 sec  (  2.2%)
SOSCF solution              ....       0.042 sec  (  0.7%)

Maximum memory used throughout the entire SCF-calculation: 228.8 MB


           ************************************************************
           *        Program running with 16 parallel MPI-processes    *
           *              working on a common directory               *
           ************************************************************

------------------------------------------------------------------------------
                                ORCA  MP2 
------------------------------------------------------------------------------

Freezing NCore=26 chemical core electrons

-------------
RI-MP2 ENERGY
-------------
Dimension of the basis                    ...  141
Memory devoted to MP2                     ...  256 MB   
Data format for buffers                   ... DOUBLE
Compression type for matrix containers    ... UNCOMPRESSED
Overall scaling of the MP2 energy         ...   1.000e+00
Calculating two index integrals           ... done (    0.002 sec)
Cholesky decomposition of V**-1           ... done (    0.021 sec)

-----------------
RI-TRANSFORMATION (AUX index driven)
-----------------

Dimension of the orbital-basis         ... 141
Dimension of the aux-basis             ... 446
Transformation of internal/external MOs...   13-  26 to   27- 140
Number Format for Storage              ... Double (8 Byte)
Integral mode                          ... Direct

First Phase: integral generation and transformation of MO indices
  Aux angular momentum 0               ... done (    0.006 sec)
  Aux angular momentum 1               ... done (    0.007 sec)
  Aux angular momentum 2               ... done (    0.007 sec)
  Aux angular momentum 3               ... done (    0.009 sec)
Closing buffer VIA ( 0.01 GB; CompressionRatio= 1.00)
  Phase 1 completed in     0.149 sec
Second Phase: sorting and transformation of aux index

IA-Transformation
Memory available                       ... 213 MB 
Max. # MO pairs treated in a batch     ... 1    
# of internal orbitals                 ... 14
# batches for internal orbitals        ... 1
Closing buffer IAV ( 0.01 GB; CompressionRatio= 1.00)
(ia|v) transformation done in     0.016 sec

  Phase 2 completed in     0.047 sec
RI-Integral transformation completed in     0.202 sec
Opening buffers                              ... done

Starting loop over batches of integrals:

Operator 0  - window                       ... ( 13- 26)x( 27-140)
Operator 0  - Memory available             ...   256 MB
Operator 0  - Memory needed per MO         ...   0.4 MB
Operator 0  - Number of orbitals per batch ... 1
Operator 0  - Number of batches            ... 1

OPERATOR  0   PASS   0:  MOs    13 ...   13 +   14 ...   14 +   15 ...   15 +   16 ...   16
                            +   17 ...   17 +   18 ...   18 +   19 ...   19 +   20 ...   20
                            +   21 ...   21 +   22 ...   22 +   23 ...   23 +   24 ...   24
                            +   25 ...   25 +   26 ...   26
  Reading integrals       ... ok
Time spent in pair loops =     0.004 sec
Deleting buffer (Ka|jb)[aa] ...done

-----------------------------------------------
 RI-MP2 CORRELATION ENERGY:     -0.695168858 Eh
-----------------------------------------------


-------
TIMINGS
-------

Total time                :    0.255 sec
Integral trafo            :    0.210 sec ( 82.5%)
I/O of integrals          :    0.000 sec (  0.1%)
K(i,j) Operators          :    0.000 sec (  0.2%)
T(i,j) pair energies      :    0.000 sec (  0.1%)
V-calculation             :    0.002 sec (  0.6%)
V**(-1/2)                 :    0.021 sec (  8.1%)
Gamma(ia|P)               :    0.000 sec (  0.0%)
Gamma-Trafo               :    0.000 sec (  0.0%)
D(virtual)                :    0.000 sec (  0.0%)
D(internal)               :    0.000 sec (  0.0%)
W(virtual)                :    0.000 sec (  0.0%)
W(internal)               :    0.000 sec (  0.0%)
L(virtual)                :    0.000 sec (  0.0%)
L(internal)               :    0.000 sec (  0.0%)
G(D)                      :    0.000 sec (  0.0%)
G(Z)                      :    0.000 sec (  0.0%)
Z-Vector Solution         :    0.000 sec (  0.0%)
3-Index Derivative        :    0.000 sec (  0.0%)
2-Index Derivative        :    0.000 sec (  0.0%)
Separable Gradient        :    0.000 sec (  0.0%)


---------------------------------------
MP2 TOTAL ENERGY:    -1034.401975448 Eh
---------------------------------------

Maximum memory used throughout the entire MP2-calculation: 85.6 MB

-------------------------   --------------------
FINAL SINGLE POINT ENERGY     -1034.401975448026
-------------------------   --------------------


                            ***************************************
                            *     ORCA property calculations      *
                            ***************************************


  WARNING: The energy has been calculated at the MP2 level but the densities
           used in the property calculations are still SCF densities
           MP2 response densities have not been calculated 
           use %mp2 Density relaxed end
           or  %mp2 Density unrelaxed end

                                    ---------------------
                                    Active property flags
                                    ---------------------
   (+) Dipole Moment


------------------------------------------------------------------------------
                       ORCA ELECTRIC PROPERTIES CALCULATION
------------------------------------------------------------------------------

Dipole Moment Calculation                       ... on
Quadrupole Moment Calculation                   ... off
Polarizability Calculation                      ... off
GBWName                                         ... DZ_3,3-dichloropropyne.gbw
Electron density                                ... DZ_3,3-dichloropropyne.scfp
The origin for moment calculation is the CENTER OF MASS  = ( 0.100224,  0.000003 -0.025327)

-------------
DIPOLE MOMENT
-------------
                                X             Y             Z
Electronic contribution:      4.70835       0.00013      -0.98882
Nuclear contribution   :     -5.41207      -0.00014       1.36767
                        -----------------------------------------
Total Dipole Moment    :     -0.70372      -0.00001       0.37884
                        -----------------------------------------
Magnitude (a.u.)       :      0.79922
Magnitude (Debye)      :      2.03146



--------------------
Rotational spectrum 
--------------------
 
Rotational constants in cm-1:     0.103075     0.099015     0.052680 
Rotational constants in MHz :  3090.099394  2968.382434  1579.299970 

 Dipole components along the rotational axes: 
x,y,z [a.u.] :    -0.708223     0.000078     0.370367 
x,y,z [Debye]:    -1.800161     0.000198     0.941398 

 

Timings for individual modules:

Sum of individual times         ...       19.978 sec (=   0.333 min)
GTO integral calculation        ...        3.785 sec (=   0.063 min)  18.9 %
SCF iterations                  ...        9.326 sec (=   0.155 min)  46.7 %
MP2 module                      ...        6.867 sec (=   0.114 min)  34.4 %
                             ****ORCA TERMINATED NORMALLY****
TOTAL RUN TIME: 0 days 0 hours 0 minutes 25 seconds 809 msec
