
                                 *****************
                                 * O   R   C   A *
                                 *****************

                                            #,                                       
                                            ###                                      
                                            ####                                     
                                            #####                                    
                                            ######                                   
                                           ########,                                 
                                     ,,################,,,,,                         
                               ,,#################################,,                 
                          ,,##########################################,,             
                       ,#########################################, ''#####,          
                    ,#############################################,,   '####,        
                  ,##################################################,,,,####,       
                ,###########''''           ''''###############################       
              ,#####''   ,,,,##########,,,,          '''####'''          '####       
            ,##' ,,,,###########################,,,                        '##       
           ' ,,###''''                  '''############,,,                           
         ,,##''                                '''############,,,,        ,,,,,,###''
      ,#''                                            '''#######################'''  
     '                                                          ''''####''''         
             ,#######,   #######,   ,#######,      ##                                
            ,#'     '#,  ##    ##  ,#'     '#,    #''#        ######   ,####,        
            ##       ##  ##   ,#'  ##            #'  '#       #        #'  '#        
            ##       ##  #######   ##           ,######,      #####,   #    #        
            '#,     ,#'  ##    ##  '#,     ,#' ,#      #,         ##   #,  ,#        
             '#######'   ##     ##  '#######'  #'      '#     #####' # '####'        



                  #######################################################
                  #                        -***-                        #
                  #          Department of theory and spectroscopy      #
                  #    Directorship and core code : Frank Neese         #
                  #        Max Planck Institute fuer Kohlenforschung    #
                  #                Kaiser Wilhelm Platz 1               #
                  #                 D-45470 Muelheim/Ruhr               #
                  #                      Germany                        #
                  #                                                     #
                  #                  All rights reserved                #
                  #                        -***-                        #
                  #######################################################


                         Program Version 5.0.3 -  RELEASE  -


 With contributions from (in alphabetic order):
   Daniel Aravena         : Magnetic Suceptibility
   Michael Atanasov       : Ab Initio Ligand Field Theory (pilot matlab implementation)
   Alexander A. Auer      : GIAO ZORA, VPT2 properties, NMR spectrum
   Ute Becker             : Parallelization
   Giovanni Bistoni       : ED, misc. LED, open-shell LED, HFLD
   Martin Brehm           : Molecular dynamics
   Dmytro Bykov           : SCF Hessian
   Vijay G. Chilkuri      : MRCI spin determinant printing, contributions to CSF-ICE
   Dipayan Datta          : RHF DLPNO-CCSD density
   Achintya Kumar Dutta   : EOM-CC, STEOM-CC
   Dmitry Ganyushin       : Spin-Orbit,Spin-Spin,Magnetic field MRCI
   Miquel Garcia          : C-PCM and meta-GGA Hessian, CC/C-PCM, Gaussian charge scheme
   Yang Guo               : DLPNO-NEVPT2, F12-NEVPT2, CIM, IAO-localization
   Andreas Hansen         : Spin unrestricted coupled pair/coupled cluster methods
   Benjamin Helmich-Paris : MC-RPA, TRAH-SCF, COSX integrals
   Lee Huntington         : MR-EOM, pCC
   Robert Izsak           : Overlap fitted RIJCOSX, COSX-SCS-MP3, EOM
   Marcus Kettner         : VPT2
   Christian Kollmar      : KDIIS, OOCD, Brueckner-CCSD(T), CCSD density, CASPT2, CASPT2-K
   Simone Kossmann        : Meta GGA functionals, TD-DFT gradient, OOMP2, MP2 Hessian
   Martin Krupicka        : Initial AUTO-CI
   Lucas Lang             : DCDCAS
   Marvin Lechner         : AUTO-CI (C++ implementation), FIC-MRCC
   Dagmar Lenk            : GEPOL surface, SMD
   Dimitrios Liakos       : Extrapolation schemes; Compound Job, initial MDCI parallelization
   Dimitrios Manganas     : Further ROCIS development; embedding schemes
   Dimitrios Pantazis     : SARC Basis sets
   Anastasios Papadopoulos: AUTO-CI, single reference methods and gradients
   Taras Petrenko         : DFT Hessian,TD-DFT gradient, ASA, ECA, R-Raman, ABS, FL, XAS/XES, NRVS
   Peter Pinski           : DLPNO-MP2, DLPNO-MP2 Gradient
   Christoph Reimann      : Effective Core Potentials
   Marius Retegan         : Local ZFS, SOC
   Christoph Riplinger    : Optimizer, TS searches, QM/MM, DLPNO-CCSD(T), (RO)-DLPNO pert. Triples
   Tobias Risthaus        : Range-separated hybrids, TD-DFT gradient, RPA, STAB
   Michael Roemelt        : Original ROCIS implementation
   Masaaki Saitow         : Open-shell DLPNO-CCSD energy and density
   Barbara Sandhoefer     : DKH picture change effects
   Avijit Sen             : IP-ROCIS
   Kantharuban Sivalingam : CASSCF convergence, NEVPT2, FIC-MRCI
   Bernardo de Souza      : ESD, SOC TD-DFT
   Georgi Stoychev        : AutoAux, RI-MP2 NMR, DLPNO-MP2 response
   Willem Van den Heuvel  : Paramagnetic NMR
   Boris Wezisla          : Elementary symmetry handling
   Frank Wennmohs         : Technical directorship


 We gratefully acknowledge several colleagues who have allowed us to
 interface, adapt or use parts of their codes:
   Stefan Grimme, W. Hujo, H. Kruse, P. Pracht,  : VdW corrections, initial TS optimization,
                  C. Bannwarth, S. Ehlert          DFT functionals, gCP, sTDA/sTD-DF
   Ed Valeev, F. Pavosevic, A. Kumar             : LibInt (2-el integral package), F12 methods
   Garnet Chan, S. Sharma, J. Yang, R. Olivares  : DMRG
   Ulf Ekstrom                                   : XCFun DFT Library
   Mihaly Kallay                                 : mrcc  (arbitrary order and MRCC methods)
   Jiri Pittner, Ondrej Demel                    : Mk-CCSD
   Frank Weinhold                                : gennbo (NPA and NBO analysis)
   Christopher J. Cramer and Donald G. Truhlar   : smd solvation model
   Lars Goerigk                                  : TD-DFT with DH, B97 family of functionals
   V. Asgeirsson, H. Jonsson                     : NEB implementation
   FAccTs GmbH                                   : IRC, NEB, NEB-TS, DLPNO-Multilevel, CI-OPT
                                                   MM, QMMM, 2- and 3-layer-ONIOM, Crystal-QMMM,
                                                   LR-CPCM, SF, NACMEs, symmetry and pop. for TD-DFT,
                                                   nearIR, NL-DFT gradient (VV10), updates on ESD,
                                                   ML-optimized integration grids
   S Lehtola, MJT Oliveira, MAL Marques          : LibXC Library
   Liviu Ungur et al                             : ANISO software


 Your calculation uses the libint2 library for the computation of 2-el integrals
 For citations please refer to: http://libint.valeyev.net

 Your ORCA version has been built with support for libXC version: 5.1.0
 For citations please refer to: https://tddft.org/programs/libxc/

 This ORCA versions uses:
   CBLAS   interface :  Fast vector & matrix operations
   LAPACKE interface :  Fast linear algebra routines
   SCALAPACK package :  Parallel linear algebra routines
   Shared memory     :  Shared parallel matrices
   BLAS/LAPACK       :  OpenBLAS 0.3.15  USE64BITINT DYNAMIC_ARCH NO_AFFINITY SkylakeX SINGLE_THREADED
        Core in use  :  SkylakeX
   Copyright (c) 2011-2014, The OpenBLAS Project


================================================================================

----- Orbital basis set information -----
Your calculation utilizes the basis: aug-cc-pVDZ 
    H, B-Ne : Obtained from the ccRepo (grant-hill.group.shef.ac.uk/ccrepo) Feb. 2017
              R. A. Kendall, T. H. Dunning, Jr., R. J. Harrison, J. Chem. Phys. 96, 6796 (1992)
         He : Obtained from the ccRepo (grant-hill.group.shef.ac.uk/ccrepo) Feb. 2017
              D. E. Woon, T. H. Dunning, Jr., J. Chem. Phys. 100, 2975 (1994)
  Li-Be, Na : Obtained from the ccRepo (grant-hill.group.shef.ac.uk/ccrepo) Feb. 2017
              B. P. Prascher, D. E. Woon, K. A. Peterson, T. H. Dunning, Jr., A. K. Wilson, Theor. Chem. Acc. 128, 69 (2011)
         Mg : Obtained from the Peterson Research Group Website (tyr0.chem.wsu.edu/~kipeters) Feb. 2017
              B. P. Prascher, D. E. Woon, K. A. Peterson, T. H. Dunning, Jr., A. K. Wilson, Theor. Chem. Acc. 128, 69 (2011)
      Al-Ar : Obtained from the ccRepo (grant-hill.group.shef.ac.uk/ccrepo) Feb. 2017
              D. E. Woon, T. H. Dunning, Jr., J. Chem. Phys. 98, 1358 (1993)
      Sc-Zn : Obtained from the ccRepo (grant-hill.group.shef.ac.uk/ccrepo) Feb. 2017
              N. B. Balabanov, K. A. Peterson, J. Chem. Phys. 123, 064107 (2005)
              N. B. Balabanov, K. A. Peterson, J. Chem. Phys. 125, 074110 (2006)
      Ga-Kr : Obtained from the ccRepo (grant-hill.group.shef.ac.uk/ccrepo) Feb. 2017
              A. K. Wilson, D. E. Woon, K. A. Peterson, T. H. Dunning, Jr., J. Chem. Phys. 110, 7667 (1999)

----- AuxC basis set information -----
Your calculation utilizes the auxiliary basis: aug-cc-pVDZ/C 
  H-He, B, Ne, Al-Ar, Ga-Ge, Se-Br : Obtained from the EMSL Basis Set Exchange (bse.pnl.gov) Feb. 2017
                                     F. Weigend, A. Kohn, C. Hattig, J. Chem. Phys. 116, 3175 (2002)
                            Be, Mg : Obtained from the TURBOMOLE 7.0 basis set library
                                     C. Haettig, Phys. Chem. Chem. Phys. 7, 59 (2005)
                               C-F : Obtained from the EMSL Basis Set Exchange (bse.pnl.gov) Feb. 2017
                                     C. Haettig, Phys. Chem. Chem. Phys. 7, 59 (2005)
                                     F. Weigend, A. Kohn, C. Hattig, J. Chem. Phys. 116, 3175 (2002)
                                As : Obtained from the EMSL Basis Set Exchange (bse.pnl.gov) Feb. 2017
                                     C. Haettig, G. Schmitz, J. Kossmann, Phys. Chem. Chem. Phys. 14, 6549 (2012)
                                Kr : Obtained from the TURBOMOLE 7.0 basis set library
                                     F. Weigend, A. Kohn, C. Hattig, J. Chem. Phys. 116, 3175 (2002)
                                     S function revised in Sep. 2009

================================================================================
                                        WARNINGS
                       Please study these warnings very carefully!
================================================================================


WARNING: No MP2 level density has been requested!
         To caclulate MP2 level properties use
         %mp2 Density relaxed end
         or
         %mp2 Density unrelaxed end

WARNING: Post HF methods need fully converged wavefunctions
  ===> : Setting SCFConvForced true
         You can overwrite this default with %scf ConvForced false 


INFO   : the flag for use of the SHARK integral package has been found!

================================================================================
                                       INPUT FILE
================================================================================
NAME = DZ_4-thioxo-1,3-thiazolidin-2-one.inp
|  1> !ri-mp2 aug-cc-pvdz aug-cc-pvdz/c tightscf
|  2> %pal nprocs 16 end
|  3> 
|  4> * xyz 0 1
|  5> S      1.535241    1.076974    0.000006
|  6> S     -2.578025   -0.232305    0.000005
|  7> O      2.214634   -1.515497   -0.000019
|  8> N     -0.028314   -1.003049   -0.000009
|  9> C     -0.279530    1.342985    0.000012
| 10> C     -0.953928   -0.011648    0.000002
| 11> C      1.338317   -0.698704   -0.000010
| 12> H     -0.577310    1.904471   -0.882290
| 13> H     -0.577306    1.904457    0.882325
| 14> H     -0.308867   -1.974111   -0.000017
| 15> *
| 16> 
| 17>                          ****END OF INPUT****
================================================================================

                       ****************************
                       * Single Point Calculation *
                       ****************************

---------------------------------
CARTESIAN COORDINATES (ANGSTROEM)
---------------------------------
  S      1.535241    1.076974    0.000006
  S     -2.578025   -0.232305    0.000005
  O      2.214634   -1.515497   -0.000019
  N     -0.028314   -1.003049   -0.000009
  C     -0.279530    1.342985    0.000012
  C     -0.953928   -0.011648    0.000002
  C      1.338317   -0.698704   -0.000010
  H     -0.577310    1.904471   -0.882290
  H     -0.577306    1.904457    0.882325
  H     -0.308867   -1.974111   -0.000017

----------------------------
CARTESIAN COORDINATES (A.U.)
----------------------------
  NO LB      ZA    FRAG     MASS         X           Y           Z
   0 S    16.0000    0    32.060    2.901185    2.035186    0.000011
   1 S    16.0000    0    32.060   -4.871761   -0.438993    0.000009
   2 O     8.0000    0    15.999    4.185052   -2.863874   -0.000036
   3 N     7.0000    0    14.007   -0.053506   -1.895488   -0.000017
   4 C     6.0000    0    12.011   -0.528235    2.537874    0.000023
   5 C     6.0000    0    12.011   -1.802663   -0.022012    0.000004
   6 C     6.0000    0    12.011    2.529053   -1.320359   -0.000019
   7 H     1.0000    0     1.008   -1.090958    3.598929   -1.667286
   8 H     1.0000    0     1.008   -1.090950    3.598902    1.667353
   9 H     1.0000    0     1.008   -0.583674   -3.730529   -0.000032

--------------------------------
INTERNAL COORDINATES (ANGSTROEM)
--------------------------------
 S      0   0   0     0.000000000000     0.00000000     0.00000000
 S      1   0   0     4.316615420280     0.00000000     0.00000000
 O      1   2   0     2.680015062442    87.02831706     0.00000000
 N      3   1   2     2.300743072033    62.44555670     0.00000000
 C      1   2   3     1.834163469977    25.99569530   179.99992035
 C      4   3   1     1.356332267521   145.90404737     0.00000000
 C      3   1   2     1.197949201519    32.32857163     0.00000000
 H      5   1   2     1.087380465063   110.23319653   239.85626349
 H      5   1   2     1.087381066107   110.23317274   120.14368046
 H      4   3   1     1.010777618330    93.24520491   180.00000468

---------------------------
INTERNAL COORDINATES (A.U.)
---------------------------
 S      0   0   0     0.000000000000     0.00000000     0.00000000
 S      1   0   0     8.157220969790     0.00000000     0.00000000
 O      1   2   0     5.064494502799    87.02831706     0.00000000
 N      3   1   2     4.347774310659    62.44555670     0.00000000
 C      1   2   3     3.466066643099    25.99569530   179.99992035
 C      4   3   1     2.563096532215   145.90404737     0.00000000
 C      3   1   2     2.263795913220    32.32857163     0.00000000
 H      5   1   2     2.054851282344   110.23319653   239.85626349
 H      5   1   2     2.054852418154   110.23317274   120.14368046
 H      4   3   1     1.910092880941    93.24520491   180.00000468

---------------------
BASIS SET INFORMATION
---------------------
There are 5 groups of distinct atoms

 Group   1 Type S   : 35s16p2d contracted to 5s4p2d pattern {11111111/7711/11}
 Group   2 Type O   : 18s5p2d contracted to 4s3p2d pattern {8811/311/11}
 Group   3 Type N   : 18s5p2d contracted to 4s3p2d pattern {8811/311/11}
 Group   4 Type C   : 18s5p2d contracted to 4s3p2d pattern {8811/311/11}
 Group   5 Type H   : 5s2p contracted to 3s2p pattern {311/11}

Atom   0S    basis set group =>   1
Atom   1S    basis set group =>   1
Atom   2O    basis set group =>   2
Atom   3N    basis set group =>   3
Atom   4C    basis set group =>   4
Atom   5C    basis set group =>   4
Atom   6C    basis set group =>   4
Atom   7H    basis set group =>   5
Atom   8H    basis set group =>   5
Atom   9H    basis set group =>   5
---------------------------------
AUXILIARY/C BASIS SET INFORMATION
---------------------------------
There are 5 groups of distinct atoms

 Group   1 Type S   : 10s8p6d4f contracted to 10s8p6d4f pattern {1111111111/11111111/111111/1111}
 Group   2 Type O   : 8s6p5d3f contracted to 8s6p5d3f pattern {11111111/111111/11111/111}
 Group   3 Type N   : 8s6p5d3f contracted to 8s6p5d3f pattern {11111111/111111/11111/111}
 Group   4 Type C   : 8s6p5d3f contracted to 8s6p5d3f pattern {11111111/111111/11111/111}
 Group   5 Type H   : 4s3p2d contracted to 4s3p2d pattern {1111/111/11}

Atom   0S    basis set group =>   1
Atom   1S    basis set group =>   1
Atom   2O    basis set group =>   2
Atom   3N    basis set group =>   3
Atom   4C    basis set group =>   4
Atom   5C    basis set group =>   4
Atom   6C    basis set group =>   4
Atom   7H    basis set group =>   5
Atom   8H    basis set group =>   5
Atom   9H    basis set group =>   5


           ************************************************************
           *        Program running with 16 parallel MPI-processes    *
           *              working on a common directory               *
           ************************************************************
------------------------------------------------------------------------------
                           ORCA GTO INTEGRAL CALCULATION
------------------------------------------------------------------------------
------------------------------------------------------------------------------
                   ___                                                        
                  /   \      - P O W E R E D   B Y -                         
                 /     \                                                     
                 |  |  |   _    _      __       _____    __    __             
                 |  |  |  | |  | |    /  \     |  _  \  |  |  /  |          
                  \  \/   | |  | |   /    \    | | | |  |  | /  /          
                 / \  \   | |__| |  /  /\  \   | |_| |  |  |/  /          
                |  |  |   |  __  | /  /__\  \  |    /   |      \           
                |  |  |   | |  | | |   __   |  |    \   |  |\   \          
                \     /   | |  | | |  |  |  |  | |\  \  |  | \   \       
                 \___/    |_|  |_| |__|  |__|  |_| \__\ |__|  \__/        
                                                                              
                      - O R C A' S   B I G   F R I E N D -                    
                                      &                                       
                       - I N T E G R A L  F E E D E R -                       
                                                                              
 v1 FN, 2020, v2 2021                                                         
------------------------------------------------------------------------------


Reading SHARK input file DZ_4-thioxo-1,3-thiazolidin-2-one.SHARKINP.tmp ... ok
----------------------
SHARK INTEGRAL PACKAGE
----------------------

Number of atoms                             ...     10
Number of basis functions                   ...    272
Number of shells                            ...    138
Maximum angular momentum                    ...      2
Integral batch strategy                     ... SHARK/LIBINT Hybrid
RI-J (if used) integral strategy            ... SPLIT-RIJ (Revised 2003 algorithm where possible)
Printlevel                                  ...      1
Contraction scheme used                     ... PARTIAL GENERAL contraction
Coulomb Range Separation                    ... NOT USED
Exchange Range Separation                   ... NOT USED
Finite Nucleus Model                        ... NOT USED
Auxiliary Coulomb fitting basis             ... NOT available
Auxiliary J/K fitting basis                 ... NOT available
Auxiliary Correlation fitting basis         ... AVAILABLE
   # of basis functions in Aux-C            ...    613
   # of shells in Aux-C                     ...    193
   Maximum angular momentum in Aux-C        ...      3
Auxiliary 'external' fitting basis          ... NOT available
Integral threshold                          ...     2.500000e-11
Primitive cut-off                           ...     2.500000e-12
Primitive pair pre-selection threshold      ...     2.500000e-12

Calculating pre-screening integrals         ... done (  0.0 sec) Dimension = 138
Calculating pre-screening integrals (ORCA)  ... done (  0.1 sec) Dimension = 82
Organizing shell pair data                  ... done (  0.1 sec)
Shell pair information
Total number of shell pairs                 ...      9591
Shell pairs after pre-screening             ...      7479
Total number of primitive shell pairs       ...     11959
Primitive shell pairs kept                  ...      8920
          la=0 lb=0:   2338 shell pairs
          la=1 lb=0:   2674 shell pairs
          la=1 lb=1:    720 shell pairs
          la=2 lb=0:   1119 shell pairs
          la=2 lb=1:    523 shell pairs
          la=2 lb=2:    105 shell pairs

Calculating one electron integrals          ... done (  0.0 sec)
Calculating RI/C V-Matrix + Cholesky decomp.... done (  0.0 sec)
Calculating Nuclear repulsion               ... done (  0.0 sec) ENN=    412.545503656445 Eh

SHARK setup successfully completed in   0.4 seconds

Maximum memory used throughout the entire GTOINT-calculation: 30.5 MB


           ************************************************************
           *        Program running with 16 parallel MPI-processes    *
           *              working on a common directory               *
           ************************************************************
-------------------------------------------------------------------------------
                                 ORCA SCF
-------------------------------------------------------------------------------

------------
SCF SETTINGS
------------
Hamiltonian:
 Ab initio Hamiltonian  Method          .... Hartree-Fock(GTOs)


General Settings:
 Integral files         IntName         .... DZ_4-thioxo-1,3-thiazolidin-2-one
 Hartree-Fock type      HFTyp           .... RHF
 Total Charge           Charge          ....    0
 Multiplicity           Mult            ....    1
 Number of Electrons    NEL             ....   68
 Basis Dimension        Dim             ....  196
 Nuclear Repulsion      ENuc            ....    412.5455036564 Eh

Convergence Acceleration:
 DIIS                   CNVDIIS         .... on
   Start iteration      DIISMaxIt       ....    12
   Startup error        DIISStart       ....  0.200000
   # of expansion vecs  DIISMaxEq       ....     5
   Bias factor          DIISBfac        ....   1.050
   Max. coefficient     DIISMaxC        ....  10.000
 Trust-Rad. Augm. Hess. CNVTRAH         .... auto
   Auto Start mean grad. ratio tolernc. ....  1.125000
   Auto Start start iteration           ....    20
   Auto Start num. interpolation iter.  ....    10
   Max. Number of Micro iterations      ....    16
   Max. Number of Macro iterations      .... Maxiter - #DIIS iter
   Number of Davidson start vectors     ....     2
   Converg. threshold I  (grad. norm)   ....   1.000e-05
   Converg. threshold II (energy diff.) ....   1.000e-08
   Grad. Scal. Fac. for Micro threshold ....   0.100
   Minimum threshold for Micro iter.    ....   0.010
   NR start threshold (gradient norm)   ....   0.001
   Initial trust radius                 ....   0.400
   Minimum AH scaling param. (alpha)    ....   1.000
   Maximum AH scaling param. (alpha)    .... 1000.000
   Orbital update algorithm             .... Taylor
   White noise on init. David. guess    .... on
   Maximum white noise                  ....   0.010
   Quad. conv. algorithm                .... NR
 SOSCF                  CNVSOSCF        .... on
   Start iteration      SOSCFMaxIt      ....   150
   Startup grad/error   SOSCFStart      ....  0.003300
 Level Shifting         CNVShift        .... on
   Level shift para.    LevelShift      ....    0.2500
   Turn off err/grad.   ShiftErr        ....    0.0010
 Zerner damping         CNVZerner       .... off
 Static damping         CNVDamp         .... on
   Fraction old density DampFac         ....    0.7000
   Max. Damping (<1)    DampMax         ....    0.9800
   Min. Damping (>=0)   DampMin         ....    0.0000
   Turn off err/grad.   DampErr         ....    0.1000
 Fernandez-Rico         CNVRico         .... off

SCF Procedure:
 Maximum # iterations   MaxIter         ....   125
 SCF integral mode      SCFMode         .... Direct
   Integral package                     .... SHARK and LIBINT hybrid scheme
 Reset frequency        DirectResetFreq ....    20
 Integral Threshold     Thresh          ....  2.500e-11 Eh
 Primitive CutOff       TCut            ....  2.500e-12 Eh

Convergence Tolerance:
 Convergence Check Mode ConvCheckMode   .... Total+1el-Energy
 Convergence forced     ConvForced      .... 1
 Energy Change          TolE            ....  1.000e-08 Eh
 1-El. energy change                    ....  1.000e-05 Eh
 Orbital Gradient       TolG            ....  1.000e-05
 Orbital Rotation angle TolX            ....  1.000e-05
 DIIS Error             TolErr          ....  5.000e-07


Diagonalization of the overlap matrix:
Smallest eigenvalue                        ... 4.854e-05
Time for diagonalization                   ...    0.006 sec
Threshold for overlap eigenvalues          ... 1.000e-08
Number of eigenvalues below threshold      ... 0
Time for construction of square roots      ...    0.005 sec
Total time needed                          ...    0.012 sec

Time for model grid setup =    0.056 sec

------------------------------
INITIAL GUESS: MODEL POTENTIAL
------------------------------
Loading Hartree-Fock densities                     ... done
Calculating cut-offs                               ... done
Initializing the effective Hamiltonian             ... done
Setting up the integral package (SHARK)            ... done
Starting the Coulomb interaction                   ... done (   0.0 sec)
Reading the grid                                   ... done
Mapping shells                                     ... done
Starting the XC term evaluation                    ... done (   0.0 sec)
Transforming the Hamiltonian                       ... done (   0.0 sec)
Diagonalizing the Hamiltonian                      ... done (   0.0 sec)
Back transforming the eigenvectors                 ... done (   0.0 sec)
Now organizing SCF variables                       ... done
                      ------------------
                      INITIAL GUESS DONE (   0.1 sec)
                      ------------------
--------------
SCF ITERATIONS
--------------
ITER       Energy         Delta-E        Max-DP      RMS-DP      [F,P]     Damp
               ***  Starting incremental Fock matrix formation  ***
  0  -1039.5689066988   0.000000000000 0.12801325  0.00329247  0.2641032 0.7000
  1  -1039.6415129869  -0.072606288042 0.09975402  0.00251278  0.1561166 0.7000
                               ***Turning on DIIS***
  2  -1039.6848828154  -0.043369828541 0.23922806  0.00598528  0.0841533 0.0000
  3  -1039.4114814746   0.273401340855 0.03280404  0.00080997  0.0562548 0.0000
  4  -1039.8308700950  -0.419388620385 0.01398223  0.00038595  0.0114391 0.0000
  5  -1039.7803241839   0.050545911053 0.00469009  0.00017742  0.0061349 0.0000
                      *** Initiating the SOSCF procedure ***
                           *** Shutting down DIIS ***
                      *** Re-Reading the Fockian *** 
                      *** Removing any level shift *** 
ITER      Energy       Delta-E        Grad      Rot      Max-DP    RMS-DP
  6  -1039.76967563   0.0106485563  0.002261  0.002261  0.004104  0.000115
               *** Restarting incremental Fock matrix formation ***
  7  -1039.78218280  -0.0125071707  0.001009  0.002147  0.001617  0.000051
  8  -1039.78221213  -0.0000293292  0.000395  0.002276  0.003106  0.000076
  9  -1039.78222294  -0.0000108158  0.000185  0.000295  0.000485  0.000015
 10  -1039.78222443  -0.0000014833  0.000055  0.000091  0.000170  0.000004
 11  -1039.78222454  -0.0000001129  0.000023  0.000046  0.000104  0.000002
 12  -1039.78222457  -0.0000000284  0.000010  0.000034  0.000047  0.000001
                 **** Energy Check signals convergence ****
              ***Rediagonalizing the Fockian in SOSCF/NRSCF***

               *****************************************************
               *                     SUCCESS                       *
               *           SCF CONVERGED AFTER  13 CYCLES          *
               *****************************************************


----------------
TOTAL SCF ENERGY
----------------

Total Energy       :        -1039.78222457 Eh          -28293.91277 eV

Components:
Nuclear Repulsion  :          412.54550366 Eh           11225.93387 eV
Electronic Energy  :        -1452.32772823 Eh          -39519.84664 eV
One Electron Energy:        -2251.78218126 Eh          -61274.10827 eV
Two Electron Energy:          799.45445304 Eh           21754.26163 eV

Virial components:
Potential Energy   :        -2079.18731474 Eh          -56577.56318 eV
Kinetic Energy     :         1039.40509016 Eh           28283.65042 eV
Virial Ratio       :            2.00036284


---------------
SCF CONVERGENCE
---------------

  Last Energy change         ...   -4.2596e-09  Tolerance :   1.0000e-08
  Last MAX-Density change    ...    9.5327e-06  Tolerance :   1.0000e-07
  Last RMS-Density change    ...    3.1663e-07  Tolerance :   5.0000e-09
  Last Orbital Gradient      ...    2.4324e-06  Tolerance :   1.0000e-05
  Last Orbital Rotation      ...    8.3308e-06  Tolerance :   1.0000e-05

             **** THE GBW FILE WAS UPDATED (DZ_4-thioxo-1,3-thiazolidin-2-one.gbw) ****
             **** DENSITY DZ_4-thioxo-1,3-thiazolidin-2-one.scfp WAS UPDATED ****
             **** ENERGY FILE WAS UPDATED (DZ_4-thioxo-1,3-thiazolidin-2-one.en.tmp) ****
             **** THE GBW FILE WAS UPDATED (DZ_4-thioxo-1,3-thiazolidin-2-one.gbw) ****
             **** DENSITY DZ_4-thioxo-1,3-thiazolidin-2-one.scfp WAS UPDATED ****
----------------
ORBITAL ENERGIES
----------------

  NO   OCC          E(Eh)            E(eV) 
   0   2.0000     -92.010766     -2503.7402 
   1   2.0000     -91.943463     -2501.9088 
   2   2.0000     -20.592912      -560.3616 
   3   2.0000     -15.668382      -426.3584 
   4   2.0000     -11.435209      -311.1678 
   5   2.0000     -11.400034      -310.2107 
   6   2.0000     -11.322913      -308.1121 
   7   2.0000      -9.013410      -245.2674 
   8   2.0000      -8.946788      -243.4545 
   9   2.0000      -6.694930      -182.1783 
  10   2.0000      -6.693850      -182.1489 
  11   2.0000      -6.691605      -182.0878 
  12   2.0000      -6.629011      -180.3845 
  13   2.0000      -6.626484      -180.3158 
  14   2.0000      -6.625064      -180.2772 
  15   2.0000      -1.454416       -39.5767 
  16   2.0000      -1.336465       -36.3671 
  17   2.0000      -1.116187       -30.3730 
  18   2.0000      -1.071588       -29.1594 
  19   2.0000      -0.939076       -25.5535 
  20   2.0000      -0.863405       -23.4945 
  21   2.0000      -0.842477       -22.9250 
  22   2.0000      -0.711721       -19.3669 
  23   2.0000      -0.683609       -18.6020 
  24   2.0000      -0.649006       -17.6603 
  25   2.0000      -0.635215       -17.2851 
  26   2.0000      -0.619530       -16.8583 
  27   2.0000      -0.571920       -15.5627 
  28   2.0000      -0.525249       -14.2927 
  29   2.0000      -0.511922       -13.9301 
  30   2.0000      -0.467904       -12.7323 
  31   2.0000      -0.411909       -11.2086 
  32   2.0000      -0.370200       -10.0737 
  33   2.0000      -0.360024        -9.7967 
  34   0.0000       0.030596         0.8326 
  35   0.0000       0.042665         1.1610 
  36   0.0000       0.047636         1.2962 
  37   0.0000       0.058698         1.5973 
  38   0.0000       0.067070         1.8251 
  39   0.0000       0.078619         2.1393 
  40   0.0000       0.084853         2.3090 
  41   0.0000       0.100119         2.7244 
  42   0.0000       0.103283         2.8105 
  43   0.0000       0.118055         3.2124 
  44   0.0000       0.129594         3.5264 
  45   0.0000       0.131546         3.5796 
  46   0.0000       0.140514         3.8236 
  47   0.0000       0.140991         3.8366 
  48   0.0000       0.146291         3.9808 
  49   0.0000       0.161519         4.3952 
  50   0.0000       0.166875         4.5409 
  51   0.0000       0.169871         4.6224 
  52   0.0000       0.173511         4.7215 
  53   0.0000       0.180091         4.9005 
  54   0.0000       0.185786         5.0555 
  55   0.0000       0.186045         5.0625 
  56   0.0000       0.199742         5.4353 
  57   0.0000       0.221293         6.0217 
  58   0.0000       0.234461         6.3800 
  59   0.0000       0.241027         6.5587 
  60   0.0000       0.253820         6.9068 
  61   0.0000       0.269170         7.3245 
  62   0.0000       0.274196         7.4613 
  63   0.0000       0.283383         7.7112 
  64   0.0000       0.291603         7.9349 
  65   0.0000       0.312370         8.5000 
  66   0.0000       0.316694         8.6177 
  67   0.0000       0.324874         8.8403 
  68   0.0000       0.336022         9.1436 
  69   0.0000       0.345504         9.4017 
  70   0.0000       0.356977         9.7138 
  71   0.0000       0.364828         9.9275 
  72   0.0000       0.368141        10.0176 
  73   0.0000       0.382263        10.4019 
  74   0.0000       0.417820        11.3695 
  75   0.0000       0.419077        11.4037 
  76   0.0000       0.421453        11.4683 
  77   0.0000       0.437601        11.9077 
  78   0.0000       0.441523        12.0145 
  79   0.0000       0.459052        12.4914 
  80   0.0000       0.481889        13.1129 
  81   0.0000       0.498372        13.5614 
  82   0.0000       0.508816        13.8456 
  83   0.0000       0.514542        14.0014 
  84   0.0000       0.528491        14.3810 
  85   0.0000       0.532761        14.4972 
  86   0.0000       0.534966        14.5572 
  87   0.0000       0.546640        14.8748 
  88   0.0000       0.570368        15.5205 
  89   0.0000       0.586395        15.9566 
  90   0.0000       0.597984        16.2720 
  91   0.0000       0.611275        16.6336 
  92   0.0000       0.638613        17.3775 
  93   0.0000       0.641290        17.4504 
  94   0.0000       0.670125        18.2350 
  95   0.0000       0.672333        18.2951 
  96   0.0000       0.679024        18.4772 
  97   0.0000       0.688515        18.7355 
  98   0.0000       0.691369        18.8131 
  99   0.0000       0.703713        19.1490 
 100   0.0000       0.715690        19.4749 
 101   0.0000       0.731385        19.9020 
 102   0.0000       0.732033        19.9196 
 103   0.0000       0.753828        20.5127 
 104   0.0000       0.782144        21.2832 
 105   0.0000       0.806466        21.9451 
 106   0.0000       0.818106        22.2618 
 107   0.0000       0.824653        22.4399 
 108   0.0000       0.837579        22.7917 
 109   0.0000       0.869730        23.6665 
 110   0.0000       0.894067        24.3288 
 111   0.0000       0.900071        24.4922 
 112   0.0000       0.913170        24.8486 
 113   0.0000       0.924928        25.1686 
 114   0.0000       0.930217        25.3125 
 115   0.0000       0.956506        26.0279 
 116   0.0000       0.988462        26.8974 
 117   0.0000       1.000929        27.2367 
 118   0.0000       1.014048        27.5936 
 119   0.0000       1.021105        27.7857 
 120   0.0000       1.049325        28.5536 
 121   0.0000       1.053189        28.6587 
 122   0.0000       1.059489        28.8302 
 123   0.0000       1.083718        29.4895 
 124   0.0000       1.094509        29.7831 
 125   0.0000       1.124709        30.6049 
 126   0.0000       1.131426        30.7877 
 127   0.0000       1.149475        31.2788 
 128   0.0000       1.184731        32.2382 
 129   0.0000       1.203502        32.7489 
 130   0.0000       1.205058        32.7913 
 131   0.0000       1.245031        33.8790 
 132   0.0000       1.247522        33.9468 
 133   0.0000       1.268545        34.5189 
 134   0.0000       1.276378        34.7320 
 135   0.0000       1.293154        35.1885 
 136   0.0000       1.297904        35.3178 
 137   0.0000       1.321647        35.9638 
 138   0.0000       1.331423        36.2299 
 139   0.0000       1.335112        36.3302 
 140   0.0000       1.352343        36.7991 
 141   0.0000       1.392527        37.8926 
 142   0.0000       1.418968        38.6121 
 143   0.0000       1.427935        38.8561 
 144   0.0000       1.445926        39.3456 
 145   0.0000       1.499117        40.7931 
 146   0.0000       1.578192        42.9448 
 147   0.0000       1.598516        43.4978 
 148   0.0000       1.599258        43.5180 
 149   0.0000       1.641365        44.6638 
 150   0.0000       1.741284        47.3828 
 151   0.0000       1.747249        47.5451 
 152   0.0000       1.774405        48.2840 
 153   0.0000       1.795826        48.8669 
 154   0.0000       1.841364        50.1061 
 155   0.0000       1.844701        50.1969 
 156   0.0000       1.859771        50.6069 
 157   0.0000       1.884923        51.2914 
 158   0.0000       1.904842        51.8334 
 159   0.0000       1.947203        52.9861 
 160   0.0000       1.973804        53.7099 
 161   0.0000       2.007525        54.6275 
 162   0.0000       2.014941        54.8293 
 163   0.0000       2.056521        55.9608 
 164   0.0000       2.123453        57.7821 
 165   0.0000       2.182059        59.3769 
 166   0.0000       2.192332        59.6564 
 167   0.0000       2.241140        60.9845 
 168   0.0000       2.252293        61.2880 
 169   0.0000       2.260565        61.5131 
 170   0.0000       2.269684        61.7612 
 171   0.0000       2.332838        63.4797 
 172   0.0000       2.365608        64.3715 
 173   0.0000       2.441996        66.4501 
 174   0.0000       2.448196        66.6188 
 175   0.0000       2.455982        66.8307 
 176   0.0000       2.500302        68.0367 
 177   0.0000       2.610479        71.0347 
 178   0.0000       2.648779        72.0769 
 179   0.0000       2.702926        73.5504 
 180   0.0000       2.726419        74.1896 
 181   0.0000       2.777189        75.5712 
 182   0.0000       2.803837        76.2963 
 183   0.0000       2.905111        79.0521 
 184   0.0000       2.957725        80.4838 
 185   0.0000       2.975383        80.9643 
 186   0.0000       3.102540        84.4244 
 187   0.0000       3.155859        85.8753 
 188   0.0000       3.223885        87.7264 
 189   0.0000       3.352612        91.2292 
 190   0.0000       3.618325        98.4596 
 191   0.0000       3.710599       100.9705 
 192   0.0000       3.760459       102.3273 
 193   0.0000       3.785591       103.0112 
 194   0.0000       3.934507       107.0634 
 195   0.0000       4.115892       111.9991 

                    ********************************
                    * MULLIKEN POPULATION ANALYSIS *
                    ********************************

-----------------------
MULLIKEN ATOMIC CHARGES
-----------------------
   0 S :    0.672931
   1 S :    0.031758
   2 O :   -0.642931
   3 N :   -0.521538
   4 C :   -0.294230
   5 C :    0.212393
   6 C :    0.430010
   7 H :    0.091898
   8 H :    0.091899
   9 H :   -0.072190
Sum of atomic charges:    0.0000000

--------------------------------
MULLIKEN REDUCED ORBITAL CHARGES
--------------------------------
  0 S s       :     5.658793  s :     5.658793
      pz      :     3.823703  p :     9.626854
      px      :     2.960012
      py      :     2.843139
      dz2     :     0.010429  d :     0.041423
      dxz     :    -0.004108
      dyz     :     0.004035
      dx2y2   :     0.029474
      dxy     :     0.001593
  1 S s       :     5.915646  s :     5.915646
      pz      :     3.384803  p :    10.019978
      px      :     2.855435
      py      :     3.779740
      dz2     :     0.006953  d :     0.032619
      dxz     :     0.009052
      dyz     :    -0.000370
      dx2y2   :     0.020897
      dxy     :    -0.003913
  2 O s       :     4.004073  s :     4.004073
      pz      :     1.499013  p :     4.590129
      px      :     1.527244
      py      :     1.563871
      dz2     :     0.001183  d :     0.048729
      dxz     :     0.014132
      dyz     :     0.009700
      dx2y2   :     0.014808
      dxy     :     0.008906
  3 N s       :     3.556874  s :     3.556874
      pz      :     1.689772  p :     3.905349
      px      :     1.127347
      py      :     1.088231
      dz2     :    -0.004612  d :     0.059314
      dxz     :     0.016563
      dyz     :     0.015103
      dx2y2   :     0.012562
      dxy     :     0.019699
  4 C s       :     2.935297  s :     2.935297
      pz      :     1.084283  p :     3.309114
      px      :     1.026104
      py      :     1.198726
      dz2     :    -0.007718  d :     0.049819
      dxz     :     0.018438
      dyz     :     0.018646
      dx2y2   :     0.003407
      dxy     :     0.017046
  5 C s       :     3.127428  s :     3.127428
      pz      :     0.696939  p :     2.420381
      px      :     0.797957
      py      :     0.925485
      dz2     :    -0.010243  d :     0.239798
      dxz     :     0.055003
      dyz     :     0.033882
      dx2y2   :     0.028480
      dxy     :     0.132675
  6 C s       :     3.344268  s :     3.344268
      pz      :     0.628377  p :     2.086566
      px      :     0.762481
      py      :     0.695709
      dz2     :     0.001030  d :     0.139155
      dxz     :     0.033387
      dyz     :     0.051232
      dx2y2   :     0.102640
      dxy     :    -0.049134
  7 H s       :     0.926972  s :     0.926972
      pz      :    -0.005153  p :    -0.018870
      px      :    -0.008571
      py      :    -0.005146
  8 H s       :     0.926971  s :     0.926971
      pz      :    -0.005153  p :    -0.018870
      px      :    -0.008571
      py      :    -0.005146
  9 H s       :     1.010316  s :     1.010316
      pz      :     0.019950  p :     0.061873
      px      :     0.002836
      py      :     0.039087


                     *******************************
                     * LOEWDIN POPULATION ANALYSIS *
                     *******************************

----------------------
LOEWDIN ATOMIC CHARGES
----------------------
   0 S :    0.931995
   1 S :    0.596278
   2 O :    0.011632
   3 N :    0.029999
   4 C :   -0.252799
   5 C :   -0.742952
   6 C :   -0.570360
   7 H :   -0.019578
   8 H :   -0.019578
   9 H :    0.035363

-------------------------------
LOEWDIN REDUCED ORBITAL CHARGES
-------------------------------
  0 S s       :     5.132280  s :     5.132280
      pz      :     3.515735  p :     9.569277
      px      :     3.071115
      py      :     2.982428
      dz2     :     0.049029  d :     0.366448
      dxz     :     0.052884
      dyz     :     0.032573
      dx2y2   :     0.153769
      dxy     :     0.078194
  1 S s       :     5.304196  s :     5.304196
      pz      :     3.248509  p :     9.888994
      px      :     3.070928
      py      :     3.569557
      dz2     :     0.028698  d :     0.210531
      dxz     :     0.034722
      dyz     :     0.000728
      dx2y2   :     0.087878
      dxy     :     0.058505
  2 O s       :     3.389754  s :     3.389754
      pz      :     1.346839  p :     4.418784
      px      :     1.521548
      py      :     1.550397
      dz2     :     0.020409  d :     0.179830
      dxz     :     0.019401
      dyz     :     0.016244
      dx2y2   :     0.059278
      dxy     :     0.064498
  3 N s       :     2.827414  s :     2.827414
      pz      :     1.309080  p :     3.580718
      px      :     1.157914
      py      :     1.113723
      dz2     :     0.056381  d :     0.561870
      dxz     :     0.074568
      dyz     :     0.027171
      dx2y2   :     0.220700
      dxy     :     0.183049
  4 C s       :     2.637980  s :     2.637980
      pz      :     0.995268  p :     2.844442
      px      :     0.904962
      py      :     0.944211
      dz2     :     0.106449  d :     0.770377
      dxz     :     0.171446
      dyz     :     0.119410
      dx2y2   :     0.210542
      dxy     :     0.162530
  5 C s       :     2.665867  s :     2.665867
      pz      :     0.607457  p :     2.651423
      px      :     1.085394
      py      :     0.958572
      dz2     :     0.107316  d :     1.425662
      dxz     :     0.312804
      dyz     :     0.157015
      dx2y2   :     0.379414
      dxy     :     0.469113
  6 C s       :     2.617770  s :     2.617770
      pz      :     0.611906  p :     2.475253
      px      :     0.906380
      py      :     0.956967
      dz2     :     0.119981  d :     1.477336
      dxz     :     0.230643
      dyz     :     0.239760
      dx2y2   :     0.528518
      dxy     :     0.358435
  7 H s       :     0.737708  s :     0.737708
      pz      :     0.121787  p :     0.281870
      px      :     0.076099
      py      :     0.083984
  8 H s       :     0.737708  s :     0.737708
      pz      :     0.121788  p :     0.281870
      px      :     0.076099
      py      :     0.083983
  9 H s       :     0.635079  s :     0.635079
      pz      :     0.093162  p :     0.329558
      px      :     0.077197
      py      :     0.159200


                      *****************************
                      * MAYER POPULATION ANALYSIS *
                      *****************************

  NA   - Mulliken gross atomic population
  ZA   - Total nuclear charge
  QA   - Mulliken gross atomic charge
  VA   - Mayer's total valence
  BVA  - Mayer's bonded valence
  FA   - Mayer's free valence

  ATOM       NA         ZA         QA         VA         BVA        FA
  0 S     15.3271    16.0000     0.6729     1.7729     1.7729    -0.0000
  1 S     15.9682    16.0000     0.0318     1.8880     1.8880     0.0000
  2 O      8.6429     8.0000    -0.6429     1.5197     1.5197     0.0000
  3 N      7.5215     7.0000    -0.5215     2.9877     2.9877     0.0000
  4 C      6.2942     6.0000    -0.2942     4.2590     4.2590     0.0000
  5 C      5.7876     6.0000     0.2124     3.6645     3.6645     0.0000
  6 C      5.5700     6.0000     0.4300     3.3823     3.3823     0.0000
  7 H      0.9081     1.0000     0.0919     0.8197     0.8197    -0.0000
  8 H      0.9081     1.0000     0.0919     0.8197     0.8197     0.0000
  9 H      1.0722     1.0000    -0.0722     1.0028     1.0028     0.0000

  Mayer bond orders larger than 0.100000
B(  0-S ,  4-C ) :   1.0315 B(  0-S ,  6-C ) :   1.0156 B(  1-S ,  5-C ) :   1.8456 
B(  2-O ,  6-C ) :   1.5051 B(  3-N ,  5-C ) :   0.8216 B(  3-N ,  6-C ) :   1.0062 
B(  3-N ,  9-H ) :   1.2493 B(  4-C ,  5-C ) :   1.1846 B(  4-C ,  6-C ) :   0.1015 
B(  4-C ,  7-H ) :   0.9227 B(  4-C ,  8-H ) :   0.9227 B(  5-C ,  6-C ) :  -0.1378 
B(  5-C ,  9-H ) :  -0.1383 B(  6-C ,  9-H ) :  -0.1034 

-------
TIMINGS
-------

Total SCF time: 0 days 0 hours 0 min 14 sec 

Total time                  ....      14.724 sec
Sum of individual times     ....      14.381 sec  ( 97.7%)

Fock matrix formation       ....      14.007 sec  ( 95.1%)
Diagonalization             ....       0.090 sec  (  0.6%)
Density matrix formation    ....       0.006 sec  (  0.0%)
Population analysis         ....       0.031 sec  (  0.2%)
Initial guess               ....       0.068 sec  (  0.5%)
Orbital Transformation      ....       0.000 sec  (  0.0%)
Orbital Orthonormalization  ....       0.000 sec  (  0.0%)
DIIS solution               ....       0.064 sec  (  0.4%)
SOSCF solution              ....       0.059 sec  (  0.4%)

Maximum memory used throughout the entire SCF-calculation: 231.8 MB


           ************************************************************
           *        Program running with 16 parallel MPI-processes    *
           *              working on a common directory               *
           ************************************************************

------------------------------------------------------------------------------
                                ORCA  MP2 
------------------------------------------------------------------------------

Freezing NCore=30 chemical core electrons

-------------
RI-MP2 ENERGY
-------------
Dimension of the basis                    ...  196
Memory devoted to MP2                     ...  256 MB   
Data format for buffers                   ... DOUBLE
Compression type for matrix containers    ... UNCOMPRESSED
Overall scaling of the MP2 energy         ...   1.000e+00
Calculating two index integrals           ... done (    0.003 sec)
Cholesky decomposition of V**-1           ... done (    0.034 sec)

-----------------
RI-TRANSFORMATION (AUX index driven)
-----------------

Dimension of the orbital-basis         ... 196
Dimension of the aux-basis             ... 613
Transformation of internal/external MOs...   15-  33 to   34- 195
Number Format for Storage              ... Double (8 Byte)
Integral mode                          ... Direct

First Phase: integral generation and transformation of MO indices
  Aux angular momentum 0               ... done (    0.012 sec)
  Aux angular momentum 1               ... done (    0.014 sec)
  Aux angular momentum 2               ... done (    0.016 sec)
  Aux angular momentum 3               ... done (    0.014 sec)
Closing buffer VIA ( 0.01 GB; CompressionRatio= 1.00)
  Phase 1 completed in     0.175 sec
Second Phase: sorting and transformation of aux index

IA-Transformation
Memory available                       ... 210 MB 
Max. # MO pairs treated in a batch     ... 2    
# of internal orbitals                 ... 19
# batches for internal orbitals        ... 1
Closing buffer IAV ( 0.01 GB; CompressionRatio= 1.00)
(ia|v) transformation done in     0.024 sec

  Phase 2 completed in     0.056 sec
RI-Integral transformation completed in     0.237 sec
Opening buffers                              ... done

Starting loop over batches of integrals:

Operator 0  - window                       ... ( 15- 33)x( 34-195)
Operator 0  - Memory available             ...   256 MB
Operator 0  - Memory needed per MO         ...   0.8 MB
Operator 0  - Number of orbitals per batch ... 2
Operator 0  - Number of batches            ... 1

OPERATOR  0   PASS   0:  MOs    15 ...   16 +   17 ...   18 +   19 ...   20 +   21 ...   22
                            +   23 ...   24 +   25 ...   26 +   27 ...   28 +   29 ...   30
                            +   31 ...   32 +   33 ...   33
  Reading integrals       ... ok
Time spent in pair loops =     0.006 sec
Deleting buffer (Ka|jb)[aa] ...done

-----------------------------------------------
 RI-MP2 CORRELATION ENERGY:     -1.044650363 Eh
-----------------------------------------------


-------
TIMINGS
-------

Total time                :    0.335 sec
Integral trafo            :    0.244 sec ( 72.9%)
I/O of integrals          :    0.001 sec (  0.2%)
K(i,j) Operators          :    0.003 sec (  0.8%)
T(i,j) pair energies      :    0.000 sec (  0.1%)
V-calculation             :    0.003 sec (  0.8%)
V**(-1/2)                 :    0.034 sec ( 10.2%)
Gamma(ia|P)               :    0.000 sec (  0.0%)
Gamma-Trafo               :    0.000 sec (  0.0%)
D(virtual)                :    0.000 sec (  0.0%)
D(internal)               :    0.000 sec (  0.0%)
W(virtual)                :    0.000 sec (  0.0%)
W(internal)               :    0.000 sec (  0.0%)
L(virtual)                :    0.000 sec (  0.0%)
L(internal)               :    0.000 sec (  0.0%)
G(D)                      :    0.000 sec (  0.0%)
G(Z)                      :    0.000 sec (  0.0%)
Z-Vector Solution         :    0.000 sec (  0.0%)
3-Index Derivative        :    0.000 sec (  0.0%)
2-Index Derivative        :    0.000 sec (  0.0%)
Separable Gradient        :    0.000 sec (  0.0%)


---------------------------------------
MP2 TOTAL ENERGY:    -1040.826874935 Eh
---------------------------------------

Maximum memory used throughout the entire MP2-calculation: 91.2 MB

-------------------------   --------------------
FINAL SINGLE POINT ENERGY     -1040.826874935224
-------------------------   --------------------


                            ***************************************
                            *     ORCA property calculations      *
                            ***************************************


  WARNING: The energy has been calculated at the MP2 level but the densities
           used in the property calculations are still SCF densities
           MP2 response densities have not been calculated 
           use %mp2 Density relaxed end
           or  %mp2 Density unrelaxed end

                                    ---------------------
                                    Active property flags
                                    ---------------------
   (+) Dipole Moment


------------------------------------------------------------------------------
                       ORCA ELECTRIC PROPERTIES CALCULATION
------------------------------------------------------------------------------

Dipole Moment Calculation                       ... on
Quadrupole Moment Calculation                   ... off
Polarizability Calculation                      ... off
GBWName                                         ... DZ_4-thioxo-1,3-thiazolidin-2-one.gbw
Electron density                                ... DZ_4-thioxo-1,3-thiazolidin-2-one.scfp
The origin for moment calculation is the CENTER OF MASS  = ( 0.019694, -0.025086 -0.000000)

-------------
DIPOLE MOMENT
-------------
                                X             Y             Z
Electronic contribution:      1.23807      -0.96477      -0.00001
Nuclear contribution   :     -1.33916       1.70586       0.00002
                        -----------------------------------------
Total Dipole Moment    :     -0.10109       0.74109       0.00001
                        -----------------------------------------
Magnitude (a.u.)       :      0.74795
Magnitude (Debye)      :      1.90113



--------------------
Rotational spectrum 
--------------------
 
Rotational constants in cm-1:     0.129617     0.041847     0.031822 
Rotational constants in MHz :  3885.819497  1254.551550   953.986542 

 Dipole components along the rotational axes: 
x,y,z [a.u.] :    -0.096416     0.741708    -0.000001 
x,y,z [Debye]:    -0.245069     1.885272    -0.000003 

 

Timings for individual modules:

Sum of individual times         ...       32.956 sec (=   0.549 min)
GTO integral calculation        ...        7.492 sec (=   0.125 min)  22.7 %
SCF iterations                  ...       21.599 sec (=   0.360 min)  65.5 %
MP2 module                      ...        3.866 sec (=   0.064 min)  11.7 %
                             ****ORCA TERMINATED NORMALLY****
TOTAL RUN TIME: 0 days 0 hours 0 minutes 36 seconds 806 msec
