
                                 *****************
                                 * O   R   C   A *
                                 *****************

                                            #,                                       
                                            ###                                      
                                            ####                                     
                                            #####                                    
                                            ######                                   
                                           ########,                                 
                                     ,,################,,,,,                         
                               ,,#################################,,                 
                          ,,##########################################,,             
                       ,#########################################, ''#####,          
                    ,#############################################,,   '####,        
                  ,##################################################,,,,####,       
                ,###########''''           ''''###############################       
              ,#####''   ,,,,##########,,,,          '''####'''          '####       
            ,##' ,,,,###########################,,,                        '##       
           ' ,,###''''                  '''############,,,                           
         ,,##''                                '''############,,,,        ,,,,,,###''
      ,#''                                            '''#######################'''  
     '                                                          ''''####''''         
             ,#######,   #######,   ,#######,      ##                                
            ,#'     '#,  ##    ##  ,#'     '#,    #''#        ######   ,####,        
            ##       ##  ##   ,#'  ##            #'  '#       #        #'  '#        
            ##       ##  #######   ##           ,######,      #####,   #    #        
            '#,     ,#'  ##    ##  '#,     ,#' ,#      #,         ##   #,  ,#        
             '#######'   ##     ##  '#######'  #'      '#     #####' # '####'        



                  #######################################################
                  #                        -***-                        #
                  #          Department of theory and spectroscopy      #
                  #    Directorship and core code : Frank Neese         #
                  #        Max Planck Institute fuer Kohlenforschung    #
                  #                Kaiser Wilhelm Platz 1               #
                  #                 D-45470 Muelheim/Ruhr               #
                  #                      Germany                        #
                  #                                                     #
                  #                  All rights reserved                #
                  #                        -***-                        #
                  #######################################################


                         Program Version 5.0.3 -  RELEASE  -


 With contributions from (in alphabetic order):
   Daniel Aravena         : Magnetic Suceptibility
   Michael Atanasov       : Ab Initio Ligand Field Theory (pilot matlab implementation)
   Alexander A. Auer      : GIAO ZORA, VPT2 properties, NMR spectrum
   Ute Becker             : Parallelization
   Giovanni Bistoni       : ED, misc. LED, open-shell LED, HFLD
   Martin Brehm           : Molecular dynamics
   Dmytro Bykov           : SCF Hessian
   Vijay G. Chilkuri      : MRCI spin determinant printing, contributions to CSF-ICE
   Dipayan Datta          : RHF DLPNO-CCSD density
   Achintya Kumar Dutta   : EOM-CC, STEOM-CC
   Dmitry Ganyushin       : Spin-Orbit,Spin-Spin,Magnetic field MRCI
   Miquel Garcia          : C-PCM and meta-GGA Hessian, CC/C-PCM, Gaussian charge scheme
   Yang Guo               : DLPNO-NEVPT2, F12-NEVPT2, CIM, IAO-localization
   Andreas Hansen         : Spin unrestricted coupled pair/coupled cluster methods
   Benjamin Helmich-Paris : MC-RPA, TRAH-SCF, COSX integrals
   Lee Huntington         : MR-EOM, pCC
   Robert Izsak           : Overlap fitted RIJCOSX, COSX-SCS-MP3, EOM
   Marcus Kettner         : VPT2
   Christian Kollmar      : KDIIS, OOCD, Brueckner-CCSD(T), CCSD density, CASPT2, CASPT2-K
   Simone Kossmann        : Meta GGA functionals, TD-DFT gradient, OOMP2, MP2 Hessian
   Martin Krupicka        : Initial AUTO-CI
   Lucas Lang             : DCDCAS
   Marvin Lechner         : AUTO-CI (C++ implementation), FIC-MRCC
   Dagmar Lenk            : GEPOL surface, SMD
   Dimitrios Liakos       : Extrapolation schemes; Compound Job, initial MDCI parallelization
   Dimitrios Manganas     : Further ROCIS development; embedding schemes
   Dimitrios Pantazis     : SARC Basis sets
   Anastasios Papadopoulos: AUTO-CI, single reference methods and gradients
   Taras Petrenko         : DFT Hessian,TD-DFT gradient, ASA, ECA, R-Raman, ABS, FL, XAS/XES, NRVS
   Peter Pinski           : DLPNO-MP2, DLPNO-MP2 Gradient
   Christoph Reimann      : Effective Core Potentials
   Marius Retegan         : Local ZFS, SOC
   Christoph Riplinger    : Optimizer, TS searches, QM/MM, DLPNO-CCSD(T), (RO)-DLPNO pert. Triples
   Tobias Risthaus        : Range-separated hybrids, TD-DFT gradient, RPA, STAB
   Michael Roemelt        : Original ROCIS implementation
   Masaaki Saitow         : Open-shell DLPNO-CCSD energy and density
   Barbara Sandhoefer     : DKH picture change effects
   Avijit Sen             : IP-ROCIS
   Kantharuban Sivalingam : CASSCF convergence, NEVPT2, FIC-MRCI
   Bernardo de Souza      : ESD, SOC TD-DFT
   Georgi Stoychev        : AutoAux, RI-MP2 NMR, DLPNO-MP2 response
   Willem Van den Heuvel  : Paramagnetic NMR
   Boris Wezisla          : Elementary symmetry handling
   Frank Wennmohs         : Technical directorship


 We gratefully acknowledge several colleagues who have allowed us to
 interface, adapt or use parts of their codes:
   Stefan Grimme, W. Hujo, H. Kruse, P. Pracht,  : VdW corrections, initial TS optimization,
                  C. Bannwarth, S. Ehlert          DFT functionals, gCP, sTDA/sTD-DF
   Ed Valeev, F. Pavosevic, A. Kumar             : LibInt (2-el integral package), F12 methods
   Garnet Chan, S. Sharma, J. Yang, R. Olivares  : DMRG
   Ulf Ekstrom                                   : XCFun DFT Library
   Mihaly Kallay                                 : mrcc  (arbitrary order and MRCC methods)
   Jiri Pittner, Ondrej Demel                    : Mk-CCSD
   Frank Weinhold                                : gennbo (NPA and NBO analysis)
   Christopher J. Cramer and Donald G. Truhlar   : smd solvation model
   Lars Goerigk                                  : TD-DFT with DH, B97 family of functionals
   V. Asgeirsson, H. Jonsson                     : NEB implementation
   FAccTs GmbH                                   : IRC, NEB, NEB-TS, DLPNO-Multilevel, CI-OPT
                                                   MM, QMMM, 2- and 3-layer-ONIOM, Crystal-QMMM,
                                                   LR-CPCM, SF, NACMEs, symmetry and pop. for TD-DFT,
                                                   nearIR, NL-DFT gradient (VV10), updates on ESD,
                                                   ML-optimized integration grids
   S Lehtola, MJT Oliveira, MAL Marques          : LibXC Library
   Liviu Ungur et al                             : ANISO software


 Your calculation uses the libint2 library for the computation of 2-el integrals
 For citations please refer to: http://libint.valeyev.net

 Your ORCA version has been built with support for libXC version: 5.1.0
 For citations please refer to: https://tddft.org/programs/libxc/

 This ORCA versions uses:
   CBLAS   interface :  Fast vector & matrix operations
   LAPACKE interface :  Fast linear algebra routines
   SCALAPACK package :  Parallel linear algebra routines
   Shared memory     :  Shared parallel matrices
   BLAS/LAPACK       :  OpenBLAS 0.3.15  USE64BITINT DYNAMIC_ARCH NO_AFFINITY SkylakeX SINGLE_THREADED
        Core in use  :  SkylakeX
   Copyright (c) 2011-2014, The OpenBLAS Project


================================================================================

----- Orbital basis set information -----
Your calculation utilizes the basis: aug-cc-pVDZ 
    H, B-Ne : Obtained from the ccRepo (grant-hill.group.shef.ac.uk/ccrepo) Feb. 2017
              R. A. Kendall, T. H. Dunning, Jr., R. J. Harrison, J. Chem. Phys. 96, 6796 (1992)
         He : Obtained from the ccRepo (grant-hill.group.shef.ac.uk/ccrepo) Feb. 2017
              D. E. Woon, T. H. Dunning, Jr., J. Chem. Phys. 100, 2975 (1994)
  Li-Be, Na : Obtained from the ccRepo (grant-hill.group.shef.ac.uk/ccrepo) Feb. 2017
              B. P. Prascher, D. E. Woon, K. A. Peterson, T. H. Dunning, Jr., A. K. Wilson, Theor. Chem. Acc. 128, 69 (2011)
         Mg : Obtained from the Peterson Research Group Website (tyr0.chem.wsu.edu/~kipeters) Feb. 2017
              B. P. Prascher, D. E. Woon, K. A. Peterson, T. H. Dunning, Jr., A. K. Wilson, Theor. Chem. Acc. 128, 69 (2011)
      Al-Ar : Obtained from the ccRepo (grant-hill.group.shef.ac.uk/ccrepo) Feb. 2017
              D. E. Woon, T. H. Dunning, Jr., J. Chem. Phys. 98, 1358 (1993)
      Sc-Zn : Obtained from the ccRepo (grant-hill.group.shef.ac.uk/ccrepo) Feb. 2017
              N. B. Balabanov, K. A. Peterson, J. Chem. Phys. 123, 064107 (2005)
              N. B. Balabanov, K. A. Peterson, J. Chem. Phys. 125, 074110 (2006)
      Ga-Kr : Obtained from the ccRepo (grant-hill.group.shef.ac.uk/ccrepo) Feb. 2017
              A. K. Wilson, D. E. Woon, K. A. Peterson, T. H. Dunning, Jr., J. Chem. Phys. 110, 7667 (1999)

----- AuxC basis set information -----
Your calculation utilizes the auxiliary basis: aug-cc-pVDZ/C 
  H-He, B, Ne, Al-Ar, Ga-Ge, Se-Br : Obtained from the EMSL Basis Set Exchange (bse.pnl.gov) Feb. 2017
                                     F. Weigend, A. Kohn, C. Hattig, J. Chem. Phys. 116, 3175 (2002)
                            Be, Mg : Obtained from the TURBOMOLE 7.0 basis set library
                                     C. Haettig, Phys. Chem. Chem. Phys. 7, 59 (2005)
                               C-F : Obtained from the EMSL Basis Set Exchange (bse.pnl.gov) Feb. 2017
                                     C. Haettig, Phys. Chem. Chem. Phys. 7, 59 (2005)
                                     F. Weigend, A. Kohn, C. Hattig, J. Chem. Phys. 116, 3175 (2002)
                                As : Obtained from the EMSL Basis Set Exchange (bse.pnl.gov) Feb. 2017
                                     C. Haettig, G. Schmitz, J. Kossmann, Phys. Chem. Chem. Phys. 14, 6549 (2012)
                                Kr : Obtained from the TURBOMOLE 7.0 basis set library
                                     F. Weigend, A. Kohn, C. Hattig, J. Chem. Phys. 116, 3175 (2002)
                                     S function revised in Sep. 2009

================================================================================
                                        WARNINGS
                       Please study these warnings very carefully!
================================================================================


WARNING: No MP2 level density has been requested!
         To caclulate MP2 level properties use
         %mp2 Density relaxed end
         or
         %mp2 Density unrelaxed end

WARNING: Post HF methods need fully converged wavefunctions
  ===> : Setting SCFConvForced true
         You can overwrite this default with %scf ConvForced false 


INFO   : the flag for use of the SHARK integral package has been found!

================================================================================
                                       INPUT FILE
================================================================================
NAME = DZ_azetidine.inp
|  1> !ri-mp2 aug-cc-pvdz aug-cc-pvdz/c tightscf
|  2> %pal nprocs 16 end
|  3> 
|  4> * xyz 0 1
|  5> C      0.082897    1.078427    0.000000
|  6> C      0.082897   -0.051210    1.054630
|  7> C      0.082897   -0.051210   -1.054630
|  8> N     -0.374490   -0.989590    0.000000
|  9> H     -0.845440    1.645623    0.000000
| 10> H      0.926741    1.763706    0.000000
| 11> H      1.090133   -0.261322    1.431487
| 12> H     -0.597396    0.043257    1.901760
| 13> H     -0.597396    0.043257   -1.901760
| 14> H      1.090133   -0.261322   -1.431487
| 15> H      0.062512   -1.902110    0.000000
| 16> *
| 17> 
| 18>                          ****END OF INPUT****
================================================================================

                       ****************************
                       * Single Point Calculation *
                       ****************************

---------------------------------
CARTESIAN COORDINATES (ANGSTROEM)
---------------------------------
  C      0.082897    1.078427    0.000000
  C      0.082897   -0.051210    1.054630
  C      0.082897   -0.051210   -1.054630
  N     -0.374490   -0.989590    0.000000
  H     -0.845440    1.645623    0.000000
  H      0.926741    1.763706    0.000000
  H      1.090133   -0.261322    1.431487
  H     -0.597396    0.043257    1.901760
  H     -0.597396    0.043257   -1.901760
  H      1.090133   -0.261322   -1.431487
  H      0.062512   -1.902110    0.000000

----------------------------
CARTESIAN COORDINATES (A.U.)
----------------------------
  NO LB      ZA    FRAG     MASS         X           Y           Z
   0 C     6.0000    0    12.011    0.156653    2.037932    0.000000
   1 C     6.0000    0    12.011    0.156653   -0.096773    1.992962
   2 C     6.0000    0    12.011    0.156653   -0.096773   -1.992962
   3 N     7.0000    0    14.007   -0.707684   -1.870054    0.000000
   4 H     1.0000    0     1.008   -1.597650    3.109777    0.000000
   5 H     1.0000    0     1.008    1.751287    3.332921    0.000000
   6 H     1.0000    0     1.008    2.060053   -0.493827    2.705118
   7 H     1.0000    0     1.008   -1.128915    0.081744    3.593806
   8 H     1.0000    0     1.008   -1.128915    0.081744   -3.593806
   9 H     1.0000    0     1.008    2.060053   -0.493827   -2.705118
  10 H     1.0000    0     1.008    0.118131   -3.594467    0.000000

--------------------------------
INTERNAL COORDINATES (ANGSTROEM)
--------------------------------
 C      0   0   0     0.000000000000     0.00000000     0.00000000
 C      1   0   0     1.545420392213     0.00000000     0.00000000
 C      1   2   0     1.545420392213    86.06650975     0.00000000
 N      2   1   3     1.483915202789    88.69531615   342.04259898
 H      1   2   3     1.087897462073   112.40175521   112.63355550
 H      1   2   3     1.087051058680   117.43855576   241.00521514
 H      2   1   3     1.095761201489   112.01575788    97.47070988
 H      2   1   3     1.090574076731   117.82495955   224.85761271
 H      3   1   2     1.090574076731   117.82495955   135.14238729
 H      3   1   2     1.095761201489   112.01575788   262.52929012
 H      4   2   1     1.011762570173   115.92589999   138.09839105

---------------------------
INTERNAL COORDINATES (A.U.)
---------------------------
 C      0   0   0     0.000000000000     0.00000000     0.00000000
 C      1   0   0     2.920421303060     0.00000000     0.00000000
 C      1   2   0     2.920421303060    86.06650975     0.00000000
 N      2   1   3     2.804193339234    88.69531615   342.04259898
 H      1   2   3     2.055828265106   112.40175521   112.63355550
 H      1   2   3     2.054228794494   117.43855576   241.00521514
 H      2   1   3     2.070688578991   112.01575788    97.47070988
 H      2   1   3     2.060886333776   117.82495955   224.85761271
 H      3   1   2     2.060886333776   117.82495955   135.14238729
 H      3   1   2     2.070688578991   112.01575788   262.52929012
 H      4   2   1     1.911954170180   115.92589999   138.09839105

---------------------
BASIS SET INFORMATION
---------------------
There are 3 groups of distinct atoms

 Group   1 Type C   : 18s5p2d contracted to 4s3p2d pattern {8811/311/11}
 Group   2 Type N   : 18s5p2d contracted to 4s3p2d pattern {8811/311/11}
 Group   3 Type H   : 5s2p contracted to 3s2p pattern {311/11}

Atom   0C    basis set group =>   1
Atom   1C    basis set group =>   1
Atom   2C    basis set group =>   1
Atom   3N    basis set group =>   2
Atom   4H    basis set group =>   3
Atom   5H    basis set group =>   3
Atom   6H    basis set group =>   3
Atom   7H    basis set group =>   3
Atom   8H    basis set group =>   3
Atom   9H    basis set group =>   3
Atom  10H    basis set group =>   3
---------------------------------
AUXILIARY/C BASIS SET INFORMATION
---------------------------------
There are 3 groups of distinct atoms

 Group   1 Type C   : 8s6p5d3f contracted to 8s6p5d3f pattern {11111111/111111/11111/111}
 Group   2 Type N   : 8s6p5d3f contracted to 8s6p5d3f pattern {11111111/111111/11111/111}
 Group   3 Type H   : 4s3p2d contracted to 4s3p2d pattern {1111/111/11}

Atom   0C    basis set group =>   1
Atom   1C    basis set group =>   1
Atom   2C    basis set group =>   1
Atom   3N    basis set group =>   2
Atom   4H    basis set group =>   3
Atom   5H    basis set group =>   3
Atom   6H    basis set group =>   3
Atom   7H    basis set group =>   3
Atom   8H    basis set group =>   3
Atom   9H    basis set group =>   3
Atom  10H    basis set group =>   3


           ************************************************************
           *        Program running with 16 parallel MPI-processes    *
           *              working on a common directory               *
           ************************************************************
------------------------------------------------------------------------------
                           ORCA GTO INTEGRAL CALCULATION
------------------------------------------------------------------------------
------------------------------------------------------------------------------
                   ___                                                        
                  /   \      - P O W E R E D   B Y -                         
                 /     \                                                     
                 |  |  |   _    _      __       _____    __    __             
                 |  |  |  | |  | |    /  \     |  _  \  |  |  /  |          
                  \  \/   | |  | |   /    \    | | | |  |  | /  /          
                 / \  \   | |__| |  /  /\  \   | |_| |  |  |/  /          
                |  |  |   |  __  | /  /__\  \  |    /   |      \           
                |  |  |   | |  | | |   __   |  |    \   |  |\   \          
                \     /   | |  | | |  |  |  |  | |\  \  |  | \   \       
                 \___/    |_|  |_| |__|  |__|  |_| \__\ |__|  \__/        
                                                                              
                      - O R C A' S   B I G   F R I E N D -                    
                                      &                                       
                       - I N T E G R A L  F E E D E R -                       
                                                                              
 v1 FN, 2020, v2 2021                                                         
------------------------------------------------------------------------------


Reading SHARK input file DZ_azetidine.SHARKINP.tmp ... ok
----------------------
SHARK INTEGRAL PACKAGE
----------------------

Number of atoms                             ...     11
Number of basis functions                   ...    179
Number of shells                            ...     95
Maximum angular momentum                    ...      2
Integral batch strategy                     ... SHARK/LIBINT Hybrid
RI-J (if used) integral strategy            ... SPLIT-RIJ (Revised 2003 algorithm where possible)
Printlevel                                  ...      1
Contraction scheme used                     ... PARTIAL GENERAL contraction
Coulomb Range Separation                    ... NOT USED
Exchange Range Separation                   ... NOT USED
Finite Nucleus Model                        ... NOT USED
Auxiliary Coulomb fitting basis             ... NOT available
Auxiliary J/K fitting basis                 ... NOT available
Auxiliary Correlation fitting basis         ... AVAILABLE
   # of basis functions in Aux-C            ...    449
   # of shells in Aux-C                     ...    151
   Maximum angular momentum in Aux-C        ...      3
Auxiliary 'external' fitting basis          ... NOT available
Integral threshold                          ...     2.500000e-11
Primitive cut-off                           ...     2.500000e-12
Primitive pair pre-selection threshold      ...     2.500000e-12

Calculating pre-screening integrals         ... done (  0.0 sec) Dimension = 95
Calculating pre-screening integrals (ORCA)  ... done (  0.0 sec) Dimension = 71
Organizing shell pair data                  ... done (  0.0 sec)
Shell pair information
Total number of shell pairs                 ...      4560
Shell pairs after pre-screening             ...      4312
Total number of primitive shell pairs       ...      6936
Primitive shell pairs kept                  ...      6173
          la=0 lb=0:   1643 shell pairs
          la=1 lb=0:   1586 shell pairs
          la=1 lb=1:    351 shell pairs
          la=2 lb=0:    488 shell pairs
          la=2 lb=1:    208 shell pairs
          la=2 lb=2:     36 shell pairs

Calculating one electron integrals          ... done (  0.0 sec)
Calculating RI/C V-Matrix + Cholesky decomp.... done (  0.0 sec)
Calculating Nuclear repulsion               ... done (  0.0 sec) ENN=    128.683962347886 Eh

SHARK setup successfully completed in   0.2 seconds

Maximum memory used throughout the entire GTOINT-calculation: 15.1 MB


           ************************************************************
           *        Program running with 16 parallel MPI-processes    *
           *              working on a common directory               *
           ************************************************************
-------------------------------------------------------------------------------
                                 ORCA SCF
-------------------------------------------------------------------------------

------------
SCF SETTINGS
------------
Hamiltonian:
 Ab initio Hamiltonian  Method          .... Hartree-Fock(GTOs)


General Settings:
 Integral files         IntName         .... DZ_azetidine
 Hartree-Fock type      HFTyp           .... RHF
 Total Charge           Charge          ....    0
 Multiplicity           Mult            ....    1
 Number of Electrons    NEL             ....   32
 Basis Dimension        Dim             ....  155
 Nuclear Repulsion      ENuc            ....    128.6839623479 Eh

Convergence Acceleration:
 DIIS                   CNVDIIS         .... on
   Start iteration      DIISMaxIt       ....    12
   Startup error        DIISStart       ....  0.200000
   # of expansion vecs  DIISMaxEq       ....     5
   Bias factor          DIISBfac        ....   1.050
   Max. coefficient     DIISMaxC        ....  10.000
 Trust-Rad. Augm. Hess. CNVTRAH         .... auto
   Auto Start mean grad. ratio tolernc. ....  1.125000
   Auto Start start iteration           ....    20
   Auto Start num. interpolation iter.  ....    10
   Max. Number of Micro iterations      ....    16
   Max. Number of Macro iterations      .... Maxiter - #DIIS iter
   Number of Davidson start vectors     ....     2
   Converg. threshold I  (grad. norm)   ....   1.000e-05
   Converg. threshold II (energy diff.) ....   1.000e-08
   Grad. Scal. Fac. for Micro threshold ....   0.100
   Minimum threshold for Micro iter.    ....   0.010
   NR start threshold (gradient norm)   ....   0.001
   Initial trust radius                 ....   0.400
   Minimum AH scaling param. (alpha)    ....   1.000
   Maximum AH scaling param. (alpha)    .... 1000.000
   Orbital update algorithm             .... Taylor
   White noise on init. David. guess    .... on
   Maximum white noise                  ....   0.010
   Quad. conv. algorithm                .... NR
 SOSCF                  CNVSOSCF        .... on
   Start iteration      SOSCFMaxIt      ....   150
   Startup grad/error   SOSCFStart      ....  0.003300
 Level Shifting         CNVShift        .... on
   Level shift para.    LevelShift      ....    0.2500
   Turn off err/grad.   ShiftErr        ....    0.0010
 Zerner damping         CNVZerner       .... off
 Static damping         CNVDamp         .... on
   Fraction old density DampFac         ....    0.7000
   Max. Damping (<1)    DampMax         ....    0.9800
   Min. Damping (>=0)   DampMin         ....    0.0000
   Turn off err/grad.   DampErr         ....    0.1000
 Fernandez-Rico         CNVRico         .... off

SCF Procedure:
 Maximum # iterations   MaxIter         ....   125
 SCF integral mode      SCFMode         .... Direct
   Integral package                     .... SHARK and LIBINT hybrid scheme
 Reset frequency        DirectResetFreq ....    20
 Integral Threshold     Thresh          ....  2.500e-11 Eh
 Primitive CutOff       TCut            ....  2.500e-12 Eh

Convergence Tolerance:
 Convergence Check Mode ConvCheckMode   .... Total+1el-Energy
 Convergence forced     ConvForced      .... 1
 Energy Change          TolE            ....  1.000e-08 Eh
 1-El. energy change                    ....  1.000e-05 Eh
 Orbital Gradient       TolG            ....  1.000e-05
 Orbital Rotation angle TolX            ....  1.000e-05
 DIIS Error             TolErr          ....  5.000e-07


Diagonalization of the overlap matrix:
Smallest eigenvalue                        ... 4.316e-05
Time for diagonalization                   ...    0.003 sec
Threshold for overlap eigenvalues          ... 1.000e-08
Number of eigenvalues below threshold      ... 0
Time for construction of square roots      ...    0.005 sec
Total time needed                          ...    0.008 sec

Time for model grid setup =    0.037 sec

------------------------------
INITIAL GUESS: MODEL POTENTIAL
------------------------------
Loading Hartree-Fock densities                     ... done
Calculating cut-offs                               ... done
Initializing the effective Hamiltonian             ... done
Setting up the integral package (SHARK)            ... done
Starting the Coulomb interaction                   ... done (   0.0 sec)
Reading the grid                                   ... done
Mapping shells                                     ... done
Starting the XC term evaluation                    ... done (   0.0 sec)
Transforming the Hamiltonian                       ... done (   0.0 sec)
Diagonalizing the Hamiltonian                      ... done (   0.0 sec)
Back transforming the eigenvectors                 ... done (   0.0 sec)
Now organizing SCF variables                       ... done
                      ------------------
                      INITIAL GUESS DONE (   0.1 sec)
                      ------------------
--------------
SCF ITERATIONS
--------------
ITER       Energy         Delta-E        Max-DP      RMS-DP      [F,P]     Damp
               ***  Starting incremental Fock matrix formation  ***
  0   -171.9057878266   0.000000000000 0.24824085  0.00596654  0.2133957 0.7000
  1   -171.9770520397  -0.071264213067 0.18478468  0.00447515  0.1340105 0.7000
                               ***Turning on DIIS***
  2   -172.0186397217  -0.041587681983 0.43367417  0.01039369  0.0764481 0.0000
  3   -171.6224265934   0.396213128249 0.02490324  0.00080588  0.0412799 0.0000
  4   -172.0710025419  -0.448575948464 0.01179988  0.00033915  0.0066622 0.0000
                      *** Initiating the SOSCF procedure ***
                           *** Shutting down DIIS ***
                      *** Re-Reading the Fockian *** 
                      *** Removing any level shift *** 
ITER      Energy       Delta-E        Grad      Rot      Max-DP    RMS-DP
  5   -172.09482011  -0.0238175683  0.001504  0.001504  0.005934  0.000153
               *** Restarting incremental Fock matrix formation ***
  6   -172.10327149  -0.0084513806  0.000534  0.000610  0.003016  0.000069
  7   -172.10328002  -0.0000085257  0.000184  0.000300  0.001768  0.000044
  8   -172.10328156  -0.0000015416  0.000042  0.000054  0.000366  0.000008
  9   -172.10328163  -0.0000000753  0.000013  0.000010  0.000066  0.000002
 10   -172.10328164  -0.0000000037  0.000003  0.000005  0.000017  0.000000
                 **** Energy Check signals convergence ****
              ***Rediagonalizing the Fockian in SOSCF/NRSCF***

               *****************************************************
               *                     SUCCESS                       *
               *           SCF CONVERGED AFTER  11 CYCLES          *
               *****************************************************


----------------
TOTAL SCF ENERGY
----------------

Total Energy       :         -172.10328164 Eh           -4683.16838 eV

Components:
Nuclear Repulsion  :          128.68396235 Eh            3501.66864 eV
Electronic Energy  :         -300.78724399 Eh           -8184.83702 eV
One Electron Energy:         -486.81911151 Eh          -13247.02149 eV
Two Electron Energy:          186.03186752 Eh            5062.18447 eV

Virial components:
Potential Energy   :         -344.00517466 Eh           -9360.85670 eV
Kinetic Energy     :          171.90189302 Eh            4677.68832 eV
Virial Ratio       :            2.00117153


---------------
SCF CONVERGENCE
---------------

  Last Energy change         ...   -7.5414e-10  Tolerance :   1.0000e-08
  Last MAX-Density change    ...    9.9274e-06  Tolerance :   1.0000e-07
  Last RMS-Density change    ...    2.1023e-07  Tolerance :   5.0000e-09
  Last Orbital Gradient      ...    5.1879e-07  Tolerance :   1.0000e-05
  Last Orbital Rotation      ...    1.1779e-06  Tolerance :   1.0000e-05

             **** THE GBW FILE WAS UPDATED (DZ_azetidine.gbw) ****
             **** DENSITY DZ_azetidine.scfp WAS UPDATED ****
             **** ENERGY FILE WAS UPDATED (DZ_azetidine.en.tmp) ****
             **** THE GBW FILE WAS UPDATED (DZ_azetidine.gbw) ****
             **** DENSITY DZ_azetidine.scfp WAS UPDATED ****
----------------
ORBITAL ENERGIES
----------------

  NO   OCC          E(Eh)            E(eV) 
   0   2.0000     -15.544734      -422.9937 
   1   2.0000     -11.252963      -306.2087 
   2   2.0000     -11.252960      -306.2086 
   3   2.0000     -11.226053      -305.4764 
   4   2.0000      -1.227001       -33.3884 
   5   2.0000      -0.970838       -26.4178 
   6   2.0000      -0.910936       -24.7878 
   7   2.0000      -0.765208       -20.8224 
   8   2.0000      -0.687884       -18.7183 
   9   2.0000      -0.651692       -17.7334 
  10   2.0000      -0.550995       -14.9933 
  11   2.0000      -0.528975       -14.3941 
  12   2.0000      -0.516755       -14.0616 
  13   2.0000      -0.468938       -12.7605 
  14   2.0000      -0.453177       -12.3316 
  15   2.0000      -0.368585       -10.0297 
  16   0.0000       0.036721         0.9992 
  17   0.0000       0.047533         1.2935 
  18   0.0000       0.049190         1.3385 
  19   0.0000       0.051307         1.3961 
  20   0.0000       0.071160         1.9364 
  21   0.0000       0.071728         1.9518 
  22   0.0000       0.075289         2.0487 
  23   0.0000       0.110999         3.0204 
  24   0.0000       0.115641         3.1467 
  25   0.0000       0.138924         3.7803 
  26   0.0000       0.142442         3.8761 
  27   0.0000       0.153637         4.1807 
  28   0.0000       0.158236         4.3058 
  29   0.0000       0.164703         4.4818 
  30   0.0000       0.177381         4.8268 
  31   0.0000       0.184617         5.0237 
  32   0.0000       0.194348         5.2885 
  33   0.0000       0.207727         5.6525 
  34   0.0000       0.211658         5.7595 
  35   0.0000       0.222858         6.0643 
  36   0.0000       0.227414         6.1883 
  37   0.0000       0.262630         7.1465 
  38   0.0000       0.287481         7.8228 
  39   0.0000       0.298116         8.1121 
  40   0.0000       0.335082         9.1181 
  41   0.0000       0.342734         9.3263 
  42   0.0000       0.351069         9.5531 
  43   0.0000       0.386056        10.5051 
  44   0.0000       0.389757        10.6058 
  45   0.0000       0.391010        10.6399 
  46   0.0000       0.394910        10.7461 
  47   0.0000       0.407788        11.0965 
  48   0.0000       0.411563        11.1992 
  49   0.0000       0.423329        11.5194 
  50   0.0000       0.454845        12.3770 
  51   0.0000       0.457365        12.4455 
  52   0.0000       0.472909        12.8685 
  53   0.0000       0.480621        13.0784 
  54   0.0000       0.484117        13.1735 
  55   0.0000       0.490802        13.3554 
  56   0.0000       0.537238        14.6190 
  57   0.0000       0.538018        14.6402 
  58   0.0000       0.543105        14.7786 
  59   0.0000       0.549208        14.9447 
  60   0.0000       0.571357        15.5474 
  61   0.0000       0.573373        15.6023 
  62   0.0000       0.582384        15.8475 
  63   0.0000       0.609235        16.5781 
  64   0.0000       0.612739        16.6735 
  65   0.0000       0.641299        17.4506 
  66   0.0000       0.659885        17.9564 
  67   0.0000       0.666446        18.1349 
  68   0.0000       0.681999        18.5581 
  69   0.0000       0.700243        19.0546 
  70   0.0000       0.700949        19.0738 
  71   0.0000       0.711710        19.3666 
  72   0.0000       0.719820        19.5873 
  73   0.0000       0.722214        19.6524 
  74   0.0000       0.742613        20.2075 
  75   0.0000       0.746393        20.3104 
  76   0.0000       0.757016        20.5994 
  77   0.0000       0.778659        21.1884 
  78   0.0000       0.780228        21.2311 
  79   0.0000       0.808351        21.9964 
  80   0.0000       0.812815        22.1178 
  81   0.0000       0.853196        23.2166 
  82   0.0000       0.853923        23.2364 
  83   0.0000       0.869456        23.6591 
  84   0.0000       0.908676        24.7263 
  85   0.0000       0.918162        24.9845 
  86   0.0000       0.924041        25.1444 
  87   0.0000       0.973095        26.4793 
  88   0.0000       1.001394        27.2493 
  89   0.0000       1.080852        29.4115 
  90   0.0000       1.113802        30.3081 
  91   0.0000       1.115111        30.3437 
  92   0.0000       1.196699        32.5638 
  93   0.0000       1.205038        32.7907 
  94   0.0000       1.231080        33.4994 
  95   0.0000       1.236195        33.6386 
  96   0.0000       1.258312        34.2404 
  97   0.0000       1.330574        36.2068 
  98   0.0000       1.346567        36.6419 
  99   0.0000       1.375982        37.4424 
 100   0.0000       1.400201        38.1014 
 101   0.0000       1.440525        39.1987 
 102   0.0000       1.568577        42.6831 
 103   0.0000       1.588176        43.2165 
 104   0.0000       1.623773        44.1851 
 105   0.0000       1.666023        45.3348 
 106   0.0000       1.666669        45.3524 
 107   0.0000       1.746310        47.5195 
 108   0.0000       1.752371        47.6844 
 109   0.0000       1.788661        48.6719 
 110   0.0000       1.827198        49.7206 
 111   0.0000       1.855115        50.4803 
 112   0.0000       1.867745        50.8239 
 113   0.0000       1.892672        51.5022 
 114   0.0000       1.957440        53.2646 
 115   0.0000       1.978374        53.8343 
 116   0.0000       2.059503        56.0419 
 117   0.0000       2.065513        56.2055 
 118   0.0000       2.074568        56.4519 
 119   0.0000       2.107484        57.3475 
 120   0.0000       2.107930        57.3597 
 121   0.0000       2.195005        59.7291 
 122   0.0000       2.212537        60.2062 
 123   0.0000       2.239126        60.9297 
 124   0.0000       2.242923        61.0330 
 125   0.0000       2.295739        62.4702 
 126   0.0000       2.314844        62.9901 
 127   0.0000       2.343090        63.7587 
 128   0.0000       2.377882        64.7055 
 129   0.0000       2.396370        65.2086 
 130   0.0000       2.419147        65.8283 
 131   0.0000       2.423125        65.9366 
 132   0.0000       2.485758        67.6409 
 133   0.0000       2.497521        67.9610 
 134   0.0000       2.561812        69.7105 
 135   0.0000       2.563802        69.7646 
 136   0.0000       2.598755        70.7157 
 137   0.0000       2.661531        72.4239 
 138   0.0000       2.717460        73.9458 
 139   0.0000       2.771712        75.4221 
 140   0.0000       2.782456        75.7145 
 141   0.0000       2.791726        75.9667 
 142   0.0000       2.874210        78.2112 
 143   0.0000       2.917548        79.3905 
 144   0.0000       2.927632        79.6649 
 145   0.0000       2.966214        80.7148 
 146   0.0000       3.012968        81.9870 
 147   0.0000       3.014343        82.0244 
 148   0.0000       3.065952        83.4288 
 149   0.0000       3.156495        85.8926 
 150   0.0000       3.261834        88.7590 
 151   0.0000       3.309677        90.0609 
 152   0.0000       3.311683        90.1155 
 153   0.0000       3.612859        98.3109 
 154   0.0000       3.837590       104.4261 

                    ********************************
                    * MULLIKEN POPULATION ANALYSIS *
                    ********************************

-----------------------
MULLIKEN ATOMIC CHARGES
-----------------------
   0 C :    0.405202
   1 C :    0.822666
   2 C :    0.822666
   3 N :   -0.653543
   4 H :   -0.201848
   5 H :   -0.195999
   6 H :   -0.263506
   7 H :   -0.217632
   8 H :   -0.217632
   9 H :   -0.263506
  10 H :   -0.036869
Sum of atomic charges:   -0.0000000

--------------------------------
MULLIKEN REDUCED ORBITAL CHARGES
--------------------------------
  0 C s       :     2.631844  s :     2.631844
      pz      :     1.071627  p :     2.883921
      px      :     0.882395
      py      :     0.929900
      dz2     :    -0.003652  d :     0.079032
      dxz     :     0.038095
      dyz     :     0.053907
      dx2y2   :     0.002238
      dxy     :    -0.011556
  1 C s       :     2.730283  s :     2.730283
      pz      :     0.780849  p :     2.419587
      px      :     0.753041
      py      :     0.885698
      dz2     :    -0.011439  d :     0.027464
      dxz     :    -0.019950
      dyz     :     0.047757
      dx2y2   :    -0.004097
      dxy     :     0.015193
  2 C s       :     2.730283  s :     2.730283
      pz      :     0.780849  p :     2.419587
      px      :     0.753041
      py      :     0.885698
      dz2     :    -0.011439  d :     0.027464
      dxz     :    -0.019950
      dyz     :     0.047757
      dx2y2   :    -0.004097
      dxy     :     0.015193
  3 N s       :     3.611909  s :     3.611909
      pz      :     1.221481  p :     3.984656
      px      :     1.713363
      py      :     1.049812
      dz2     :     0.004884  d :     0.056978
      dxz     :     0.020848
      dyz     :     0.027455
      dx2y2   :     0.000221
      dxy     :     0.003571
  4 H s       :     1.229700  s :     1.229700
      pz      :    -0.012323  p :    -0.027853
      px      :    -0.004798
      py      :    -0.010732
  5 H s       :     1.221754  s :     1.221754
      pz      :    -0.000459  p :    -0.025755
      px      :    -0.017123
      py      :    -0.008173
  6 H s       :     1.267121  s :     1.267121
      pz      :    -0.002754  p :    -0.003615
      px      :     0.007624
      py      :    -0.008486
  7 H s       :     1.231017  s :     1.231017
      pz      :     0.009413  p :    -0.013385
      px      :    -0.020361
      py      :    -0.002438
  8 H s       :     1.231017  s :     1.231017
      pz      :     0.009413  p :    -0.013385
      px      :    -0.020361
      py      :    -0.002438
  9 H s       :     1.267121  s :     1.267121
      pz      :    -0.002754  p :    -0.003615
      px      :     0.007624
      py      :    -0.008486
 10 H s       :     0.983636  s :     0.983636
      pz      :    -0.002218  p :     0.053233
      px      :     0.028266
      py      :     0.027184


                     *******************************
                     * LOEWDIN POPULATION ANALYSIS *
                     *******************************

----------------------
LOEWDIN ATOMIC CHARGES
----------------------
   0 C :    0.027879
   1 C :   -0.003359
   2 C :   -0.003359
   3 N :    0.038342
   4 H :    0.000815
   5 H :   -0.004997
   6 H :    0.000547
   7 H :   -0.006991
   8 H :   -0.006991
   9 H :    0.000547
  10 H :   -0.042433

-------------------------------
LOEWDIN REDUCED ORBITAL CHARGES
-------------------------------
  0 C s       :     2.591363  s :     2.591363
      pz      :     0.866841  p :     2.699319
      px      :     0.921058
      py      :     0.911420
      dz2     :     0.142006  d :     0.681439
      dxz     :     0.087800
      dyz     :     0.166290
      dx2y2   :     0.081670
      dxy     :     0.203673
  1 C s       :     2.579358  s :     2.579358
      pz      :     0.890901  p :     2.614676
      px      :     0.905915
      py      :     0.817860
      dz2     :     0.163916  d :     0.809324
      dxz     :     0.207827
      dyz     :     0.179142
      dx2y2   :     0.137958
      dxy     :     0.120481
  2 C s       :     2.579358  s :     2.579358
      pz      :     0.890901  p :     2.614676
      px      :     0.905915
      py      :     0.817860
      dz2     :     0.163916  d :     0.809324
      dxz     :     0.207827
      dyz     :     0.179142
      dx2y2   :     0.137958
      dxy     :     0.120481
  3 N s       :     2.897961  s :     2.897961
      pz      :     1.070663  p :     3.566002
      px      :     1.415813
      py      :     1.079525
      dz2     :     0.123496  d :     0.497695
      dxz     :     0.082508
      dyz     :     0.115815
      dx2y2   :     0.099016
      dxy     :     0.076860
  4 H s       :     0.739639  s :     0.739639
      pz      :     0.059818  p :     0.259546
      px      :     0.123111
      py      :     0.076617
  5 H s       :     0.749152  s :     0.749152
      pz      :     0.057872  p :     0.255846
      px      :     0.112928
      py      :     0.085045
  6 H s       :     0.749016  s :     0.749016
      pz      :     0.062239  p :     0.250437
      px      :     0.132017
      py      :     0.056182
  7 H s       :     0.757970  s :     0.757970
      pz      :     0.097250  p :     0.249022
      px      :     0.098338
      py      :     0.053434
  8 H s       :     0.757970  s :     0.757970
      pz      :     0.097250  p :     0.249022
      px      :     0.098338
      py      :     0.053434
  9 H s       :     0.749016  s :     0.749016
      pz      :     0.062239  p :     0.250437
      px      :     0.132017
      py      :     0.056182
 10 H s       :     0.685621  s :     0.685621
      pz      :     0.069460  p :     0.356811
      px      :     0.140749
      py      :     0.146602


                      *****************************
                      * MAYER POPULATION ANALYSIS *
                      *****************************

  NA   - Mulliken gross atomic population
  ZA   - Total nuclear charge
  QA   - Mulliken gross atomic charge
  VA   - Mayer's total valence
  BVA  - Mayer's bonded valence
  FA   - Mayer's free valence

  ATOM       NA         ZA         QA         VA         BVA        FA
  0 C      5.5948     6.0000     0.4052     4.0359     4.0359    -0.0000
  1 C      5.1773     6.0000     0.8227     3.7581     3.7581    -0.0000
  2 C      5.1773     6.0000     0.8227     3.7581     3.7581    -0.0000
  3 N      7.6535     7.0000    -0.6535     2.7507     2.7507    -0.0000
  4 H      1.2018     1.0000    -0.2018     0.7408     0.7408    -0.0000
  5 H      1.1960     1.0000    -0.1960     0.7479     0.7479    -0.0000
  6 H      1.2635     1.0000    -0.2635     0.8061     0.8061    -0.0000
  7 H      1.2176     1.0000    -0.2176     0.7919     0.7919    -0.0000
  8 H      1.2176     1.0000    -0.2176     0.7919     0.7919    -0.0000
  9 H      1.2635     1.0000    -0.2635     0.8061     0.8061    -0.0000
 10 H      1.0369     1.0000    -0.0369     1.0185     1.0185     0.0000

  Mayer bond orders larger than 0.100000
B(  0-C ,  1-C ) :   1.1510 B(  0-C ,  2-C ) :   1.1510 B(  0-C ,  4-H ) :   0.7353 
B(  0-C ,  5-H ) :   0.8323 B(  1-C ,  3-N ) :   0.8183 B(  1-C ,  6-H ) :   0.8049 
B(  1-C ,  7-H ) :   0.9182 B(  2-C ,  3-N ) :   0.8183 B(  2-C ,  8-H ) :   0.9182 
B(  2-C ,  9-H ) :   0.8049 B(  3-N , 10-H ) :   1.0580 B(  4-H ,  5-H ) :  -0.1176 
B(  6-H ,  7-H ) :  -0.1189 B(  8-H ,  9-H ) :  -0.1189 

-------
TIMINGS
-------

Total SCF time: 0 days 0 hours 0 min 4 sec 

Total time                  ....       4.445 sec
Sum of individual times     ....       4.187 sec  ( 94.2%)

Fock matrix formation       ....       3.850 sec  ( 86.6%)
Diagonalization             ....       0.085 sec  (  1.9%)
Density matrix formation    ....       0.009 sec  (  0.2%)
Population analysis         ....       0.021 sec  (  0.5%)
Initial guess               ....       0.051 sec  (  1.1%)
Orbital Transformation      ....       0.000 sec  (  0.0%)
Orbital Orthonormalization  ....       0.000 sec  (  0.0%)
DIIS solution               ....       0.090 sec  (  2.0%)
SOSCF solution              ....       0.045 sec  (  1.0%)

Maximum memory used throughout the entire SCF-calculation: 228.9 MB


           ************************************************************
           *        Program running with 16 parallel MPI-processes    *
           *              working on a common directory               *
           ************************************************************

------------------------------------------------------------------------------
                                ORCA  MP2 
------------------------------------------------------------------------------

Freezing NCore=8 chemical core electrons

-------------
RI-MP2 ENERGY
-------------
Dimension of the basis                    ...  155
Memory devoted to MP2                     ...  256 MB   
Data format for buffers                   ... DOUBLE
Compression type for matrix containers    ... UNCOMPRESSED
Overall scaling of the MP2 energy         ...   1.000e+00
Calculating two index integrals           ... done (    0.001 sec)
Cholesky decomposition of V**-1           ... done (    0.018 sec)

-----------------
RI-TRANSFORMATION (AUX index driven)
-----------------

Dimension of the orbital-basis         ... 155
Dimension of the aux-basis             ... 449
Transformation of internal/external MOs...    4-  15 to   16- 154
Number Format for Storage              ... Double (8 Byte)
Integral mode                          ... Direct

First Phase: integral generation and transformation of MO indices
  Aux angular momentum 0               ... done (    0.006 sec)
  Aux angular momentum 1               ... done (    0.006 sec)
  Aux angular momentum 2               ... done (    0.009 sec)
  Aux angular momentum 3               ... done (    0.004 sec)
Closing buffer VIA ( 0.01 GB; CompressionRatio= 1.00)
  Phase 1 completed in     0.127 sec
Second Phase: sorting and transformation of aux index

IA-Transformation
Memory available                       ... 213 MB 
Max. # MO pairs treated in a batch     ... 1    
# of internal orbitals                 ... 12
# batches for internal orbitals        ... 1
Closing buffer IAV ( 0.01 GB; CompressionRatio= 1.00)
(ia|v) transformation done in     0.014 sec

  Phase 2 completed in     0.045 sec
RI-Integral transformation completed in     0.179 sec
Opening buffers                              ... done

Starting loop over batches of integrals:

Operator 0  - window                       ... (  4- 15)x( 16-154)
Operator 0  - Memory available             ...   256 MB
Operator 0  - Memory needed per MO         ...   0.5 MB
Operator 0  - Number of orbitals per batch ... 1
Operator 0  - Number of batches            ... 1

OPERATOR  0   PASS   0:  MOs     4 ...    4 +    5 ...    5 +    6 ...    6 +    7 ...    7
                            +    8 ...    8 +    9 ...    9 +   10 ...   10 +   11 ...   11
                            +   12 ...   12 +   13 ...   13 +   14 ...   14 +   15 ...   15
  Reading integrals       ... ok
Time spent in pair loops =     0.003 sec
Deleting buffer (Ka|jb)[aa] ...done

-----------------------------------------------
 RI-MP2 CORRELATION ENERGY:     -0.614636590 Eh
-----------------------------------------------


-------
TIMINGS
-------

Total time                :    0.239 sec
Integral trafo            :    0.187 sec ( 78.2%)
I/O of integrals          :    0.000 sec (  0.1%)
K(i,j) Operators          :    0.001 sec (  0.2%)
T(i,j) pair energies      :    0.000 sec (  0.1%)
V-calculation             :    0.001 sec (  0.5%)
V**(-1/2)                 :    0.018 sec (  7.4%)
Gamma(ia|P)               :    0.000 sec (  0.0%)
Gamma-Trafo               :    0.000 sec (  0.0%)
D(virtual)                :    0.000 sec (  0.0%)
D(internal)               :    0.000 sec (  0.0%)
W(virtual)                :    0.000 sec (  0.0%)
W(internal)               :    0.000 sec (  0.0%)
L(virtual)                :    0.000 sec (  0.0%)
L(internal)               :    0.000 sec (  0.0%)
G(D)                      :    0.000 sec (  0.0%)
G(Z)                      :    0.000 sec (  0.0%)
Z-Vector Solution         :    0.000 sec (  0.0%)
3-Index Derivative        :    0.000 sec (  0.0%)
2-Index Derivative        :    0.000 sec (  0.0%)
Separable Gradient        :    0.000 sec (  0.0%)


---------------------------------------
MP2 TOTAL ENERGY:     -172.717918227 Eh
---------------------------------------

Maximum memory used throughout the entire MP2-calculation: 84.1 MB

-------------------------   --------------------
FINAL SINGLE POINT ENERGY      -172.717918227429
-------------------------   --------------------


                            ***************************************
                            *     ORCA property calculations      *
                            ***************************************


  WARNING: The energy has been calculated at the MP2 level but the densities
           used in the property calculations are still SCF densities
           MP2 response densities have not been calculated 
           use %mp2 Density relaxed end
           or  %mp2 Density unrelaxed end

                                    ---------------------
                                    Active property flags
                                    ---------------------
   (+) Dipole Moment


------------------------------------------------------------------------------
                       ORCA ELECTRIC PROPERTIES CALCULATION
------------------------------------------------------------------------------

Dipole Moment Calculation                       ... on
Quadrupole Moment Calculation                   ... off
Polarizability Calculation                      ... off
GBWName                                         ... DZ_azetidine.gbw
Electron density                                ... DZ_azetidine.scfp
The origin for moment calculation is the CENTER OF MASS  = (-0.037073, -0.035040  0.000000)

-------------
DIPOLE MOMENT
-------------
                                X             Y             Z
Electronic contribution:     -0.64518      -1.01001      -0.00000
Nuclear contribution   :      1.18635       1.12130       0.00000
                        -----------------------------------------
Total Dipole Moment    :      0.54118       0.11129      -0.00000
                        -----------------------------------------
Magnitude (a.u.)       :      0.55250
Magnitude (Debye)      :      1.40435



--------------------
Rotational spectrum 
--------------------
 
Rotational constants in cm-1:     0.382903     0.380721     0.220264 
Rotational constants in MHz : 11479.134176 11413.721908  6603.360783 

 Dipole components along the rotational axes: 
x,y,z [a.u.] :    -0.204947    -0.000000    -0.513086 
x,y,z [Debye]:    -0.520934    -0.000000    -1.304161 

 

Timings for individual modules:

Sum of individual times         ...       27.985 sec (=   0.466 min)
GTO integral calculation        ...       13.220 sec (=   0.220 min)  47.2 %
SCF iterations                  ...       10.050 sec (=   0.167 min)  35.9 %
MP2 module                      ...        4.715 sec (=   0.079 min)  16.8 %
                             ****ORCA TERMINATED NORMALLY****
TOTAL RUN TIME: 0 days 0 hours 0 minutes 32 seconds 37 msec
