
                                 *****************
                                 * O   R   C   A *
                                 *****************

                                            #,                                       
                                            ###                                      
                                            ####                                     
                                            #####                                    
                                            ######                                   
                                           ########,                                 
                                     ,,################,,,,,                         
                               ,,#################################,,                 
                          ,,##########################################,,             
                       ,#########################################, ''#####,          
                    ,#############################################,,   '####,        
                  ,##################################################,,,,####,       
                ,###########''''           ''''###############################       
              ,#####''   ,,,,##########,,,,          '''####'''          '####       
            ,##' ,,,,###########################,,,                        '##       
           ' ,,###''''                  '''############,,,                           
         ,,##''                                '''############,,,,        ,,,,,,###''
      ,#''                                            '''#######################'''  
     '                                                          ''''####''''         
             ,#######,   #######,   ,#######,      ##                                
            ,#'     '#,  ##    ##  ,#'     '#,    #''#        ######   ,####,        
            ##       ##  ##   ,#'  ##            #'  '#       #        #'  '#        
            ##       ##  #######   ##           ,######,      #####,   #    #        
            '#,     ,#'  ##    ##  '#,     ,#' ,#      #,         ##   #,  ,#        
             '#######'   ##     ##  '#######'  #'      '#     #####' # '####'        



                  #######################################################
                  #                        -***-                        #
                  #          Department of theory and spectroscopy      #
                  #    Directorship and core code : Frank Neese         #
                  #        Max Planck Institute fuer Kohlenforschung    #
                  #                Kaiser Wilhelm Platz 1               #
                  #                 D-45470 Muelheim/Ruhr               #
                  #                      Germany                        #
                  #                                                     #
                  #                  All rights reserved                #
                  #                        -***-                        #
                  #######################################################


                         Program Version 5.0.3 -  RELEASE  -


 With contributions from (in alphabetic order):
   Daniel Aravena         : Magnetic Suceptibility
   Michael Atanasov       : Ab Initio Ligand Field Theory (pilot matlab implementation)
   Alexander A. Auer      : GIAO ZORA, VPT2 properties, NMR spectrum
   Ute Becker             : Parallelization
   Giovanni Bistoni       : ED, misc. LED, open-shell LED, HFLD
   Martin Brehm           : Molecular dynamics
   Dmytro Bykov           : SCF Hessian
   Vijay G. Chilkuri      : MRCI spin determinant printing, contributions to CSF-ICE
   Dipayan Datta          : RHF DLPNO-CCSD density
   Achintya Kumar Dutta   : EOM-CC, STEOM-CC
   Dmitry Ganyushin       : Spin-Orbit,Spin-Spin,Magnetic field MRCI
   Miquel Garcia          : C-PCM and meta-GGA Hessian, CC/C-PCM, Gaussian charge scheme
   Yang Guo               : DLPNO-NEVPT2, F12-NEVPT2, CIM, IAO-localization
   Andreas Hansen         : Spin unrestricted coupled pair/coupled cluster methods
   Benjamin Helmich-Paris : MC-RPA, TRAH-SCF, COSX integrals
   Lee Huntington         : MR-EOM, pCC
   Robert Izsak           : Overlap fitted RIJCOSX, COSX-SCS-MP3, EOM
   Marcus Kettner         : VPT2
   Christian Kollmar      : KDIIS, OOCD, Brueckner-CCSD(T), CCSD density, CASPT2, CASPT2-K
   Simone Kossmann        : Meta GGA functionals, TD-DFT gradient, OOMP2, MP2 Hessian
   Martin Krupicka        : Initial AUTO-CI
   Lucas Lang             : DCDCAS
   Marvin Lechner         : AUTO-CI (C++ implementation), FIC-MRCC
   Dagmar Lenk            : GEPOL surface, SMD
   Dimitrios Liakos       : Extrapolation schemes; Compound Job, initial MDCI parallelization
   Dimitrios Manganas     : Further ROCIS development; embedding schemes
   Dimitrios Pantazis     : SARC Basis sets
   Anastasios Papadopoulos: AUTO-CI, single reference methods and gradients
   Taras Petrenko         : DFT Hessian,TD-DFT gradient, ASA, ECA, R-Raman, ABS, FL, XAS/XES, NRVS
   Peter Pinski           : DLPNO-MP2, DLPNO-MP2 Gradient
   Christoph Reimann      : Effective Core Potentials
   Marius Retegan         : Local ZFS, SOC
   Christoph Riplinger    : Optimizer, TS searches, QM/MM, DLPNO-CCSD(T), (RO)-DLPNO pert. Triples
   Tobias Risthaus        : Range-separated hybrids, TD-DFT gradient, RPA, STAB
   Michael Roemelt        : Original ROCIS implementation
   Masaaki Saitow         : Open-shell DLPNO-CCSD energy and density
   Barbara Sandhoefer     : DKH picture change effects
   Avijit Sen             : IP-ROCIS
   Kantharuban Sivalingam : CASSCF convergence, NEVPT2, FIC-MRCI
   Bernardo de Souza      : ESD, SOC TD-DFT
   Georgi Stoychev        : AutoAux, RI-MP2 NMR, DLPNO-MP2 response
   Willem Van den Heuvel  : Paramagnetic NMR
   Boris Wezisla          : Elementary symmetry handling
   Frank Wennmohs         : Technical directorship


 We gratefully acknowledge several colleagues who have allowed us to
 interface, adapt or use parts of their codes:
   Stefan Grimme, W. Hujo, H. Kruse, P. Pracht,  : VdW corrections, initial TS optimization,
                  C. Bannwarth, S. Ehlert          DFT functionals, gCP, sTDA/sTD-DF
   Ed Valeev, F. Pavosevic, A. Kumar             : LibInt (2-el integral package), F12 methods
   Garnet Chan, S. Sharma, J. Yang, R. Olivares  : DMRG
   Ulf Ekstrom                                   : XCFun DFT Library
   Mihaly Kallay                                 : mrcc  (arbitrary order and MRCC methods)
   Jiri Pittner, Ondrej Demel                    : Mk-CCSD
   Frank Weinhold                                : gennbo (NPA and NBO analysis)
   Christopher J. Cramer and Donald G. Truhlar   : smd solvation model
   Lars Goerigk                                  : TD-DFT with DH, B97 family of functionals
   V. Asgeirsson, H. Jonsson                     : NEB implementation
   FAccTs GmbH                                   : IRC, NEB, NEB-TS, DLPNO-Multilevel, CI-OPT
                                                   MM, QMMM, 2- and 3-layer-ONIOM, Crystal-QMMM,
                                                   LR-CPCM, SF, NACMEs, symmetry and pop. for TD-DFT,
                                                   nearIR, NL-DFT gradient (VV10), updates on ESD,
                                                   ML-optimized integration grids
   S Lehtola, MJT Oliveira, MAL Marques          : LibXC Library
   Liviu Ungur et al                             : ANISO software


 Your calculation uses the libint2 library for the computation of 2-el integrals
 For citations please refer to: http://libint.valeyev.net

 Your ORCA version has been built with support for libXC version: 5.1.0
 For citations please refer to: https://tddft.org/programs/libxc/

 This ORCA versions uses:
   CBLAS   interface :  Fast vector & matrix operations
   LAPACKE interface :  Fast linear algebra routines
   SCALAPACK package :  Parallel linear algebra routines
   Shared memory     :  Shared parallel matrices
   BLAS/LAPACK       :  OpenBLAS 0.3.15  USE64BITINT DYNAMIC_ARCH NO_AFFINITY SkylakeX SINGLE_THREADED
        Core in use  :  SkylakeX
   Copyright (c) 2011-2014, The OpenBLAS Project


================================================================================

----- Orbital basis set information -----
Your calculation utilizes the basis: aug-cc-pVDZ 
    H, B-Ne : Obtained from the ccRepo (grant-hill.group.shef.ac.uk/ccrepo) Feb. 2017
              R. A. Kendall, T. H. Dunning, Jr., R. J. Harrison, J. Chem. Phys. 96, 6796 (1992)
         He : Obtained from the ccRepo (grant-hill.group.shef.ac.uk/ccrepo) Feb. 2017
              D. E. Woon, T. H. Dunning, Jr., J. Chem. Phys. 100, 2975 (1994)
  Li-Be, Na : Obtained from the ccRepo (grant-hill.group.shef.ac.uk/ccrepo) Feb. 2017
              B. P. Prascher, D. E. Woon, K. A. Peterson, T. H. Dunning, Jr., A. K. Wilson, Theor. Chem. Acc. 128, 69 (2011)
         Mg : Obtained from the Peterson Research Group Website (tyr0.chem.wsu.edu/~kipeters) Feb. 2017
              B. P. Prascher, D. E. Woon, K. A. Peterson, T. H. Dunning, Jr., A. K. Wilson, Theor. Chem. Acc. 128, 69 (2011)
      Al-Ar : Obtained from the ccRepo (grant-hill.group.shef.ac.uk/ccrepo) Feb. 2017
              D. E. Woon, T. H. Dunning, Jr., J. Chem. Phys. 98, 1358 (1993)
      Sc-Zn : Obtained from the ccRepo (grant-hill.group.shef.ac.uk/ccrepo) Feb. 2017
              N. B. Balabanov, K. A. Peterson, J. Chem. Phys. 123, 064107 (2005)
              N. B. Balabanov, K. A. Peterson, J. Chem. Phys. 125, 074110 (2006)
      Ga-Kr : Obtained from the ccRepo (grant-hill.group.shef.ac.uk/ccrepo) Feb. 2017
              A. K. Wilson, D. E. Woon, K. A. Peterson, T. H. Dunning, Jr., J. Chem. Phys. 110, 7667 (1999)

----- AuxC basis set information -----
Your calculation utilizes the auxiliary basis: aug-cc-pVDZ/C 
  H-He, B, Ne, Al-Ar, Ga-Ge, Se-Br : Obtained from the EMSL Basis Set Exchange (bse.pnl.gov) Feb. 2017
                                     F. Weigend, A. Kohn, C. Hattig, J. Chem. Phys. 116, 3175 (2002)
                            Be, Mg : Obtained from the TURBOMOLE 7.0 basis set library
                                     C. Haettig, Phys. Chem. Chem. Phys. 7, 59 (2005)
                               C-F : Obtained from the EMSL Basis Set Exchange (bse.pnl.gov) Feb. 2017
                                     C. Haettig, Phys. Chem. Chem. Phys. 7, 59 (2005)
                                     F. Weigend, A. Kohn, C. Hattig, J. Chem. Phys. 116, 3175 (2002)
                                As : Obtained from the EMSL Basis Set Exchange (bse.pnl.gov) Feb. 2017
                                     C. Haettig, G. Schmitz, J. Kossmann, Phys. Chem. Chem. Phys. 14, 6549 (2012)
                                Kr : Obtained from the TURBOMOLE 7.0 basis set library
                                     F. Weigend, A. Kohn, C. Hattig, J. Chem. Phys. 116, 3175 (2002)
                                     S function revised in Sep. 2009

================================================================================
                                        WARNINGS
                       Please study these warnings very carefully!
================================================================================


WARNING: No MP2 level density has been requested!
         To caclulate MP2 level properties use
         %mp2 Density relaxed end
         or
         %mp2 Density unrelaxed end

WARNING: Post HF methods need fully converged wavefunctions
  ===> : Setting SCFConvForced true
         You can overwrite this default with %scf ConvForced false 


INFO   : the flag for use of the SHARK integral package has been found!

================================================================================
                                       INPUT FILE
================================================================================
NAME = DZ_chlorodifluoromethane.inp
|  1> !ri-mp2 aug-cc-pvdz aug-cc-pvdz/c tightscf
|  2> %pal nprocs 16 end
|  3> 
|  4> * xyz 0 1
|  5> C      0.570687   -0.092261    0.000000
|  6> F      0.570687   -0.879813    1.088316
|  7> F      0.570687   -0.879813   -1.088316
|  8> Cl    -0.890989    0.932054    0.000000
|  9> H      1.450337    0.545289    0.000000
| 10> *
| 11> 
| 12>                          ****END OF INPUT****
================================================================================

                       ****************************
                       * Single Point Calculation *
                       ****************************

---------------------------------
CARTESIAN COORDINATES (ANGSTROEM)
---------------------------------
  C      0.570687   -0.092261    0.000000
  F      0.570687   -0.879813    1.088316
  F      0.570687   -0.879813   -1.088316
  Cl    -0.890989    0.932054    0.000000
  H      1.450337    0.545289    0.000000

----------------------------
CARTESIAN COORDINATES (A.U.)
----------------------------
  NO LB      ZA    FRAG     MASS         X           Y           Z
   0 C     6.0000    0    12.011    1.078442   -0.174348    0.000000
   1 F     9.0000    0    18.998    1.078442   -1.662606    2.056619
   2 F     9.0000    0    18.998    1.078442   -1.662606   -2.056619
   3 Cl   17.0000    0    35.453   -1.683725    1.761327    0.000000
   4 H     1.0000    0     1.008    2.740740    1.030447    0.000000

--------------------------------
INTERNAL COORDINATES (ANGSTROEM)
--------------------------------
 C      0   0   0     0.000000000000     0.00000000     0.00000000
 F      1   0   0     1.343380016436     0.00000000     0.00000000
 F      1   2   0     1.343380016436   108.21778557     0.00000000
 Cl     1   2   3     1.784857963033   109.66025006   119.58469059
 H      1   2   3     1.086395013335   110.12310344   239.58001732

---------------------------
INTERNAL COORDINATES (A.U.)
---------------------------
 C      0   0   0     0.000000000000     0.00000000     0.00000000
 F      1   0   0     2.538620324847     0.00000000     0.00000000
 F      1   2   0     2.538620324847   108.21778557     0.00000000
 Cl     1   2   3     3.372892738080   109.66025006   119.58469059
 H      1   2   3     2.052989048462   110.12310344   239.58001732

---------------------
BASIS SET INFORMATION
---------------------
There are 4 groups of distinct atoms

 Group   1 Type C   : 18s5p2d contracted to 4s3p2d pattern {8811/311/11}
 Group   2 Type F   : 18s5p2d contracted to 4s3p2d pattern {8811/311/11}
 Group   3 Type Cl  : 35s16p2d contracted to 5s4p2d pattern {11111111/7711/11}
 Group   4 Type H   : 5s2p contracted to 3s2p pattern {311/11}

Atom   0C    basis set group =>   1
Atom   1F    basis set group =>   2
Atom   2F    basis set group =>   2
Atom   3Cl   basis set group =>   3
Atom   4H    basis set group =>   4
---------------------------------
AUXILIARY/C BASIS SET INFORMATION
---------------------------------
There are 4 groups of distinct atoms

 Group   1 Type C   : 8s6p5d3f contracted to 8s6p5d3f pattern {11111111/111111/11111/111}
 Group   2 Type F   : 8s6p5d3f contracted to 8s6p5d3f pattern {11111111/111111/11111/111}
 Group   3 Type Cl  : 10s8p6d4f contracted to 10s8p6d4f pattern {1111111111/11111111/111111/1111}
 Group   4 Type H   : 4s3p2d contracted to 4s3p2d pattern {1111/111/11}

Atom   0C    basis set group =>   1
Atom   1F    basis set group =>   2
Atom   2F    basis set group =>   2
Atom   3Cl   basis set group =>   3
Atom   4H    basis set group =>   4


           ************************************************************
           *        Program running with 16 parallel MPI-processes    *
           *              working on a common directory               *
           ************************************************************
------------------------------------------------------------------------------
                           ORCA GTO INTEGRAL CALCULATION
------------------------------------------------------------------------------
------------------------------------------------------------------------------
                   ___                                                        
                  /   \      - P O W E R E D   B Y -                         
                 /     \                                                     
                 |  |  |   _    _      __       _____    __    __             
                 |  |  |  | |  | |    /  \     |  _  \  |  |  /  |          
                  \  \/   | |  | |   /    \    | | | |  |  | /  /          
                 / \  \   | |__| |  /  /\  \   | |_| |  |  |/  /          
                |  |  |   |  __  | /  /__\  \  |    /   |      \           
                |  |  |   | |  | | |   __   |  |    \   |  |\   \          
                \     /   | |  | | |  |  |  |  | |\  \  |  | \   \       
                 \___/    |_|  |_| |__|  |__|  |_| \__\ |__|  \__/        
                                                                              
                      - O R C A' S   B I G   F R I E N D -                    
                                      &                                       
                       - I N T E G R A L  F E E D E R -                       
                                                                              
 v1 FN, 2020, v2 2021                                                         
------------------------------------------------------------------------------


Reading SHARK input file DZ_chlorodifluoromethane.SHARKINP.tmp ... ok
----------------------
SHARK INTEGRAL PACKAGE
----------------------

Number of atoms                             ...      5
Number of basis functions                   ...    146
Number of shells                            ...     74
Maximum angular momentum                    ...      2
Integral batch strategy                     ... SHARK/LIBINT Hybrid
RI-J (if used) integral strategy            ... SPLIT-RIJ (Revised 2003 algorithm where possible)
Printlevel                                  ...      1
Contraction scheme used                     ... PARTIAL GENERAL contraction
Coulomb Range Separation                    ... NOT USED
Exchange Range Separation                   ... NOT USED
Finite Nucleus Model                        ... NOT USED
Auxiliary Coulomb fitting basis             ... NOT available
Auxiliary J/K fitting basis                 ... NOT available
Auxiliary Correlation fitting basis         ... AVAILABLE
   # of basis functions in Aux-C            ...    331
   # of shells in Aux-C                     ...    103
   Maximum angular momentum in Aux-C        ...      3
Auxiliary 'external' fitting basis          ... NOT available
Integral threshold                          ...     2.500000e-11
Primitive cut-off                           ...     2.500000e-12
Primitive pair pre-selection threshold      ...     2.500000e-12

Calculating pre-screening integrals         ... done (  0.0 sec) Dimension = 74
Calculating pre-screening integrals (ORCA)  ... done (  0.1 sec) Dimension = 43
Organizing shell pair data                  ... done (  0.0 sec)
Shell pair information
Total number of shell pairs                 ...      2775
Shell pairs after pre-screening             ...      2247
Total number of primitive shell pairs       ...      3415
Primitive shell pairs kept                  ...      2701
          la=0 lb=0:    728 shell pairs
          la=1 lb=0:    779 shell pairs
          la=1 lb=1:    204 shell pairs
          la=2 lb=0:    348 shell pairs
          la=2 lb=1:    152 shell pairs
          la=2 lb=2:     36 shell pairs

Calculating one electron integrals          ... done (  0.0 sec)
Calculating RI/C V-Matrix + Cholesky decomp.... done (  0.0 sec)
Calculating Nuclear repulsion               ... done (  0.0 sec) ENN=    166.971338941512 Eh

SHARK setup successfully completed in   0.2 seconds

Maximum memory used throughout the entire GTOINT-calculation: 26.6 MB


           ************************************************************
           *        Program running with 16 parallel MPI-processes    *
           *              working on a common directory               *
           ************************************************************
-------------------------------------------------------------------------------
                                 ORCA SCF
-------------------------------------------------------------------------------

------------
SCF SETTINGS
------------
Hamiltonian:
 Ab initio Hamiltonian  Method          .... Hartree-Fock(GTOs)


General Settings:
 Integral files         IntName         .... DZ_chlorodifluoromethane
 Hartree-Fock type      HFTyp           .... RHF
 Total Charge           Charge          ....    0
 Multiplicity           Mult            ....    1
 Number of Electrons    NEL             ....   42
 Basis Dimension        Dim             ....  105
 Nuclear Repulsion      ENuc            ....    166.9713389415 Eh

Convergence Acceleration:
 DIIS                   CNVDIIS         .... on
   Start iteration      DIISMaxIt       ....    12
   Startup error        DIISStart       ....  0.200000
   # of expansion vecs  DIISMaxEq       ....     5
   Bias factor          DIISBfac        ....   1.050
   Max. coefficient     DIISMaxC        ....  10.000
 Trust-Rad. Augm. Hess. CNVTRAH         .... auto
   Auto Start mean grad. ratio tolernc. ....  1.125000
   Auto Start start iteration           ....    20
   Auto Start num. interpolation iter.  ....    10
   Max. Number of Micro iterations      ....    16
   Max. Number of Macro iterations      .... Maxiter - #DIIS iter
   Number of Davidson start vectors     ....     2
   Converg. threshold I  (grad. norm)   ....   1.000e-05
   Converg. threshold II (energy diff.) ....   1.000e-08
   Grad. Scal. Fac. for Micro threshold ....   0.100
   Minimum threshold for Micro iter.    ....   0.010
   NR start threshold (gradient norm)   ....   0.001
   Initial trust radius                 ....   0.400
   Minimum AH scaling param. (alpha)    ....   1.000
   Maximum AH scaling param. (alpha)    .... 1000.000
   Orbital update algorithm             .... Taylor
   White noise on init. David. guess    .... on
   Maximum white noise                  ....   0.010
   Quad. conv. algorithm                .... NR
 SOSCF                  CNVSOSCF        .... on
   Start iteration      SOSCFMaxIt      ....   150
   Startup grad/error   SOSCFStart      ....  0.003300
 Level Shifting         CNVShift        .... on
   Level shift para.    LevelShift      ....    0.2500
   Turn off err/grad.   ShiftErr        ....    0.0010
 Zerner damping         CNVZerner       .... off
 Static damping         CNVDamp         .... on
   Fraction old density DampFac         ....    0.7000
   Max. Damping (<1)    DampMax         ....    0.9800
   Min. Damping (>=0)   DampMin         ....    0.0000
   Turn off err/grad.   DampErr         ....    0.1000
 Fernandez-Rico         CNVRico         .... off

SCF Procedure:
 Maximum # iterations   MaxIter         ....   125
 SCF integral mode      SCFMode         .... Direct
   Integral package                     .... SHARK and LIBINT hybrid scheme
 Reset frequency        DirectResetFreq ....    20
 Integral Threshold     Thresh          ....  2.500e-11 Eh
 Primitive CutOff       TCut            ....  2.500e-12 Eh

Convergence Tolerance:
 Convergence Check Mode ConvCheckMode   .... Total+1el-Energy
 Convergence forced     ConvForced      .... 1
 Energy Change          TolE            ....  1.000e-08 Eh
 1-El. energy change                    ....  1.000e-05 Eh
 Orbital Gradient       TolG            ....  1.000e-05
 Orbital Rotation angle TolX            ....  1.000e-05
 DIIS Error             TolErr          ....  5.000e-07


Diagonalization of the overlap matrix:
Smallest eigenvalue                        ... 6.715e-04
Time for diagonalization                   ...    0.002 sec
Threshold for overlap eigenvalues          ... 1.000e-08
Number of eigenvalues below threshold      ... 0
Time for construction of square roots      ...    0.067 sec
Total time needed                          ...    0.070 sec

Time for model grid setup =    0.037 sec

------------------------------
INITIAL GUESS: MODEL POTENTIAL
------------------------------
Loading Hartree-Fock densities                     ... done
Calculating cut-offs                               ... done
Initializing the effective Hamiltonian             ... done
Setting up the integral package (SHARK)            ... done
Starting the Coulomb interaction                   ... done (   0.0 sec)
Reading the grid                                   ... done
Mapping shells                                     ... done
Starting the XC term evaluation                    ... done (   0.0 sec)
Transforming the Hamiltonian                       ... done (   0.0 sec)
Diagonalizing the Hamiltonian                      ... done (   0.0 sec)
Back transforming the eigenvectors                 ... done (   0.0 sec)
Now organizing SCF variables                       ... done
                      ------------------
                      INITIAL GUESS DONE (   0.1 sec)
                      ------------------
--------------
SCF ITERATIONS
--------------
ITER       Energy         Delta-E        Max-DP      RMS-DP      [F,P]     Damp
               ***  Starting incremental Fock matrix formation  ***
  0   -696.8014585798   0.000000000000 0.04351174  0.00177106  0.1068296 0.7000
  1   -696.8166889770  -0.015230397211 0.03642010  0.00139500  0.0766295 0.7000
                               ***Turning on DIIS***
  2   -696.8272072602  -0.010518283246 0.09169842  0.00340203  0.0546797 0.0000
  3   -696.8482320631  -0.021024802921 0.01113358  0.00052272  0.0108368 0.0000
  4   -696.8725861448  -0.024354081675 0.00383389  0.00018706  0.0058568 0.0000
                      *** Initiating the SOSCF procedure ***
                           *** Shutting down DIIS ***
                      *** Re-Reading the Fockian *** 
                      *** Removing any level shift *** 
ITER      Energy       Delta-E        Grad      Rot      Max-DP    RMS-DP
  5   -696.84567110   0.0269150398  0.001461  0.001461  0.001414  0.000083
               *** Restarting incremental Fock matrix formation ***
  6   -696.85388395  -0.0082128405  0.000457  0.000593  0.000598  0.000038
  7   -696.85388953  -0.0000055857  0.000276  0.000622  0.000569  0.000029
  8   -696.85389077  -0.0000012438  0.000047  0.000050  0.000084  0.000004
  9   -696.85389083  -0.0000000560  0.000015  0.000014  0.000023  0.000001
 10   -696.85389083  -0.0000000034  0.000004  0.000007  0.000013  0.000001
                 **** Energy Check signals convergence ****
              ***Rediagonalizing the Fockian in SOSCF/NRSCF***

               *****************************************************
               *                     SUCCESS                       *
               *           SCF CONVERGED AFTER  11 CYCLES          *
               *****************************************************


----------------
TOTAL SCF ENERGY
----------------

Total Energy       :         -696.85389084 Eh          -18962.35840 eV

Components:
Nuclear Repulsion  :          166.97133894 Eh            4543.52112 eV
Electronic Energy  :         -863.82522978 Eh          -23505.87952 eV
One Electron Energy:        -1297.11071886 Eh          -35296.17708 eV
Two Electron Energy:          433.28548908 Eh           11790.29757 eV

Virial components:
Potential Energy   :        -1393.42587802 Eh          -37917.04581 eV
Kinetic Energy     :          696.57198718 Eh           18954.68741 eV
Virial Ratio       :            2.00040470


---------------
SCF CONVERGENCE
---------------

  Last Energy change         ...   -6.9167e-10  Tolerance :   1.0000e-08
  Last MAX-Density change    ...    1.8321e-06  Tolerance :   1.0000e-07
  Last RMS-Density change    ...    9.5822e-08  Tolerance :   5.0000e-09
  Last Orbital Gradient      ...    9.3492e-07  Tolerance :   1.0000e-05
  Last Orbital Rotation      ...    1.1150e-06  Tolerance :   1.0000e-05

             **** THE GBW FILE WAS UPDATED (DZ_chlorodifluoromethane.gbw) ****
             **** DENSITY DZ_chlorodifluoromethane.scfp WAS UPDATED ****
             **** ENERGY FILE WAS UPDATED (DZ_chlorodifluoromethane.en.tmp) ****
             **** THE GBW FILE WAS UPDATED (DZ_chlorodifluoromethane.gbw) ****
             **** DENSITY DZ_chlorodifluoromethane.scfp WAS UPDATED ****
----------------
ORBITAL ENERGIES
----------------

  NO   OCC          E(Eh)            E(eV) 
   0   2.0000    -104.863076     -2853.4694 
   1   2.0000     -26.361342      -717.3286 
   2   2.0000     -26.361324      -717.3281 
   3   2.0000     -11.499865      -312.9272 
   4   2.0000     -10.590036      -288.1695 
   5   2.0000      -8.057693      -219.2610 
   6   2.0000      -8.054171      -219.1651 
   7   2.0000      -8.054147      -219.1645 
   8   2.0000      -1.711553       -46.5737 
   9   2.0000      -1.645922       -44.7878 
  10   2.0000      -1.162467       -31.6323 
  11   2.0000      -0.961508       -26.1640 
  12   2.0000      -0.823083       -22.3972 
  13   2.0000      -0.802203       -21.8291 
  14   2.0000      -0.772641       -21.0246 
  15   2.0000      -0.701009       -19.0754 
  16   2.0000      -0.666621       -18.1397 
  17   2.0000      -0.653821       -17.7914 
  18   2.0000      -0.553739       -15.0680 
  19   2.0000      -0.488839       -13.3020 
  20   2.0000      -0.484806       -13.1922 
  21   0.0000       0.035207         0.9580 
  22   0.0000       0.075629         2.0580 
  23   0.0000       0.094118         2.5611 
  24   0.0000       0.094462         2.5705 
  25   0.0000       0.123105         3.3498 
  26   0.0000       0.151763         4.1297 
  27   0.0000       0.153483         4.1765 
  28   0.0000       0.157497         4.2857 
  29   0.0000       0.216029         5.8784 
  30   0.0000       0.237529         6.4635 
  31   0.0000       0.250947         6.8286 
  32   0.0000       0.273059         7.4303 
  33   0.0000       0.281930         7.6717 
  34   0.0000       0.309391         8.4190 
  35   0.0000       0.317208         8.6317 
  36   0.0000       0.330447         8.9919 
  37   0.0000       0.337662         9.1883 
  38   0.0000       0.357711         9.7338 
  39   0.0000       0.367728        10.0064 
  40   0.0000       0.434773        11.8308 
  41   0.0000       0.436798        11.8859 
  42   0.0000       0.467016        12.7082 
  43   0.0000       0.479209        13.0399 
  44   0.0000       0.511059        13.9066 
  45   0.0000       0.530082        14.4243 
  46   0.0000       0.541388        14.7319 
  47   0.0000       0.597440        16.2572 
  48   0.0000       0.626264        17.0415 
  49   0.0000       0.635799        17.3010 
  50   0.0000       0.684331        18.6216 
  51   0.0000       0.700447        19.0601 
  52   0.0000       0.748024        20.3548 
  53   0.0000       0.788236        21.4490 
  54   0.0000       0.804757        21.8986 
  55   0.0000       0.894590        24.3430 
  56   0.0000       0.927859        25.2483 
  57   0.0000       0.955524        26.0011 
  58   0.0000       1.013640        27.5825 
  59   0.0000       1.059444        28.8289 
  60   0.0000       1.113737        30.3063 
  61   0.0000       1.200264        32.6609 
  62   0.0000       1.336629        36.3715 
  63   0.0000       1.356264        36.9058 
  64   0.0000       1.368732        37.2451 
  65   0.0000       1.397559        38.0295 
  66   0.0000       1.410356        38.3777 
  67   0.0000       1.412486        38.4357 
  68   0.0000       1.425746        38.7965 
  69   0.0000       1.484263        40.3889 
  70   0.0000       1.514238        41.2045 
  71   0.0000       1.529951        41.6321 
  72   0.0000       1.564835        42.5813 
  73   0.0000       1.612793        43.8863 
  74   0.0000       1.612830        43.8873 
  75   0.0000       1.706507        46.4364 
  76   0.0000       1.707161        46.4542 
  77   0.0000       1.797477        48.9118 
  78   0.0000       1.811066        49.2816 
  79   0.0000       1.820947        49.5505 
  80   0.0000       1.911147        52.0050 
  81   0.0000       1.929459        52.5032 
  82   0.0000       2.001486        54.4632 
  83   0.0000       2.102118        57.2015 
  84   0.0000       2.185829        59.4794 
  85   0.0000       2.201084        59.8945 
  86   0.0000       2.257272        61.4235 
  87   0.0000       2.364484        64.3409 
  88   0.0000       2.423561        65.9484 
  89   0.0000       2.465310        67.0845 
  90   0.0000       2.628210        71.5172 
  91   0.0000       2.665748        72.5387 
  92   0.0000       2.806253        76.3620 
  93   0.0000       3.442865        93.6851 
  94   0.0000       3.577264        97.3423 
  95   0.0000       4.917227       133.8045 
  96   0.0000       4.922122       133.9378 
  97   0.0000       4.923681       133.9802 
  98   0.0000       4.957442       134.8989 
  99   0.0000       4.977945       135.4568 
 100   0.0000       5.019869       136.5976 
 101   0.0000       5.043485       137.2402 
 102   0.0000       5.056059       137.5824 
 103   0.0000       5.072343       138.0255 
 104   0.0000       5.204170       141.6127 

                    ********************************
                    * MULLIKEN POPULATION ANALYSIS *
                    ********************************

-----------------------
MULLIKEN ATOMIC CHARGES
-----------------------
   0 C :    1.153733
   1 F :   -0.492663
   2 F :   -0.492663
   3 Cl:   -0.136471
   4 H :   -0.031935
Sum of atomic charges:   -0.0000000

--------------------------------
MULLIKEN REDUCED ORBITAL CHARGES
--------------------------------
  0 C s       :     2.821410  s :     2.821410
      pz      :     0.478032  p :     1.864812
      px      :     0.755441
      py      :     0.631339
      dz2     :     0.051173  d :     0.160045
      dxz     :     0.005072
      dyz     :     0.042592
      dx2y2   :     0.013497
      dxy     :     0.047711
  1 F s       :     4.055317  s :     4.055317
      pz      :     1.666897  p :     5.414297
      px      :     1.964269
      py      :     1.783131
      dz2     :     0.004947  d :     0.023050
      dxz     :     0.004260
      dyz     :     0.009377
      dx2y2   :     0.002409
      dxy     :     0.002058
  2 F s       :     4.055317  s :     4.055317
      pz      :     1.666897  p :     5.414297
      px      :     1.964269
      py      :     1.783131
      dz2     :     0.004947  d :     0.023050
      dxz     :     0.004260
      dyz     :     0.009377
      dx2y2   :     0.002409
      dxy     :     0.002058
  3 Cls       :     6.014135  s :     6.014135
      pz      :     3.957472  p :    11.070322
      px      :     3.415396
      py      :     3.697454
      dz2     :     0.010153  d :     0.052014
      dxz     :     0.003257
      dyz     :     0.005338
      dx2y2   :     0.004215
      dxy     :     0.029052
  4 H s       :     1.012814  s :     1.012814
      pz      :     0.013774  p :     0.019121
      px      :    -0.016305
      py      :     0.021652


                     *******************************
                     * LOEWDIN POPULATION ANALYSIS *
                     *******************************

----------------------
LOEWDIN ATOMIC CHARGES
----------------------
   0 C :   -0.484840
   1 F :    0.013651
   2 F :    0.013651
   3 Cl:    0.480389
   4 H :   -0.022850

-------------------------------
LOEWDIN REDUCED ORBITAL CHARGES
-------------------------------
  0 C s       :     2.642082  s :     2.642082
      pz      :     0.686827  p :     2.418827
      px      :     0.924662
      py      :     0.807339
      dz2     :     0.323392  d :     1.423930
      dxz     :     0.217951
      dyz     :     0.343374
      dx2y2   :     0.218169
      dxy     :     0.321045
  1 F s       :     3.615254  s :     3.615254
      pz      :     1.661138  p :     5.272995
      px      :     1.862747
      py      :     1.749110
      dz2     :     0.023969  d :     0.098100
      dxz     :     0.018072
      dyz     :     0.034970
      dx2y2   :     0.009149
      dxy     :     0.011940
  2 F s       :     3.615254  s :     3.615254
      pz      :     1.661138  p :     5.272995
      px      :     1.862747
      py      :     1.749110
      dz2     :     0.023969  d :     0.098100
      dxz     :     0.018072
      dyz     :     0.034970
      dx2y2   :     0.009149
      dxy     :     0.011940
  3 Cls       :     5.535556  s :     5.535556
      pz      :     3.795677  p :    10.839813
      px      :     3.422899
      py      :     3.621238
      dz2     :     0.021349  d :     0.144241
      dxz     :     0.012537
      dyz     :     0.012241
      dx2y2   :     0.039226
      dxy     :     0.058888
  4 H s       :     0.777234  s :     0.777234
      pz      :     0.040000  p :     0.245616
      px      :     0.129032
      py      :     0.076584


                      *****************************
                      * MAYER POPULATION ANALYSIS *
                      *****************************

  NA   - Mulliken gross atomic population
  ZA   - Total nuclear charge
  QA   - Mulliken gross atomic charge
  VA   - Mayer's total valence
  BVA  - Mayer's bonded valence
  FA   - Mayer's free valence

  ATOM       NA         ZA         QA         VA         BVA        FA
  0 C      4.8463     6.0000     1.1537     3.2500     3.2500     0.0000
  1 F      9.4927     9.0000    -0.4927     0.5818     0.5818     0.0000
  2 F      9.4927     9.0000    -0.4927     0.5818     0.5818    -0.0000
  3 Cl    17.1365    17.0000    -0.1365     1.0648     1.0648    -0.0000
  4 H      1.0319     1.0000    -0.0319     0.9232     0.9232    -0.0000

  Mayer bond orders larger than 0.100000
B(  0-C ,  1-F ) :   0.5560 B(  0-C ,  2-F ) :   0.5560 B(  0-C ,  3-Cl) :   1.1588 
B(  0-C ,  4-H ) :   0.9792 

-------
TIMINGS
-------

Total SCF time: 0 days 0 hours 0 min 1 sec 

Total time                  ....       1.918 sec
Sum of individual times     ....       1.536 sec  ( 80.1%)

Fock matrix formation       ....       1.325 sec  ( 69.1%)
Diagonalization             ....       0.045 sec  (  2.3%)
Density matrix formation    ....       0.002 sec  (  0.1%)
Population analysis         ....       0.028 sec  (  1.5%)
Initial guess               ....       0.036 sec  (  1.9%)
Orbital Transformation      ....       0.000 sec  (  0.0%)
Orbital Orthonormalization  ....       0.000 sec  (  0.0%)
DIIS solution               ....       0.041 sec  (  2.1%)
SOSCF solution              ....       0.023 sec  (  1.2%)

Maximum memory used throughout the entire SCF-calculation: 227.0 MB


           ************************************************************
           *        Program running with 16 parallel MPI-processes    *
           *              working on a common directory               *
           ************************************************************

------------------------------------------------------------------------------
                                ORCA  MP2 
------------------------------------------------------------------------------

Freezing NCore=16 chemical core electrons

-------------
RI-MP2 ENERGY
-------------
Dimension of the basis                    ...  105
Memory devoted to MP2                     ...  256 MB   
Data format for buffers                   ... DOUBLE
Compression type for matrix containers    ... UNCOMPRESSED
Overall scaling of the MP2 energy         ...   1.000e+00
Calculating two index integrals           ... done (    0.001 sec)
Cholesky decomposition of V**-1           ... done (    0.022 sec)

-----------------
RI-TRANSFORMATION (AUX index driven)
-----------------

Dimension of the orbital-basis         ... 105
Dimension of the aux-basis             ... 331
Transformation of internal/external MOs...    8-  20 to   21- 104
Number Format for Storage              ... Double (8 Byte)
Integral mode                          ... Direct

First Phase: integral generation and transformation of MO indices
  Aux angular momentum 0               ... done (    0.003 sec)
  Aux angular momentum 1               ... done (    0.003 sec)
  Aux angular momentum 2               ... done (    0.004 sec)
  Aux angular momentum 3               ... done (    0.002 sec)
Closing buffer VIA ( 0.00 GB; CompressionRatio= 1.00)
  Phase 1 completed in     0.111 sec
Second Phase: sorting and transformation of aux index

IA-Transformation
Memory available                       ... 214 MB 
Max. # MO pairs treated in a batch     ... 1    
# of internal orbitals                 ... 13
# batches for internal orbitals        ... 1
Closing buffer IAV ( 0.00 GB; CompressionRatio= 1.00)
(ia|v) transformation done in     0.013 sec

  Phase 2 completed in     0.039 sec
RI-Integral transformation completed in     0.156 sec
Opening buffers                              ... done

Starting loop over batches of integrals:

Operator 0  - window                       ... (  8- 20)x( 21-104)
Operator 0  - Memory available             ...   256 MB
Operator 0  - Memory needed per MO         ...   0.2 MB
Operator 0  - Number of orbitals per batch ... 1
Operator 0  - Number of batches            ... 1

OPERATOR  0   PASS   0:  MOs     8 ...    8 +    9 ...    9 +   10 ...   10 +   11 ...   11
                            +   12 ...   12 +   13 ...   13 +   14 ...   14 +   15 ...   15
                            +   16 ...   16 +   17 ...   17 +   18 ...   18 +   19 ...   19
                            +   20 ...   20
  Reading integrals       ... ok
Time spent in pair loops =     0.003 sec
Deleting buffer (Ka|jb)[aa] ...done

-----------------------------------------------
 RI-MP2 CORRELATION ENERGY:     -0.694604372 Eh
-----------------------------------------------


-------
TIMINGS
-------

Total time                :    0.216 sec
Integral trafo            :    0.163 sec ( 75.3%)
I/O of integrals          :    0.000 sec (  0.1%)
K(i,j) Operators          :    0.000 sec (  0.1%)
T(i,j) pair energies      :    0.000 sec (  0.0%)
V-calculation             :    0.001 sec (  0.4%)
V**(-1/2)                 :    0.022 sec ( 10.2%)
Gamma(ia|P)               :    0.000 sec (  0.0%)
Gamma-Trafo               :    0.000 sec (  0.0%)
D(virtual)                :    0.000 sec (  0.0%)
D(internal)               :    0.000 sec (  0.0%)
W(virtual)                :    0.000 sec (  0.0%)
W(internal)               :    0.000 sec (  0.0%)
L(virtual)                :    0.000 sec (  0.0%)
L(internal)               :    0.000 sec (  0.0%)
G(D)                      :    0.000 sec (  0.0%)
G(Z)                      :    0.000 sec (  0.0%)
Z-Vector Solution         :    0.000 sec (  0.0%)
3-Index Derivative        :    0.000 sec (  0.0%)
2-Index Derivative        :    0.000 sec (  0.0%)
Separable Gradient        :    0.000 sec (  0.0%)


---------------------------------------
MP2 TOTAL ENERGY:     -697.548495207 Eh
---------------------------------------

Maximum memory used throughout the entire MP2-calculation: 81.9 MB

-------------------------   --------------------
FINAL SINGLE POINT ENERGY      -697.548495207172
-------------------------   --------------------


                            ***************************************
                            *     ORCA property calculations      *
                            ***************************************


  WARNING: The energy has been calculated at the MP2 level but the densities
           used in the property calculations are still SCF densities
           MP2 response densities have not been calculated 
           use %mp2 Density relaxed end
           or  %mp2 Density unrelaxed end

                                    ---------------------
                                    Active property flags
                                    ---------------------
   (+) Dipole Moment


------------------------------------------------------------------------------
                       ORCA ELECTRIC PROPERTIES CALCULATION
------------------------------------------------------------------------------

Dipole Moment Calculation                       ... on
Quadrupole Moment Calculation                   ... off
Polarizability Calculation                      ... off
GBWName                                         ... DZ_chlorodifluoromethane.gbw
Electron density                                ... DZ_chlorodifluoromethane.scfp
The origin for moment calculation is the CENTER OF MASS  = (-0.034704, -0.020626  0.000000)

-------------
DIPOLE MOMENT
-------------
                                X             Y             Z
Electronic contribution:     -0.96468      -0.42833      -0.00000
Nuclear contribution   :      1.45759       0.86629       0.00000
                        -----------------------------------------
Total Dipole Moment    :      0.49292       0.43796      -0.00000
                        -----------------------------------------
Magnitude (a.u.)       :      0.65937
Magnitude (Debye)      :      1.67600



--------------------
Rotational spectrum 
--------------------
 
Rotational constants in cm-1:     0.339296     0.157365     0.114330 
Rotational constants in MHz : 10171.849170  4717.682365  3427.516198 

 Dipole components along the rotational axes: 
x,y,z [a.u.] :    -0.008764    -0.000000    -0.659317 
x,y,z [Debye]:    -0.022277    -0.000000    -1.675849 

 

Timings for individual modules:

Sum of individual times         ...       21.330 sec (=   0.356 min)
GTO integral calculation        ...        7.998 sec (=   0.133 min)  37.5 %
SCF iterations                  ...        8.554 sec (=   0.143 min)  40.1 %
MP2 module                      ...        4.778 sec (=   0.080 min)  22.4 %
                             ****ORCA TERMINATED NORMALLY****
TOTAL RUN TIME: 0 days 0 hours 0 minutes 26 seconds 454 msec
