
                                 *****************
                                 * O   R   C   A *
                                 *****************

                                            #,                                       
                                            ###                                      
                                            ####                                     
                                            #####                                    
                                            ######                                   
                                           ########,                                 
                                     ,,################,,,,,                         
                               ,,#################################,,                 
                          ,,##########################################,,             
                       ,#########################################, ''#####,          
                    ,#############################################,,   '####,        
                  ,##################################################,,,,####,       
                ,###########''''           ''''###############################       
              ,#####''   ,,,,##########,,,,          '''####'''          '####       
            ,##' ,,,,###########################,,,                        '##       
           ' ,,###''''                  '''############,,,                           
         ,,##''                                '''############,,,,        ,,,,,,###''
      ,#''                                            '''#######################'''  
     '                                                          ''''####''''         
             ,#######,   #######,   ,#######,      ##                                
            ,#'     '#,  ##    ##  ,#'     '#,    #''#        ######   ,####,        
            ##       ##  ##   ,#'  ##            #'  '#       #        #'  '#        
            ##       ##  #######   ##           ,######,      #####,   #    #        
            '#,     ,#'  ##    ##  '#,     ,#' ,#      #,         ##   #,  ,#        
             '#######'   ##     ##  '#######'  #'      '#     #####' # '####'        



                  #######################################################
                  #                        -***-                        #
                  #          Department of theory and spectroscopy      #
                  #    Directorship and core code : Frank Neese         #
                  #        Max Planck Institute fuer Kohlenforschung    #
                  #                Kaiser Wilhelm Platz 1               #
                  #                 D-45470 Muelheim/Ruhr               #
                  #                      Germany                        #
                  #                                                     #
                  #                  All rights reserved                #
                  #                        -***-                        #
                  #######################################################


                         Program Version 5.0.3 -  RELEASE  -


 With contributions from (in alphabetic order):
   Daniel Aravena         : Magnetic Suceptibility
   Michael Atanasov       : Ab Initio Ligand Field Theory (pilot matlab implementation)
   Alexander A. Auer      : GIAO ZORA, VPT2 properties, NMR spectrum
   Ute Becker             : Parallelization
   Giovanni Bistoni       : ED, misc. LED, open-shell LED, HFLD
   Martin Brehm           : Molecular dynamics
   Dmytro Bykov           : SCF Hessian
   Vijay G. Chilkuri      : MRCI spin determinant printing, contributions to CSF-ICE
   Dipayan Datta          : RHF DLPNO-CCSD density
   Achintya Kumar Dutta   : EOM-CC, STEOM-CC
   Dmitry Ganyushin       : Spin-Orbit,Spin-Spin,Magnetic field MRCI
   Miquel Garcia          : C-PCM and meta-GGA Hessian, CC/C-PCM, Gaussian charge scheme
   Yang Guo               : DLPNO-NEVPT2, F12-NEVPT2, CIM, IAO-localization
   Andreas Hansen         : Spin unrestricted coupled pair/coupled cluster methods
   Benjamin Helmich-Paris : MC-RPA, TRAH-SCF, COSX integrals
   Lee Huntington         : MR-EOM, pCC
   Robert Izsak           : Overlap fitted RIJCOSX, COSX-SCS-MP3, EOM
   Marcus Kettner         : VPT2
   Christian Kollmar      : KDIIS, OOCD, Brueckner-CCSD(T), CCSD density, CASPT2, CASPT2-K
   Simone Kossmann        : Meta GGA functionals, TD-DFT gradient, OOMP2, MP2 Hessian
   Martin Krupicka        : Initial AUTO-CI
   Lucas Lang             : DCDCAS
   Marvin Lechner         : AUTO-CI (C++ implementation), FIC-MRCC
   Dagmar Lenk            : GEPOL surface, SMD
   Dimitrios Liakos       : Extrapolation schemes; Compound Job, initial MDCI parallelization
   Dimitrios Manganas     : Further ROCIS development; embedding schemes
   Dimitrios Pantazis     : SARC Basis sets
   Anastasios Papadopoulos: AUTO-CI, single reference methods and gradients
   Taras Petrenko         : DFT Hessian,TD-DFT gradient, ASA, ECA, R-Raman, ABS, FL, XAS/XES, NRVS
   Peter Pinski           : DLPNO-MP2, DLPNO-MP2 Gradient
   Christoph Reimann      : Effective Core Potentials
   Marius Retegan         : Local ZFS, SOC
   Christoph Riplinger    : Optimizer, TS searches, QM/MM, DLPNO-CCSD(T), (RO)-DLPNO pert. Triples
   Tobias Risthaus        : Range-separated hybrids, TD-DFT gradient, RPA, STAB
   Michael Roemelt        : Original ROCIS implementation
   Masaaki Saitow         : Open-shell DLPNO-CCSD energy and density
   Barbara Sandhoefer     : DKH picture change effects
   Avijit Sen             : IP-ROCIS
   Kantharuban Sivalingam : CASSCF convergence, NEVPT2, FIC-MRCI
   Bernardo de Souza      : ESD, SOC TD-DFT
   Georgi Stoychev        : AutoAux, RI-MP2 NMR, DLPNO-MP2 response
   Willem Van den Heuvel  : Paramagnetic NMR
   Boris Wezisla          : Elementary symmetry handling
   Frank Wennmohs         : Technical directorship


 We gratefully acknowledge several colleagues who have allowed us to
 interface, adapt or use parts of their codes:
   Stefan Grimme, W. Hujo, H. Kruse, P. Pracht,  : VdW corrections, initial TS optimization,
                  C. Bannwarth, S. Ehlert          DFT functionals, gCP, sTDA/sTD-DF
   Ed Valeev, F. Pavosevic, A. Kumar             : LibInt (2-el integral package), F12 methods
   Garnet Chan, S. Sharma, J. Yang, R. Olivares  : DMRG
   Ulf Ekstrom                                   : XCFun DFT Library
   Mihaly Kallay                                 : mrcc  (arbitrary order and MRCC methods)
   Jiri Pittner, Ondrej Demel                    : Mk-CCSD
   Frank Weinhold                                : gennbo (NPA and NBO analysis)
   Christopher J. Cramer and Donald G. Truhlar   : smd solvation model
   Lars Goerigk                                  : TD-DFT with DH, B97 family of functionals
   V. Asgeirsson, H. Jonsson                     : NEB implementation
   FAccTs GmbH                                   : IRC, NEB, NEB-TS, DLPNO-Multilevel, CI-OPT
                                                   MM, QMMM, 2- and 3-layer-ONIOM, Crystal-QMMM,
                                                   LR-CPCM, SF, NACMEs, symmetry and pop. for TD-DFT,
                                                   nearIR, NL-DFT gradient (VV10), updates on ESD,
                                                   ML-optimized integration grids
   S Lehtola, MJT Oliveira, MAL Marques          : LibXC Library
   Liviu Ungur et al                             : ANISO software


 Your calculation uses the libint2 library for the computation of 2-el integrals
 For citations please refer to: http://libint.valeyev.net

 Your ORCA version has been built with support for libXC version: 5.1.0
 For citations please refer to: https://tddft.org/programs/libxc/

 This ORCA versions uses:
   CBLAS   interface :  Fast vector & matrix operations
   LAPACKE interface :  Fast linear algebra routines
   SCALAPACK package :  Parallel linear algebra routines
   Shared memory     :  Shared parallel matrices
   BLAS/LAPACK       :  OpenBLAS 0.3.15  USE64BITINT DYNAMIC_ARCH NO_AFFINITY SkylakeX SINGLE_THREADED
        Core in use  :  SkylakeX
   Copyright (c) 2011-2014, The OpenBLAS Project


================================================================================

----- Orbital basis set information -----
Your calculation utilizes the basis: aug-cc-pVDZ 
    H, B-Ne : Obtained from the ccRepo (grant-hill.group.shef.ac.uk/ccrepo) Feb. 2017
              R. A. Kendall, T. H. Dunning, Jr., R. J. Harrison, J. Chem. Phys. 96, 6796 (1992)
         He : Obtained from the ccRepo (grant-hill.group.shef.ac.uk/ccrepo) Feb. 2017
              D. E. Woon, T. H. Dunning, Jr., J. Chem. Phys. 100, 2975 (1994)
  Li-Be, Na : Obtained from the ccRepo (grant-hill.group.shef.ac.uk/ccrepo) Feb. 2017
              B. P. Prascher, D. E. Woon, K. A. Peterson, T. H. Dunning, Jr., A. K. Wilson, Theor. Chem. Acc. 128, 69 (2011)
         Mg : Obtained from the Peterson Research Group Website (tyr0.chem.wsu.edu/~kipeters) Feb. 2017
              B. P. Prascher, D. E. Woon, K. A. Peterson, T. H. Dunning, Jr., A. K. Wilson, Theor. Chem. Acc. 128, 69 (2011)
      Al-Ar : Obtained from the ccRepo (grant-hill.group.shef.ac.uk/ccrepo) Feb. 2017
              D. E. Woon, T. H. Dunning, Jr., J. Chem. Phys. 98, 1358 (1993)
      Sc-Zn : Obtained from the ccRepo (grant-hill.group.shef.ac.uk/ccrepo) Feb. 2017
              N. B. Balabanov, K. A. Peterson, J. Chem. Phys. 123, 064107 (2005)
              N. B. Balabanov, K. A. Peterson, J. Chem. Phys. 125, 074110 (2006)
      Ga-Kr : Obtained from the ccRepo (grant-hill.group.shef.ac.uk/ccrepo) Feb. 2017
              A. K. Wilson, D. E. Woon, K. A. Peterson, T. H. Dunning, Jr., J. Chem. Phys. 110, 7667 (1999)

----- AuxC basis set information -----
Your calculation utilizes the auxiliary basis: aug-cc-pVDZ/C 
  H-He, B, Ne, Al-Ar, Ga-Ge, Se-Br : Obtained from the EMSL Basis Set Exchange (bse.pnl.gov) Feb. 2017
                                     F. Weigend, A. Kohn, C. Hattig, J. Chem. Phys. 116, 3175 (2002)
                            Be, Mg : Obtained from the TURBOMOLE 7.0 basis set library
                                     C. Haettig, Phys. Chem. Chem. Phys. 7, 59 (2005)
                               C-F : Obtained from the EMSL Basis Set Exchange (bse.pnl.gov) Feb. 2017
                                     C. Haettig, Phys. Chem. Chem. Phys. 7, 59 (2005)
                                     F. Weigend, A. Kohn, C. Hattig, J. Chem. Phys. 116, 3175 (2002)
                                As : Obtained from the EMSL Basis Set Exchange (bse.pnl.gov) Feb. 2017
                                     C. Haettig, G. Schmitz, J. Kossmann, Phys. Chem. Chem. Phys. 14, 6549 (2012)
                                Kr : Obtained from the TURBOMOLE 7.0 basis set library
                                     F. Weigend, A. Kohn, C. Hattig, J. Chem. Phys. 116, 3175 (2002)
                                     S function revised in Sep. 2009

================================================================================
                                        WARNINGS
                       Please study these warnings very carefully!
================================================================================


WARNING: No MP2 level density has been requested!
         To caclulate MP2 level properties use
         %mp2 Density relaxed end
         or
         %mp2 Density unrelaxed end

WARNING: Post HF methods need fully converged wavefunctions
  ===> : Setting SCFConvForced true
         You can overwrite this default with %scf ConvForced false 


INFO   : the flag for use of the SHARK integral package has been found!

================================================================================
                                       INPUT FILE
================================================================================
NAME = DZ_diethyl_peroxide.inp
|  1> !ri-mp2 aug-cc-pvdz aug-cc-pvdz/c tightscf
|  2> %pal nprocs 16 end
|  3> 
|  4> * xyz 0 1
|  5> O    -0.015813     0.731327    0.000000
|  6> O     0.015813    -0.731327    0.000000
|  7> C    -1.344283    -1.140143    0.000000
|  8> H    -1.844417    -0.742104    0.887786
|  9> C     1.344283     1.140143    0.000000
| 10> H     1.844417     0.742104   -0.887786
| 11> H     1.844417     0.742104    0.887786
| 12> C     1.344283     2.657005    0.000000
| 13> C    -1.344283    -2.657005    0.000000
| 14> H    -1.844417    -0.742104   -0.887786
| 15> H     0.842512     3.047916   -0.884749
| 16> H     0.842512     3.047916    0.884749
| 17> H     2.372433     3.019890    0.000000
| 18> H    -0.842512    -3.047916   -0.884749
| 19> H    -0.842512    -3.047916    0.884749
| 20> H    -2.372433    -3.019890    0.000000
| 21> *
| 22> 
| 23>                          ****END OF INPUT****
================================================================================

                       ****************************
                       * Single Point Calculation *
                       ****************************

---------------------------------
CARTESIAN COORDINATES (ANGSTROEM)
---------------------------------
  O     -0.015813    0.731327    0.000000
  O      0.015813   -0.731327    0.000000
  C     -1.344283   -1.140143    0.000000
  H     -1.844417   -0.742104    0.887786
  C      1.344283    1.140143    0.000000
  H      1.844417    0.742104   -0.887786
  H      1.844417    0.742104    0.887786
  C      1.344283    2.657005    0.000000
  C     -1.344283   -2.657005    0.000000
  H     -1.844417   -0.742104   -0.887786
  H      0.842512    3.047916   -0.884749
  H      0.842512    3.047916    0.884749
  H      2.372433    3.019890    0.000000
  H     -0.842512   -3.047916   -0.884749
  H     -0.842512   -3.047916    0.884749
  H     -2.372433   -3.019890    0.000000

----------------------------
CARTESIAN COORDINATES (A.U.)
----------------------------
  NO LB      ZA    FRAG     MASS         X           Y           Z
   0 O     8.0000    0    15.999   -0.029882    1.382008    0.000000
   1 O     8.0000    0    15.999    0.029882   -1.382008    0.000000
   2 C     6.0000    0    12.011   -2.540327   -2.154558    0.000000
   3 H     1.0000    0     1.008   -3.485443   -1.402373    1.677672
   4 C     6.0000    0    12.011    2.540327    2.154558    0.000000
   5 H     1.0000    0     1.008    3.485443    1.402373   -1.677672
   6 H     1.0000    0     1.008    3.485443    1.402373    1.677672
   7 C     6.0000    0    12.011    2.540327    5.021012    0.000000
   8 C     6.0000    0    12.011   -2.540327   -5.021012    0.000000
   9 H     1.0000    0     1.008   -3.485443   -1.402373   -1.677672
  10 H     1.0000    0     1.008    1.592117    5.759727   -1.671933
  11 H     1.0000    0     1.008    1.592117    5.759727    1.671933
  12 H     1.0000    0     1.008    4.483249    5.706765    0.000000
  13 H     1.0000    0     1.008   -1.592117   -5.759727   -1.671933
  14 H     1.0000    0     1.008   -1.592117   -5.759727    1.671933
  15 H     1.0000    0     1.008   -4.483249   -5.706765    0.000000

--------------------------------
INTERNAL COORDINATES (ANGSTROEM)
--------------------------------
 O      0   0   0     0.000000000000     0.00000000     0.00000000
 O      1   0   0     1.462995874086     0.00000000     0.00000000
 C      2   1   0     1.420208312563   105.49098733     0.00000000
 H      3   2   1     1.093952944725   109.45656028   300.60588168
 C      1   2   3     1.420208312563   105.49098733   180.00000000
 H      5   1   2     1.093952944725   109.45656028    59.39411832
 H      5   1   2     1.093952944725   109.45656028   300.60588168
 C      5   1   2     1.516862000000   106.72966306   180.00000085
 C      3   2   1     1.516862000000   106.72966306   180.00000085
 H      3   2   1     1.093952944725   109.45656028    59.39411832
 H      8   5   1     1.089663406453   111.02312534   299.55903443
 H      8   5   1     1.089663406453   111.02312534    60.44096557
 H      8   5   1     1.090310939927   109.44045750   180.00000000
 H      9   3   2     1.089663406453   111.02312534   299.55903443
 H      9   3   2     1.089663406453   111.02312534    60.44096557
 H      9   3   2     1.090310939927   109.44045750   180.00000000

---------------------------
INTERNAL COORDINATES (A.U.)
---------------------------
 O      0   0   0     0.000000000000     0.00000000     0.00000000
 O      1   0   0     2.764661537079     0.00000000     0.00000000
 C      2   1   0     2.683804763862   105.49098733     0.00000000
 H      3   2   1     2.067271468927   109.45656028   300.60588168
 C      1   2   3     2.683804763862   105.49098733   180.00000000
 H      5   1   2     2.067271468927   109.45656028    59.39411832
 H      5   1   2     2.067271468927   109.45656028   300.60588168
 C      5   1   2     2.866453762952   106.72966306   180.00000085
 C      3   2   1     2.866453762952   106.72966306   180.00000085
 H      3   2   1     2.067271468927   109.45656028    59.39411832
 H      8   5   1     2.059165416352   111.02312534   299.55903443
 H      8   5   1     2.059165416352   111.02312534    60.44096557
 H      8   5   1     2.060389077281   109.44045750   180.00000000
 H      9   3   2     2.059165416352   111.02312534   299.55903443
 H      9   3   2     2.059165416352   111.02312534    60.44096557
 H      9   3   2     2.060389077281   109.44045750   180.00000000

---------------------
BASIS SET INFORMATION
---------------------
There are 3 groups of distinct atoms

 Group   1 Type O   : 18s5p2d contracted to 4s3p2d pattern {8811/311/11}
 Group   2 Type C   : 18s5p2d contracted to 4s3p2d pattern {8811/311/11}
 Group   3 Type H   : 5s2p contracted to 3s2p pattern {311/11}

Atom   0O    basis set group =>   1
Atom   1O    basis set group =>   1
Atom   2C    basis set group =>   2
Atom   3H    basis set group =>   3
Atom   4C    basis set group =>   2
Atom   5H    basis set group =>   3
Atom   6H    basis set group =>   3
Atom   7C    basis set group =>   2
Atom   8C    basis set group =>   2
Atom   9H    basis set group =>   3
Atom  10H    basis set group =>   3
Atom  11H    basis set group =>   3
Atom  12H    basis set group =>   3
Atom  13H    basis set group =>   3
Atom  14H    basis set group =>   3
Atom  15H    basis set group =>   3
---------------------------------
AUXILIARY/C BASIS SET INFORMATION
---------------------------------
There are 3 groups of distinct atoms

 Group   1 Type O   : 8s6p5d3f contracted to 8s6p5d3f pattern {11111111/111111/11111/111}
 Group   2 Type C   : 8s6p5d3f contracted to 8s6p5d3f pattern {11111111/111111/11111/111}
 Group   3 Type H   : 4s3p2d contracted to 4s3p2d pattern {1111/111/11}

Atom   0O    basis set group =>   1
Atom   1O    basis set group =>   1
Atom   2C    basis set group =>   2
Atom   3H    basis set group =>   3
Atom   4C    basis set group =>   2
Atom   5H    basis set group =>   3
Atom   6H    basis set group =>   3
Atom   7C    basis set group =>   2
Atom   8C    basis set group =>   2
Atom   9H    basis set group =>   3
Atom  10H    basis set group =>   3
Atom  11H    basis set group =>   3
Atom  12H    basis set group =>   3
Atom  13H    basis set group =>   3
Atom  14H    basis set group =>   3
Atom  15H    basis set group =>   3


           ************************************************************
           *        Program running with 16 parallel MPI-processes    *
           *              working on a common directory               *
           ************************************************************
------------------------------------------------------------------------------
                           ORCA GTO INTEGRAL CALCULATION
------------------------------------------------------------------------------
------------------------------------------------------------------------------
                   ___                                                        
                  /   \      - P O W E R E D   B Y -                         
                 /     \                                                     
                 |  |  |   _    _      __       _____    __    __             
                 |  |  |  | |  | |    /  \     |  _  \  |  |  /  |          
                  \  \/   | |  | |   /    \    | | | |  |  | /  /          
                 / \  \   | |__| |  /  /\  \   | |_| |  |  |/  /          
                |  |  |   |  __  | /  /__\  \  |    /   |      \           
                |  |  |   | |  | | |   __   |  |    \   |  |\   \          
                \     /   | |  | | |  |  |  |  | |\  \  |  | \   \       
                 \___/    |_|  |_| |__|  |__|  |_| \__\ |__|  \__/        
                                                                              
                      - O R C A' S   B I G   F R I E N D -                    
                                      &                                       
                       - I N T E G R A L  F E E D E R -                       
                                                                              
 v1 FN, 2020, v2 2021                                                         
------------------------------------------------------------------------------


Reading SHARK input file DZ_diethyl_peroxide.SHARKINP.tmp ... ok
----------------------
SHARK INTEGRAL PACKAGE
----------------------

Number of atoms                             ...     16
Number of basis functions                   ...    264
Number of shells                            ...    140
Maximum angular momentum                    ...      2
Integral batch strategy                     ... SHARK/LIBINT Hybrid
RI-J (if used) integral strategy            ... SPLIT-RIJ (Revised 2003 algorithm where possible)
Printlevel                                  ...      1
Contraction scheme used                     ... PARTIAL GENERAL contraction
Coulomb Range Separation                    ... NOT USED
Exchange Range Separation                   ... NOT USED
Finite Nucleus Model                        ... NOT USED
Auxiliary Coulomb fitting basis             ... NOT available
Auxiliary J/K fitting basis                 ... NOT available
Auxiliary Correlation fitting basis         ... AVAILABLE
   # of basis functions in Aux-C            ...    662
   # of shells in Aux-C                     ...    222
   Maximum angular momentum in Aux-C        ...      3
Auxiliary 'external' fitting basis          ... NOT available
Integral threshold                          ...     2.500000e-11
Primitive cut-off                           ...     2.500000e-12
Primitive pair pre-selection threshold      ...     2.500000e-12

Calculating pre-screening integrals         ... done (  0.0 sec) Dimension = 140
Calculating pre-screening integrals (ORCA)  ... done (  0.1 sec) Dimension = 104
Organizing shell pair data                  ... done (  0.1 sec)
Shell pair information
Total number of shell pairs                 ...      9870
Shell pairs after pre-screening             ...      8553
Total number of primitive shell pairs       ...     14926
Primitive shell pairs kept                  ...     11758
          la=0 lb=0:   3175 shell pairs
          la=1 lb=0:   3124 shell pairs
          la=1 lb=1:    715 shell pairs
          la=2 lb=0:   1016 shell pairs
          la=2 lb=1:    446 shell pairs
          la=2 lb=2:     77 shell pairs

Calculating one electron integrals          ... done (  0.0 sec)
Calculating RI/C V-Matrix + Cholesky decomp.... done (  0.0 sec)
Calculating Nuclear repulsion               ... done (  0.0 sec) ENN=    252.421793202106 Eh

SHARK setup successfully completed in   0.3 seconds

Maximum memory used throughout the entire GTOINT-calculation: 18.2 MB


           ************************************************************
           *        Program running with 16 parallel MPI-processes    *
           *              working on a common directory               *
           ************************************************************
-------------------------------------------------------------------------------
                                 ORCA SCF
-------------------------------------------------------------------------------

------------
SCF SETTINGS
------------
Hamiltonian:
 Ab initio Hamiltonian  Method          .... Hartree-Fock(GTOs)


General Settings:
 Integral files         IntName         .... DZ_diethyl_peroxide
 Hartree-Fock type      HFTyp           .... RHF
 Total Charge           Charge          ....    0
 Multiplicity           Mult            ....    1
 Number of Electrons    NEL             ....   50
 Basis Dimension        Dim             ....  228
 Nuclear Repulsion      ENuc            ....    252.4217932021 Eh

Convergence Acceleration:
 DIIS                   CNVDIIS         .... on
   Start iteration      DIISMaxIt       ....    12
   Startup error        DIISStart       ....  0.200000
   # of expansion vecs  DIISMaxEq       ....     5
   Bias factor          DIISBfac        ....   1.050
   Max. coefficient     DIISMaxC        ....  10.000
 Trust-Rad. Augm. Hess. CNVTRAH         .... auto
   Auto Start mean grad. ratio tolernc. ....  1.125000
   Auto Start start iteration           ....    20
   Auto Start num. interpolation iter.  ....    10
   Max. Number of Micro iterations      ....    16
   Max. Number of Macro iterations      .... Maxiter - #DIIS iter
   Number of Davidson start vectors     ....     2
   Converg. threshold I  (grad. norm)   ....   1.000e-05
   Converg. threshold II (energy diff.) ....   1.000e-08
   Grad. Scal. Fac. for Micro threshold ....   0.100
   Minimum threshold for Micro iter.    ....   0.010
   NR start threshold (gradient norm)   ....   0.001
   Initial trust radius                 ....   0.400
   Minimum AH scaling param. (alpha)    ....   1.000
   Maximum AH scaling param. (alpha)    .... 1000.000
   Orbital update algorithm             .... Taylor
   White noise on init. David. guess    .... on
   Maximum white noise                  ....   0.010
   Quad. conv. algorithm                .... NR
 SOSCF                  CNVSOSCF        .... on
   Start iteration      SOSCFMaxIt      ....   150
   Startup grad/error   SOSCFStart      ....  0.003300
 Level Shifting         CNVShift        .... on
   Level shift para.    LevelShift      ....    0.2500
   Turn off err/grad.   ShiftErr        ....    0.0010
 Zerner damping         CNVZerner       .... off
 Static damping         CNVDamp         .... on
   Fraction old density DampFac         ....    0.7000
   Max. Damping (<1)    DampMax         ....    0.9800
   Min. Damping (>=0)   DampMin         ....    0.0000
   Turn off err/grad.   DampErr         ....    0.1000
 Fernandez-Rico         CNVRico         .... off

SCF Procedure:
 Maximum # iterations   MaxIter         ....   125
 SCF integral mode      SCFMode         .... Direct
   Integral package                     .... SHARK and LIBINT hybrid scheme
 Reset frequency        DirectResetFreq ....    20
 Integral Threshold     Thresh          ....  2.500e-11 Eh
 Primitive CutOff       TCut            ....  2.500e-12 Eh

Convergence Tolerance:
 Convergence Check Mode ConvCheckMode   .... Total+1el-Energy
 Convergence forced     ConvForced      .... 1
 Energy Change          TolE            ....  1.000e-08 Eh
 1-El. energy change                    ....  1.000e-05 Eh
 Orbital Gradient       TolG            ....  1.000e-05
 Orbital Rotation angle TolX            ....  1.000e-05
 DIIS Error             TolErr          ....  5.000e-07


Diagonalization of the overlap matrix:
Smallest eigenvalue                        ... 6.508e-05
Time for diagonalization                   ...    0.006 sec
Threshold for overlap eigenvalues          ... 1.000e-08
Number of eigenvalues below threshold      ... 0
Time for construction of square roots      ...    0.006 sec
Total time needed                          ...    0.013 sec

Time for model grid setup =    0.207 sec

------------------------------
INITIAL GUESS: MODEL POTENTIAL
------------------------------
Loading Hartree-Fock densities                     ... done
Calculating cut-offs                               ... done
Initializing the effective Hamiltonian             ... done
Setting up the integral package (SHARK)            ... done
Starting the Coulomb interaction                   ... done (   0.0 sec)
Reading the grid                                   ... done
Mapping shells                                     ... done
Starting the XC term evaluation                    ... done (   0.0 sec)
Transforming the Hamiltonian                       ... done (   0.0 sec)
Diagonalizing the Hamiltonian                      ... done (   0.0 sec)
Back transforming the eigenvectors                 ... done (   0.0 sec)
Now organizing SCF variables                       ... done
                      ------------------
                      INITIAL GUESS DONE (   0.3 sec)
                      ------------------
--------------
SCF ITERATIONS
--------------
ITER       Energy         Delta-E        Max-DP      RMS-DP      [F,P]     Damp
               ***  Starting incremental Fock matrix formation  ***
  0   -306.7050355751   0.000000000000 0.09236115  0.00286904  0.1994523 0.7000
  1   -306.7872722994  -0.082236724342 0.06698102  0.00212348  0.1305574 0.7000
                               ***Turning on DIIS***
  2   -306.8387253728  -0.051453073375 0.15874996  0.00489549  0.0780901 0.0000
  3   -306.5459177516   0.292807621205 0.01927955  0.00051927  0.0297744 0.0000
  4   -306.9177955718  -0.371877820193 0.00598429  0.00019834  0.0052786 0.0000
                      *** Initiating the SOSCF procedure ***
                           *** Shutting down DIIS ***
                      *** Re-Reading the Fockian *** 
                      *** Removing any level shift *** 
ITER      Energy       Delta-E        Grad      Rot      Max-DP    RMS-DP
  5   -306.93071607  -0.0129204969  0.001519  0.001519  0.001397  0.000063
               *** Restarting incremental Fock matrix formation ***
  6   -306.94767088  -0.0169548153  0.000369  0.000427  0.000885  0.000028
  7   -306.94768057  -0.0000096880  0.000174  0.000353  0.000390  0.000017
  8   -306.94768233  -0.0000017609  0.000051  0.000061  0.000104  0.000004
  9   -306.94768242  -0.0000000824  0.000013  0.000015  0.000033  0.000001
 10   -306.94768242  -0.0000000067  0.000006  0.000012  0.000013  0.000000
                  ***Gradient check signals convergence***
              ***Rediagonalizing the Fockian in SOSCF/NRSCF***

               *****************************************************
               *                     SUCCESS                       *
               *           SCF CONVERGED AFTER  11 CYCLES          *
               *****************************************************


----------------
TOTAL SCF ENERGY
----------------

Total Energy       :         -306.94768242 Eh           -8352.47107 eV

Components:
Nuclear Repulsion  :          252.42179320 Eh            6868.74619 eV
Electronic Energy  :         -559.36947563 Eh          -15221.21726 eV
One Electron Energy:         -918.97854268 Eh          -25006.67746 eV
Two Electron Energy:          359.60906706 Eh            9785.46020 eV

Virial components:
Potential Energy   :         -613.44968372 Eh          -16692.81454 eV
Kinetic Energy     :          306.50200130 Eh            8340.34347 eV
Virial Ratio       :            2.00145409


---------------
SCF CONVERGENCE
---------------

  Last Energy change         ...   -1.3220e-09  Tolerance :   1.0000e-08
  Last MAX-Density change    ...    4.3638e-06  Tolerance :   1.0000e-07
  Last RMS-Density change    ...    1.3272e-07  Tolerance :   5.0000e-09
  Last Orbital Gradient      ...    9.4641e-07  Tolerance :   1.0000e-05
  Last Orbital Rotation      ...    2.0279e-06  Tolerance :   1.0000e-05

             **** THE GBW FILE WAS UPDATED (DZ_diethyl_peroxide.gbw) ****
             **** DENSITY DZ_diethyl_peroxide.scfp WAS UPDATED ****
             **** ENERGY FILE WAS UPDATED (DZ_diethyl_peroxide.en.tmp) ****
             **** THE GBW FILE WAS UPDATED (DZ_diethyl_peroxide.gbw) ****
             **** DENSITY DZ_diethyl_peroxide.scfp WAS UPDATED ****
----------------
ORBITAL ENERGIES
----------------

  NO   OCC          E(Eh)            E(eV) 
   0   2.0000     -20.619465      -561.0842 
   1   2.0000     -20.619179      -561.0764 
   2   2.0000     -11.281649      -306.9893 
   3   2.0000     -11.281647      -306.9892 
   4   2.0000     -11.226512      -305.4889 
   5   2.0000     -11.226512      -305.4889 
   6   2.0000      -1.465287       -39.8725 
   7   2.0000      -1.245681       -33.8967 
   8   2.0000      -1.021317       -27.7914 
   9   2.0000      -0.989691       -26.9309 
  10   2.0000      -0.849007       -23.1027 
  11   2.0000      -0.828811       -22.5531 
  12   2.0000      -0.688398       -18.7323 
  13   2.0000      -0.680091       -18.5062 
  14   2.0000      -0.639234       -17.3945 
  15   2.0000      -0.636485       -17.3196 
  16   2.0000      -0.562109       -15.2958 
  17   2.0000      -0.560234       -15.2447 
  18   2.0000      -0.546477       -14.8704 
  19   2.0000      -0.517220       -14.0743 
  20   2.0000      -0.516061       -14.0427 
  21   2.0000      -0.515237       -14.0203 
  22   2.0000      -0.478253       -13.0139 
  23   2.0000      -0.471828       -12.8391 
  24   2.0000      -0.413814       -11.2604 
  25   0.0000       0.038032         1.0349 
  26   0.0000       0.043474         1.1830 
  27   0.0000       0.047576         1.2946 
  28   0.0000       0.049507         1.3471 
  29   0.0000       0.061894         1.6842 
  30   0.0000       0.063487         1.7276 
  31   0.0000       0.066352         1.8055 
  32   0.0000       0.076388         2.0786 
  33   0.0000       0.082953         2.2573 
  34   0.0000       0.093536         2.5452 
  35   0.0000       0.121153         3.2967 
  36   0.0000       0.121553         3.3076 
  37   0.0000       0.142462         3.8766 
  38   0.0000       0.147253         4.0070 
  39   0.0000       0.152952         4.1620 
  40   0.0000       0.156353         4.2546 
  41   0.0000       0.157472         4.2850 
  42   0.0000       0.170447         4.6381 
  43   0.0000       0.173604         4.7240 
  44   0.0000       0.174554         4.7498 
  45   0.0000       0.178844         4.8666 
  46   0.0000       0.187089         5.0910 
  47   0.0000       0.197881         5.3846 
  48   0.0000       0.205821         5.6007 
  49   0.0000       0.213050         5.7974 
  50   0.0000       0.227382         6.1874 
  51   0.0000       0.245039         6.6679 
  52   0.0000       0.280713         7.6386 
  53   0.0000       0.285102         7.7580 
  54   0.0000       0.289791         7.8856 
  55   0.0000       0.294735         8.0201 
  56   0.0000       0.312154         8.4941 
  57   0.0000       0.315939         8.5971 
  58   0.0000       0.318647         8.6708 
  59   0.0000       0.338462         9.2100 
  60   0.0000       0.339860         9.2481 
  61   0.0000       0.360244         9.8027 
  62   0.0000       0.364979         9.9316 
  63   0.0000       0.366812         9.9815 
  64   0.0000       0.372965        10.1489 
  65   0.0000       0.392158        10.6712 
  66   0.0000       0.392757        10.6874 
  67   0.0000       0.395929        10.7738 
  68   0.0000       0.412270        11.2184 
  69   0.0000       0.425148        11.5689 
  70   0.0000       0.439215        11.9516 
  71   0.0000       0.449675        12.2363 
  72   0.0000       0.454943        12.3796 
  73   0.0000       0.454977        12.3806 
  74   0.0000       0.458341        12.4721 
  75   0.0000       0.461317        12.5531 
  76   0.0000       0.469578        12.7779 
  77   0.0000       0.482399        13.1267 
  78   0.0000       0.493085        13.4175 
  79   0.0000       0.497125        13.5275 
  80   0.0000       0.509440        13.8626 
  81   0.0000       0.516858        14.0644 
  82   0.0000       0.524203        14.2643 
  83   0.0000       0.534568        14.5463 
  84   0.0000       0.542806        14.7705 
  85   0.0000       0.554699        15.0941 
  86   0.0000       0.568726        15.4758 
  87   0.0000       0.582251        15.8438 
  88   0.0000       0.583557        15.8794 
  89   0.0000       0.592828        16.1317 
  90   0.0000       0.599434        16.3114 
  91   0.0000       0.602144        16.3852 
  92   0.0000       0.613817        16.7028 
  93   0.0000       0.625463        17.0197 
  94   0.0000       0.626281        17.0420 
  95   0.0000       0.628218        17.0947 
  96   0.0000       0.628971        17.1152 
  97   0.0000       0.651723        17.7343 
  98   0.0000       0.657158        17.8822 
  99   0.0000       0.659973        17.9588 
 100   0.0000       0.661560        18.0020 
 101   0.0000       0.682116        18.5613 
 102   0.0000       0.707558        19.2536 
 103   0.0000       0.713377        19.4120 
 104   0.0000       0.714712        19.4483 
 105   0.0000       0.726648        19.7731 
 106   0.0000       0.744342        20.2546 
 107   0.0000       0.760845        20.7036 
 108   0.0000       0.763277        20.7698 
 109   0.0000       0.767726        20.8909 
 110   0.0000       0.772734        21.0272 
 111   0.0000       0.790508        21.5108 
 112   0.0000       0.814939        22.1756 
 113   0.0000       0.825160        22.4537 
 114   0.0000       0.828981        22.5577 
 115   0.0000       0.843835        22.9619 
 116   0.0000       0.853368        23.2213 
 117   0.0000       0.855716        23.2852 
 118   0.0000       0.884654        24.0727 
 119   0.0000       0.887066        24.1383 
 120   0.0000       0.924380        25.1537 
 121   0.0000       0.930247        25.3133 
 122   0.0000       0.943751        25.6808 
 123   0.0000       0.996778        27.1237 
 124   0.0000       1.016354        27.6564 
 125   0.0000       1.044100        28.4114 
 126   0.0000       1.048193        28.5228 
 127   0.0000       1.057777        28.7836 
 128   0.0000       1.112323        30.2679 
 129   0.0000       1.116164        30.3724 
 130   0.0000       1.126990        30.6670 
 131   0.0000       1.166224        31.7346 
 132   0.0000       1.184459        32.2308 
 133   0.0000       1.191775        32.4299 
 134   0.0000       1.196221        32.5508 
 135   0.0000       1.230427        33.4816 
 136   0.0000       1.230696        33.4889 
 137   0.0000       1.277009        34.7492 
 138   0.0000       1.283782        34.9335 
 139   0.0000       1.308444        35.6046 
 140   0.0000       1.335079        36.3293 
 141   0.0000       1.354875        36.8680 
 142   0.0000       1.406201        38.2647 
 143   0.0000       1.461700        39.7749 
 144   0.0000       1.470245        40.0074 
 145   0.0000       1.480475        40.2858 
 146   0.0000       1.485878        40.4328 
 147   0.0000       1.488218        40.4965 
 148   0.0000       1.521511        41.4024 
 149   0.0000       1.543238        41.9936 
 150   0.0000       1.559983        42.4493 
 151   0.0000       1.603386        43.6303 
 152   0.0000       1.637254        44.5519 
 153   0.0000       1.671256        45.4772 
 154   0.0000       1.697426        46.1893 
 155   0.0000       1.771734        48.2113 
 156   0.0000       1.783852        48.5411 
 157   0.0000       1.787712        48.6461 
 158   0.0000       1.813089        49.3367 
 159   0.0000       1.813485        49.3474 
 160   0.0000       1.818514        49.4843 
 161   0.0000       1.877515        51.0898 
 162   0.0000       1.898501        51.6608 
 163   0.0000       1.909415        51.9578 
 164   0.0000       1.910153        51.9779 
 165   0.0000       1.930624        52.5349 
 166   0.0000       1.958646        53.2975 
 167   0.0000       1.983823        53.9826 
 168   0.0000       2.019258        54.9468 
 169   0.0000       2.078765        56.5661 
 170   0.0000       2.094170        56.9853 
 171   0.0000       2.094178        56.9855 
 172   0.0000       2.113761        57.5184 
 173   0.0000       2.121287        57.7231 
 174   0.0000       2.131218        57.9934 
 175   0.0000       2.149915        58.5022 
 176   0.0000       2.167386        58.9776 
 177   0.0000       2.174074        59.1596 
 178   0.0000       2.177283        59.2469 
 179   0.0000       2.218237        60.3613 
 180   0.0000       2.238207        60.9047 
 181   0.0000       2.251005        61.2530 
 182   0.0000       2.270944        61.7955 
 183   0.0000       2.278738        62.0076 
 184   0.0000       2.284576        62.1665 
 185   0.0000       2.304481        62.7081 
 186   0.0000       2.312929        62.9380 
 187   0.0000       2.319536        63.1178 
 188   0.0000       2.382875        64.8413 
 189   0.0000       2.384711        64.8913 
 190   0.0000       2.464369        67.0589 
 191   0.0000       2.478932        67.4552 
 192   0.0000       2.495445        67.9045 
 193   0.0000       2.590564        70.4928 
 194   0.0000       2.594310        70.5948 
 195   0.0000       2.627338        71.4935 
 196   0.0000       2.628809        71.5335 
 197   0.0000       2.630825        71.5884 
 198   0.0000       2.688115        73.1473 
 199   0.0000       2.692493        73.2665 
 200   0.0000       2.719264        73.9949 
 201   0.0000       2.734826        74.4184 
 202   0.0000       2.760665        75.1215 
 203   0.0000       2.815795        76.6217 
 204   0.0000       2.856029        77.7165 
 205   0.0000       2.878861        78.3378 
 206   0.0000       2.906973        79.1027 
 207   0.0000       2.957423        80.4756 
 208   0.0000       2.984483        81.2119 
 209   0.0000       3.020467        82.1911 
 210   0.0000       3.046071        82.8878 
 211   0.0000       3.096167        84.2510 
 212   0.0000       3.105898        84.5158 
 213   0.0000       3.123579        84.9969 
 214   0.0000       3.125537        85.0502 
 215   0.0000       3.134273        85.2879 
 216   0.0000       3.356465        91.3340 
 217   0.0000       3.704644       100.8085 
 218   0.0000       3.713488       101.0492 
 219   0.0000       3.722061       101.2824 
 220   0.0000       3.814813       103.8063 
 221   0.0000       3.878537       105.5404 
 222   0.0000       3.884513       105.7030 
 223   0.0000       3.954061       107.5955 
 224   0.0000       3.959829       107.7524 
 225   0.0000       4.071447       110.7897 
 226   0.0000       4.360470       118.6544 
 227   0.0000       4.475904       121.7956 

                    ********************************
                    * MULLIKEN POPULATION ANALYSIS *
                    ********************************

-----------------------
MULLIKEN ATOMIC CHARGES
-----------------------
   0 O :   -0.581922
   1 O :   -0.581922
   2 C :    0.939975
   3 H :   -0.198392
   4 C :    0.939975
   5 H :   -0.198392
   6 H :   -0.198392
   7 C :    0.168056
   8 C :    0.168056
   9 H :   -0.198392
  10 H :   -0.047581
  11 H :   -0.047581
  12 H :   -0.034163
  13 H :   -0.047581
  14 H :   -0.047581
  15 H :   -0.034163
Sum of atomic charges:    0.0000000

--------------------------------
MULLIKEN REDUCED ORBITAL CHARGES
--------------------------------
  0 O s       :     4.061465  s :     4.061465
      pz      :     1.971914  p :     4.458969
      px      :     1.531095
      py      :     0.955960
      dz2     :     0.006603  d :     0.061489
      dxz     :     0.011664
      dyz     :     0.006022
      dx2y2   :     0.025668
      dxy     :     0.011532
  1 O s       :     4.061465  s :     4.061465
      pz      :     1.971914  p :     4.458969
      px      :     1.531095
      py      :     0.955960
      dz2     :     0.006603  d :     0.061489
      dxz     :     0.011664
      dyz     :     0.006022
      dx2y2   :     0.025668
      dxy     :     0.011532
  2 C s       :     2.658331  s :     2.658331
      pz      :     0.892284  p :     2.344847
      px      :     0.578549
      py      :     0.874014
      dz2     :    -0.005913  d :     0.056846
      dxz     :     0.000354
      dyz     :     0.003379
      dx2y2   :     0.056118
      dxy     :     0.002909
  3 H s       :     1.196686  s :     1.196686
      pz      :     0.007897  p :     0.001706
      px      :     0.015110
      py      :    -0.021301
  4 C s       :     2.658331  s :     2.658331
      pz      :     0.892284  p :     2.344847
      px      :     0.578549
      py      :     0.874014
      dz2     :    -0.005913  d :     0.056846
      dxz     :     0.000354
      dyz     :     0.003379
      dx2y2   :     0.056118
      dxy     :     0.002909
  5 H s       :     1.196686  s :     1.196686
      pz      :     0.007897  p :     0.001706
      px      :     0.015110
      py      :    -0.021301
  6 H s       :     1.196686  s :     1.196686
      pz      :     0.007897  p :     0.001706
      px      :     0.015110
      py      :    -0.021301
  7 C s       :     2.994035  s :     2.994035
      pz      :     0.893507  p :     2.796140
      px      :     0.852688
      py      :     1.049945
      dz2     :    -0.001817  d :     0.041769
      dxz     :    -0.004569
      dyz     :     0.003317
      dx2y2   :     0.014771
      dxy     :     0.030068
  8 C s       :     2.994035  s :     2.994035
      pz      :     0.893507  p :     2.796140
      px      :     0.852688
      py      :     1.049945
      dz2     :    -0.001817  d :     0.041769
      dxz     :    -0.004569
      dyz     :     0.003317
      dx2y2   :     0.014771
      dxy     :     0.030068
  9 H s       :     1.196686  s :     1.196686
      pz      :     0.007897  p :     0.001706
      px      :     0.015110
      py      :    -0.021301
 10 H s       :     1.066535  s :     1.066535
      pz      :     0.001144  p :    -0.018954
      px      :    -0.011610
      py      :    -0.008488
 11 H s       :     1.066535  s :     1.066535
      pz      :     0.001144  p :    -0.018954
      px      :    -0.011610
      py      :    -0.008488
 12 H s       :     1.067209  s :     1.067209
      pz      :    -0.016521  p :    -0.033046
      px      :     0.000875
      py      :    -0.017400
 13 H s       :     1.066535  s :     1.066535
      pz      :     0.001144  p :    -0.018954
      px      :    -0.011610
      py      :    -0.008488
 14 H s       :     1.066535  s :     1.066535
      pz      :     0.001144  p :    -0.018954
      px      :    -0.011610
      py      :    -0.008488
 15 H s       :     1.067209  s :     1.067209
      pz      :    -0.016521  p :    -0.033046
      px      :     0.000875
      py      :    -0.017400


                     *******************************
                     * LOEWDIN POPULATION ANALYSIS *
                     *******************************

----------------------
LOEWDIN ATOMIC CHARGES
----------------------
   0 O :    0.013706
   1 O :    0.013706
   2 C :   -0.094782
   3 H :    0.001968
   4 C :   -0.094782
   5 H :    0.001968
   6 H :    0.001968
   7 C :    0.130932
   8 C :    0.130932
   9 H :    0.001968
  10 H :   -0.018419
  11 H :   -0.018419
  12 H :   -0.016953
  13 H :   -0.018419
  14 H :   -0.018419
  15 H :   -0.016953

-------------------------------
LOEWDIN REDUCED ORBITAL CHARGES
-------------------------------
  0 O s       :     3.309361  s :     3.309361
      pz      :     1.770646  p :     4.293508
      px      :     1.460096
      py      :     1.062766
      dz2     :     0.042274  d :     0.383426
      dxz     :     0.045937
      dyz     :     0.064165
      dx2y2   :     0.130219
      dxy     :     0.100831
  1 O s       :     3.309361  s :     3.309361
      pz      :     1.770646  p :     4.293508
      px      :     1.460096
      py      :     1.062766
      dz2     :     0.042274  d :     0.383426
      dxz     :     0.045937
      dyz     :     0.064165
      dx2y2   :     0.130219
      dxy     :     0.100831
  2 C s       :     2.587954  s :     2.587954
      pz      :     0.934623  p :     2.592860
      px      :     0.744055
      py      :     0.914181
      dz2     :     0.111934  d :     0.913969
      dxz     :     0.214406
      dyz     :     0.154816
      dx2y2   :     0.231050
      dxy     :     0.201763
  3 H s       :     0.748033  s :     0.748033
      pz      :     0.120499  p :     0.249999
      px      :     0.061082
      py      :     0.068418
  4 C s       :     2.587954  s :     2.587954
      pz      :     0.934623  p :     2.592860
      px      :     0.744055
      py      :     0.914181
      dz2     :     0.111934  d :     0.913969
      dxz     :     0.214406
      dyz     :     0.154816
      dx2y2   :     0.231050
      dxy     :     0.201763
  5 H s       :     0.748033  s :     0.748033
      pz      :     0.120499  p :     0.249999
      px      :     0.061082
      py      :     0.068418
  6 H s       :     0.748033  s :     0.748033
      pz      :     0.120499  p :     0.249999
      px      :     0.061082
      py      :     0.068418
  7 C s       :     2.606880  s :     2.606880
      pz      :     0.932961  p :     2.773867
      px      :     0.928226
      py      :     0.912680
      dz2     :     0.073704  d :     0.488322
      dxz     :     0.056163
      dyz     :     0.142440
      dx2y2   :     0.112165
      dxy     :     0.103849
  8 C s       :     2.606880  s :     2.606880
      pz      :     0.932961  p :     2.773867
      px      :     0.928226
      py      :     0.912680
      dz2     :     0.073704  d :     0.488322
      dxz     :     0.056163
      dyz     :     0.142440
      dx2y2   :     0.112165
      dxy     :     0.103849
  9 H s       :     0.748033  s :     0.748033
      pz      :     0.120499  p :     0.249999
      px      :     0.061082
      py      :     0.068418
 10 H s       :     0.740918  s :     0.740918
      pz      :     0.119260  p :     0.277501
      px      :     0.088787
      py      :     0.069454
 11 H s       :     0.740918  s :     0.740918
      pz      :     0.119260  p :     0.277501
      px      :     0.088787
      py      :     0.069454
 12 H s       :     0.741692  s :     0.741692
      pz      :     0.073900  p :     0.275261
      px      :     0.134337
      py      :     0.067024
 13 H s       :     0.740918  s :     0.740918
      pz      :     0.119260  p :     0.277501
      px      :     0.088787
      py      :     0.069454
 14 H s       :     0.740918  s :     0.740918
      pz      :     0.119260  p :     0.277501
      px      :     0.088787
      py      :     0.069454
 15 H s       :     0.741692  s :     0.741692
      pz      :     0.073900  p :     0.275261
      px      :     0.134337
      py      :     0.067024


                      *****************************
                      * MAYER POPULATION ANALYSIS *
                      *****************************

  NA   - Mulliken gross atomic population
  ZA   - Total nuclear charge
  QA   - Mulliken gross atomic charge
  VA   - Mayer's total valence
  BVA  - Mayer's bonded valence
  FA   - Mayer's free valence

  ATOM       NA         ZA         QA         VA         BVA        FA
  0 O      8.5819     8.0000    -0.5819     1.1556     1.1556    -0.0000
  1 O      8.5819     8.0000    -0.5819     1.1556     1.1556    -0.0000
  2 C      5.0600     6.0000     0.9400     3.4404     3.4404    -0.0000
  3 H      1.1984     1.0000    -0.1984     0.8521     0.8521    -0.0000
  4 C      5.0600     6.0000     0.9400     3.4404     3.4404     0.0000
  5 H      1.1984     1.0000    -0.1984     0.8521     0.8521    -0.0000
  6 H      1.1984     1.0000    -0.1984     0.8521     0.8521    -0.0000
  7 C      5.8319     6.0000     0.1681     4.0577     4.0577     0.0000
  8 C      5.8319     6.0000     0.1681     4.0577     4.0577     0.0000
  9 H      1.1984     1.0000    -0.1984     0.8521     0.8521    -0.0000
 10 H      1.0476     1.0000    -0.0476     0.8323     0.8323     0.0000
 11 H      1.0476     1.0000    -0.0476     0.8323     0.8323     0.0000
 12 H      1.0342     1.0000    -0.0342     0.7763     0.7763     0.0000
 13 H      1.0476     1.0000    -0.0476     0.8323     0.8323     0.0000
 14 H      1.0476     1.0000    -0.0476     0.8323     0.8323     0.0000
 15 H      1.0342     1.0000    -0.0342     0.7763     0.7763     0.0000

  Mayer bond orders larger than 0.100000
B(  0-O ,  1-O ) :   0.8351 B(  0-O ,  2-C ) :  -0.1873 B(  0-O ,  4-C ) :   0.5543 
B(  1-O ,  2-C ) :   0.5543 B(  1-O ,  4-C ) :  -0.1873 B(  2-C ,  3-H ) :   0.9085 
B(  2-C ,  8-C ) :   1.2279 B(  2-C ,  9-H ) :   0.9085 B(  4-C ,  5-H ) :   0.9085 
B(  4-C ,  6-H ) :   0.9085 B(  4-C ,  7-C ) :   1.2279 B(  7-C , 10-H ) :   0.9801 
B(  7-C , 11-H ) :   0.9801 B(  7-C , 12-H ) :   0.9192 B(  8-C , 13-H ) :   0.9801 
B(  8-C , 14-H ) :   0.9801 B(  8-C , 15-H ) :   0.9192 

-------
TIMINGS
-------

Total SCF time: 0 days 0 hours 0 min 18 sec 

Total time                  ....      18.401 sec
Sum of individual times     ....      18.052 sec  ( 98.1%)

Fock matrix formation       ....      14.497 sec  ( 78.8%)
Diagonalization             ....       0.092 sec  (  0.5%)
Density matrix formation    ....       0.014 sec  (  0.1%)
Population analysis         ....       0.052 sec  (  0.3%)
Initial guess               ....       0.079 sec  (  0.4%)
Orbital Transformation      ....       0.000 sec  (  0.0%)
Orbital Orthonormalization  ....       0.000 sec  (  0.0%)
DIIS solution               ....       0.059 sec  (  0.3%)
SOSCF solution              ....       3.053 sec  ( 16.6%)

Maximum memory used throughout the entire SCF-calculation: 233.0 MB


           ************************************************************
           *        Program running with 16 parallel MPI-processes    *
           *              working on a common directory               *
           ************************************************************

------------------------------------------------------------------------------
                                ORCA  MP2 
------------------------------------------------------------------------------

Freezing NCore=12 chemical core electrons

-------------
RI-MP2 ENERGY
-------------
Dimension of the basis                    ...  228
Memory devoted to MP2                     ...  256 MB   
Data format for buffers                   ... DOUBLE
Compression type for matrix containers    ... UNCOMPRESSED
Overall scaling of the MP2 energy         ...   1.000e+00
Calculating two index integrals           ... done (    0.003 sec)
Cholesky decomposition of V**-1           ... done (    0.041 sec)

-----------------
RI-TRANSFORMATION (AUX index driven)
-----------------

Dimension of the orbital-basis         ... 228
Dimension of the aux-basis             ... 662
Transformation of internal/external MOs...    6-  24 to   25- 227
Number Format for Storage              ... Double (8 Byte)
Integral mode                          ... Direct

First Phase: integral generation and transformation of MO indices
  Aux angular momentum 0               ... done (    0.016 sec)
  Aux angular momentum 1               ... done (    0.021 sec)
  Aux angular momentum 2               ... done (    0.029 sec)
  Aux angular momentum 3               ... done (    0.017 sec)
Closing buffer VIA ( 0.02 GB; CompressionRatio= 1.00)
  Phase 1 completed in     0.182 sec
Second Phase: sorting and transformation of aux index

IA-Transformation
Memory available                       ... 210 MB 
Max. # MO pairs treated in a batch     ... 2    
# of internal orbitals                 ... 19
# batches for internal orbitals        ... 1
Closing buffer IAV ( 0.02 GB; CompressionRatio= 1.00)
(ia|v) transformation done in     0.033 sec

  Phase 2 completed in     0.068 sec
RI-Integral transformation completed in     0.255 sec
Opening buffers                              ... done

Starting loop over batches of integrals:

Operator 0  - window                       ... (  6- 24)x( 25-227)
Operator 0  - Memory available             ...   256 MB
Operator 0  - Memory needed per MO         ...   1.0 MB
Operator 0  - Number of orbitals per batch ... 2
Operator 0  - Number of batches            ... 1

OPERATOR  0   PASS   0:  MOs     6 ...    7 +    8 ...    9 +   10 ...   11 +   12 ...   13
                            +   14 ...   15 +   16 ...   17 +   18 ...   19 +   20 ...   21
                            +   22 ...   23 +   24 ...   24
  Reading integrals       ... ok
Time spent in pair loops =     0.009 sec
Deleting buffer (Ka|jb)[aa] ...done

-----------------------------------------------
 RI-MP2 CORRELATION ENERGY:     -1.001949218 Eh
-----------------------------------------------


-------
TIMINGS
-------

Total time                :    0.384 sec
Integral trafo            :    0.262 sec ( 68.2%)
I/O of integrals          :    0.001 sec (  0.2%)
K(i,j) Operators          :    0.005 sec (  1.2%)
T(i,j) pair energies      :    0.001 sec (  0.2%)
V-calculation             :    0.003 sec (  0.7%)
V**(-1/2)                 :    0.041 sec ( 10.6%)
Gamma(ia|P)               :    0.000 sec (  0.0%)
Gamma-Trafo               :    0.000 sec (  0.0%)
D(virtual)                :    0.000 sec (  0.0%)
D(internal)               :    0.000 sec (  0.0%)
W(virtual)                :    0.000 sec (  0.0%)
W(internal)               :    0.000 sec (  0.0%)
L(virtual)                :    0.000 sec (  0.0%)
L(internal)               :    0.000 sec (  0.0%)
G(D)                      :    0.000 sec (  0.0%)
G(Z)                      :    0.000 sec (  0.0%)
Z-Vector Solution         :    0.000 sec (  0.0%)
3-Index Derivative        :    0.000 sec (  0.0%)
2-Index Derivative        :    0.000 sec (  0.0%)
Separable Gradient        :    0.000 sec (  0.0%)


---------------------------------------
MP2 TOTAL ENERGY:     -307.949631641 Eh
---------------------------------------

Maximum memory used throughout the entire MP2-calculation: 91.0 MB

-------------------------   --------------------
FINAL SINGLE POINT ENERGY      -307.949631641360
-------------------------   --------------------


                            ***************************************
                            *     ORCA property calculations      *
                            ***************************************


  WARNING: The energy has been calculated at the MP2 level but the densities
           used in the property calculations are still SCF densities
           MP2 response densities have not been calculated 
           use %mp2 Density relaxed end
           or  %mp2 Density unrelaxed end

                                    ---------------------
                                    Active property flags
                                    ---------------------
   (+) Dipole Moment


------------------------------------------------------------------------------
                       ORCA ELECTRIC PROPERTIES CALCULATION
------------------------------------------------------------------------------

Dipole Moment Calculation                       ... on
Quadrupole Moment Calculation                   ... off
Polarizability Calculation                      ... off
GBWName                                         ... DZ_diethyl_peroxide.gbw
Electron density                                ... DZ_diethyl_peroxide.scfp
The origin for moment calculation is the CENTER OF MASS  = ( 0.000000,  0.000000  0.000000)

-------------
DIPOLE MOMENT
-------------
                                X             Y             Z
Electronic contribution:      0.00000      -0.00000       0.00000
Nuclear contribution   :      0.00000      -0.00000       0.00000
                        -----------------------------------------
Total Dipole Moment    :      0.00000      -0.00000       0.00000
                        -----------------------------------------
Magnitude (a.u.)       :      0.00000
Magnitude (Debye)      :      0.00000



--------------------
Rotational spectrum 
--------------------
 
Rotational constants in cm-1:     0.578299     0.045042     0.043142 
Rotational constants in MHz : 17336.961376  1350.337452  1293.377698 

 Dipole components along the rotational axes: 
x,y,z [a.u.] :    -0.000000    -0.000000     0.000000 
x,y,z [Debye]:    -0.000000    -0.000000     0.000000 

 

Timings for individual modules:

Sum of individual times         ...       46.327 sec (=   0.772 min)
GTO integral calculation        ...       14.574 sec (=   0.243 min)  31.5 %
SCF iterations                  ...       25.862 sec (=   0.431 min)  55.8 %
MP2 module                      ...        5.891 sec (=   0.098 min)  12.7 %
                             ****ORCA TERMINATED NORMALLY****
TOTAL RUN TIME: 0 days 0 hours 0 minutes 52 seconds 156 msec
