
                                 *****************
                                 * O   R   C   A *
                                 *****************

                                            #,                                       
                                            ###                                      
                                            ####                                     
                                            #####                                    
                                            ######                                   
                                           ########,                                 
                                     ,,################,,,,,                         
                               ,,#################################,,                 
                          ,,##########################################,,             
                       ,#########################################, ''#####,          
                    ,#############################################,,   '####,        
                  ,##################################################,,,,####,       
                ,###########''''           ''''###############################       
              ,#####''   ,,,,##########,,,,          '''####'''          '####       
            ,##' ,,,,###########################,,,                        '##       
           ' ,,###''''                  '''############,,,                           
         ,,##''                                '''############,,,,        ,,,,,,###''
      ,#''                                            '''#######################'''  
     '                                                          ''''####''''         
             ,#######,   #######,   ,#######,      ##                                
            ,#'     '#,  ##    ##  ,#'     '#,    #''#        ######   ,####,        
            ##       ##  ##   ,#'  ##            #'  '#       #        #'  '#        
            ##       ##  #######   ##           ,######,      #####,   #    #        
            '#,     ,#'  ##    ##  '#,     ,#' ,#      #,         ##   #,  ,#        
             '#######'   ##     ##  '#######'  #'      '#     #####' # '####'        



                  #######################################################
                  #                        -***-                        #
                  #          Department of theory and spectroscopy      #
                  #    Directorship and core code : Frank Neese         #
                  #        Max Planck Institute fuer Kohlenforschung    #
                  #                Kaiser Wilhelm Platz 1               #
                  #                 D-45470 Muelheim/Ruhr               #
                  #                      Germany                        #
                  #                                                     #
                  #                  All rights reserved                #
                  #                        -***-                        #
                  #######################################################


                         Program Version 5.0.3 -  RELEASE  -


 With contributions from (in alphabetic order):
   Daniel Aravena         : Magnetic Suceptibility
   Michael Atanasov       : Ab Initio Ligand Field Theory (pilot matlab implementation)
   Alexander A. Auer      : GIAO ZORA, VPT2 properties, NMR spectrum
   Ute Becker             : Parallelization
   Giovanni Bistoni       : ED, misc. LED, open-shell LED, HFLD
   Martin Brehm           : Molecular dynamics
   Dmytro Bykov           : SCF Hessian
   Vijay G. Chilkuri      : MRCI spin determinant printing, contributions to CSF-ICE
   Dipayan Datta          : RHF DLPNO-CCSD density
   Achintya Kumar Dutta   : EOM-CC, STEOM-CC
   Dmitry Ganyushin       : Spin-Orbit,Spin-Spin,Magnetic field MRCI
   Miquel Garcia          : C-PCM and meta-GGA Hessian, CC/C-PCM, Gaussian charge scheme
   Yang Guo               : DLPNO-NEVPT2, F12-NEVPT2, CIM, IAO-localization
   Andreas Hansen         : Spin unrestricted coupled pair/coupled cluster methods
   Benjamin Helmich-Paris : MC-RPA, TRAH-SCF, COSX integrals
   Lee Huntington         : MR-EOM, pCC
   Robert Izsak           : Overlap fitted RIJCOSX, COSX-SCS-MP3, EOM
   Marcus Kettner         : VPT2
   Christian Kollmar      : KDIIS, OOCD, Brueckner-CCSD(T), CCSD density, CASPT2, CASPT2-K
   Simone Kossmann        : Meta GGA functionals, TD-DFT gradient, OOMP2, MP2 Hessian
   Martin Krupicka        : Initial AUTO-CI
   Lucas Lang             : DCDCAS
   Marvin Lechner         : AUTO-CI (C++ implementation), FIC-MRCC
   Dagmar Lenk            : GEPOL surface, SMD
   Dimitrios Liakos       : Extrapolation schemes; Compound Job, initial MDCI parallelization
   Dimitrios Manganas     : Further ROCIS development; embedding schemes
   Dimitrios Pantazis     : SARC Basis sets
   Anastasios Papadopoulos: AUTO-CI, single reference methods and gradients
   Taras Petrenko         : DFT Hessian,TD-DFT gradient, ASA, ECA, R-Raman, ABS, FL, XAS/XES, NRVS
   Peter Pinski           : DLPNO-MP2, DLPNO-MP2 Gradient
   Christoph Reimann      : Effective Core Potentials
   Marius Retegan         : Local ZFS, SOC
   Christoph Riplinger    : Optimizer, TS searches, QM/MM, DLPNO-CCSD(T), (RO)-DLPNO pert. Triples
   Tobias Risthaus        : Range-separated hybrids, TD-DFT gradient, RPA, STAB
   Michael Roemelt        : Original ROCIS implementation
   Masaaki Saitow         : Open-shell DLPNO-CCSD energy and density
   Barbara Sandhoefer     : DKH picture change effects
   Avijit Sen             : IP-ROCIS
   Kantharuban Sivalingam : CASSCF convergence, NEVPT2, FIC-MRCI
   Bernardo de Souza      : ESD, SOC TD-DFT
   Georgi Stoychev        : AutoAux, RI-MP2 NMR, DLPNO-MP2 response
   Willem Van den Heuvel  : Paramagnetic NMR
   Boris Wezisla          : Elementary symmetry handling
   Frank Wennmohs         : Technical directorship


 We gratefully acknowledge several colleagues who have allowed us to
 interface, adapt or use parts of their codes:
   Stefan Grimme, W. Hujo, H. Kruse, P. Pracht,  : VdW corrections, initial TS optimization,
                  C. Bannwarth, S. Ehlert          DFT functionals, gCP, sTDA/sTD-DF
   Ed Valeev, F. Pavosevic, A. Kumar             : LibInt (2-el integral package), F12 methods
   Garnet Chan, S. Sharma, J. Yang, R. Olivares  : DMRG
   Ulf Ekstrom                                   : XCFun DFT Library
   Mihaly Kallay                                 : mrcc  (arbitrary order and MRCC methods)
   Jiri Pittner, Ondrej Demel                    : Mk-CCSD
   Frank Weinhold                                : gennbo (NPA and NBO analysis)
   Christopher J. Cramer and Donald G. Truhlar   : smd solvation model
   Lars Goerigk                                  : TD-DFT with DH, B97 family of functionals
   V. Asgeirsson, H. Jonsson                     : NEB implementation
   FAccTs GmbH                                   : IRC, NEB, NEB-TS, DLPNO-Multilevel, CI-OPT
                                                   MM, QMMM, 2- and 3-layer-ONIOM, Crystal-QMMM,
                                                   LR-CPCM, SF, NACMEs, symmetry and pop. for TD-DFT,
                                                   nearIR, NL-DFT gradient (VV10), updates on ESD,
                                                   ML-optimized integration grids
   S Lehtola, MJT Oliveira, MAL Marques          : LibXC Library
   Liviu Ungur et al                             : ANISO software


 Your calculation uses the libint2 library for the computation of 2-el integrals
 For citations please refer to: http://libint.valeyev.net

 Your ORCA version has been built with support for libXC version: 5.1.0
 For citations please refer to: https://tddft.org/programs/libxc/

 This ORCA versions uses:
   CBLAS   interface :  Fast vector & matrix operations
   LAPACKE interface :  Fast linear algebra routines
   SCALAPACK package :  Parallel linear algebra routines
   Shared memory     :  Shared parallel matrices
   BLAS/LAPACK       :  OpenBLAS 0.3.15  USE64BITINT DYNAMIC_ARCH NO_AFFINITY SkylakeX SINGLE_THREADED
        Core in use  :  SkylakeX
   Copyright (c) 2011-2014, The OpenBLAS Project


================================================================================

----- Orbital basis set information -----
Your calculation utilizes the basis: aug-cc-pVDZ 
    H, B-Ne : Obtained from the ccRepo (grant-hill.group.shef.ac.uk/ccrepo) Feb. 2017
              R. A. Kendall, T. H. Dunning, Jr., R. J. Harrison, J. Chem. Phys. 96, 6796 (1992)
         He : Obtained from the ccRepo (grant-hill.group.shef.ac.uk/ccrepo) Feb. 2017
              D. E. Woon, T. H. Dunning, Jr., J. Chem. Phys. 100, 2975 (1994)
  Li-Be, Na : Obtained from the ccRepo (grant-hill.group.shef.ac.uk/ccrepo) Feb. 2017
              B. P. Prascher, D. E. Woon, K. A. Peterson, T. H. Dunning, Jr., A. K. Wilson, Theor. Chem. Acc. 128, 69 (2011)
         Mg : Obtained from the Peterson Research Group Website (tyr0.chem.wsu.edu/~kipeters) Feb. 2017
              B. P. Prascher, D. E. Woon, K. A. Peterson, T. H. Dunning, Jr., A. K. Wilson, Theor. Chem. Acc. 128, 69 (2011)
      Al-Ar : Obtained from the ccRepo (grant-hill.group.shef.ac.uk/ccrepo) Feb. 2017
              D. E. Woon, T. H. Dunning, Jr., J. Chem. Phys. 98, 1358 (1993)
      Sc-Zn : Obtained from the ccRepo (grant-hill.group.shef.ac.uk/ccrepo) Feb. 2017
              N. B. Balabanov, K. A. Peterson, J. Chem. Phys. 123, 064107 (2005)
              N. B. Balabanov, K. A. Peterson, J. Chem. Phys. 125, 074110 (2006)
      Ga-Kr : Obtained from the ccRepo (grant-hill.group.shef.ac.uk/ccrepo) Feb. 2017
              A. K. Wilson, D. E. Woon, K. A. Peterson, T. H. Dunning, Jr., J. Chem. Phys. 110, 7667 (1999)

----- AuxC basis set information -----
Your calculation utilizes the auxiliary basis: aug-cc-pVDZ/C 
  H-He, B, Ne, Al-Ar, Ga-Ge, Se-Br : Obtained from the EMSL Basis Set Exchange (bse.pnl.gov) Feb. 2017
                                     F. Weigend, A. Kohn, C. Hattig, J. Chem. Phys. 116, 3175 (2002)
                            Be, Mg : Obtained from the TURBOMOLE 7.0 basis set library
                                     C. Haettig, Phys. Chem. Chem. Phys. 7, 59 (2005)
                               C-F : Obtained from the EMSL Basis Set Exchange (bse.pnl.gov) Feb. 2017
                                     C. Haettig, Phys. Chem. Chem. Phys. 7, 59 (2005)
                                     F. Weigend, A. Kohn, C. Hattig, J. Chem. Phys. 116, 3175 (2002)
                                As : Obtained from the EMSL Basis Set Exchange (bse.pnl.gov) Feb. 2017
                                     C. Haettig, G. Schmitz, J. Kossmann, Phys. Chem. Chem. Phys. 14, 6549 (2012)
                                Kr : Obtained from the TURBOMOLE 7.0 basis set library
                                     F. Weigend, A. Kohn, C. Hattig, J. Chem. Phys. 116, 3175 (2002)
                                     S function revised in Sep. 2009

================================================================================
                                        WARNINGS
                       Please study these warnings very carefully!
================================================================================


WARNING: No MP2 level density has been requested!
         To caclulate MP2 level properties use
         %mp2 Density relaxed end
         or
         %mp2 Density unrelaxed end

WARNING: Post HF methods need fully converged wavefunctions
  ===> : Setting SCFConvForced true
         You can overwrite this default with %scf ConvForced false 


INFO   : the flag for use of the SHARK integral package has been found!

================================================================================
                                       INPUT FILE
================================================================================
NAME = DZ_E-1,3,5-hexatriene.inp
|  1> !ri-mp2 aug-cc-pvdz aug-cc-pvdz/c tightscf
|  2> %pal nprocs 16 end
|  3> 
|  4> * xyz 0 1
|  5> C     1.188032     2.829092       0.000000
|  6> C    -1.188032    -2.829092       0.000000
|  7> C     1.188032     1.492100       0.000000
|  8> C    -1.188032    -1.492100       0.000000
|  9> C    -0.002470     0.672860       0.000000
| 10> C     0.002470    -0.672860       0.000000
| 11> H     2.108575     3.395117       0.000000
| 12> H     0.264255     3.394397       0.000000
| 13> H    -2.108575    -3.395117       0.000000
| 14> H    -0.264255    -3.394397       0.000000
| 15> H     2.137085     0.964589       0.000000
| 16> H    -2.137085    -0.964589       0.000000
| 17> H    -0.955353     1.194813       0.000000
| 18> H     0.955353    -1.194813       0.000000
| 19> *
| 20> 
| 21>                          ****END OF INPUT****
================================================================================

                       ****************************
                       * Single Point Calculation *
                       ****************************

---------------------------------
CARTESIAN COORDINATES (ANGSTROEM)
---------------------------------
  C      1.188032    2.829092    0.000000
  C     -1.188032   -2.829092    0.000000
  C      1.188032    1.492100    0.000000
  C     -1.188032   -1.492100    0.000000
  C     -0.002470    0.672860    0.000000
  C      0.002470   -0.672860    0.000000
  H      2.108575    3.395117    0.000000
  H      0.264255    3.394397    0.000000
  H     -2.108575   -3.395117    0.000000
  H     -0.264255   -3.394397    0.000000
  H      2.137085    0.964589    0.000000
  H     -2.137085   -0.964589    0.000000
  H     -0.955353    1.194813    0.000000
  H      0.955353   -1.194813    0.000000

----------------------------
CARTESIAN COORDINATES (A.U.)
----------------------------
  NO LB      ZA    FRAG     MASS         X           Y           Z
   0 C     6.0000    0    12.011    2.245055    5.346209    0.000000
   1 C     6.0000    0    12.011   -2.245055   -5.346209    0.000000
   2 C     6.0000    0    12.011    2.245055    2.819660    0.000000
   3 C     6.0000    0    12.011   -2.245055   -2.819660    0.000000
   4 C     6.0000    0    12.011   -0.004668    1.271521    0.000000
   5 C     6.0000    0    12.011    0.004668   -1.271521    0.000000
   6 H     1.0000    0     1.008    3.984629    6.415841    0.000000
   7 H     1.0000    0     1.008    0.499370    6.414481    0.000000
   8 H     1.0000    0     1.008   -3.984629   -6.415841    0.000000
   9 H     1.0000    0     1.008   -0.499370   -6.414481    0.000000
  10 H     1.0000    0     1.008    4.038505    1.822809    0.000000
  11 H     1.0000    0     1.008   -4.038505   -1.822809    0.000000
  12 H     1.0000    0     1.008   -1.805356    2.257869    0.000000
  13 H     1.0000    0     1.008    1.805356   -2.257869    0.000000

--------------------------------
INTERNAL COORDINATES (ANGSTROEM)
--------------------------------
 C      0   0   0     0.000000000000     0.00000000     0.00000000
 C      1   0   0     6.136833573591     0.00000000     0.00000000
 C      1   2   0     1.336992000000    22.77919255     0.00000000
 C      2   1   3     1.336992000000    22.77919255   180.00000000
 C      3   1   2     1.445146770956   124.53367543     0.00000000
 C      5   3   1     1.345729067086   124.32334945   180.00000000
 H      1   2   4     1.080640419138   144.36578798   180.00000000
 H      1   2   4     1.083020631731    98.68534037     0.00000000
 H      2   1   3     1.080640419138   144.36578798   180.00000000
 H      2   1   3     1.083020631731    98.68534037     0.00000000
 H      3   1   2     1.085803597309   119.06656653   180.00000000
 H      4   2   1     1.085803597309   119.06656653   180.00000000
 H      5   3   1     1.086471787898   116.75407594     0.00000000
 H      6   5   3     1.086471787898   118.92257461     0.00000000

---------------------------
INTERNAL COORDINATES (A.U.)
---------------------------
 C      0   0   0     0.000000000000     0.00000000     0.00000000
 C      1   0   0    11.596934783540     0.00000000     0.00000000
 C      1   2   0     2.526548723244    22.77919255     0.00000000
 C      2   1   3     2.526548723244    22.77919255   180.00000000
 C      3   1   2     2.730931620427   124.53367543     0.00000000
 C      5   3   1     2.543059387250   124.32334945   180.00000000
 H      1   2   4     2.042114441416   144.36578798   180.00000000
 H      1   2   4     2.046612391357    98.68534037     0.00000000
 H      2   1   3     2.042114441416   144.36578798   180.00000000
 H      2   1   3     2.046612391357    98.68534037     0.00000000
 H      3   1   2     2.051871434141   119.06656653   180.00000000
 H      4   2   1     2.051871434141   119.06656653   180.00000000
 H      5   3   1     2.053134131359   116.75407594     0.00000000
 H      6   5   3     2.053134131359   118.92257461     0.00000000

---------------------
BASIS SET INFORMATION
---------------------
There are 2 groups of distinct atoms

 Group   1 Type C   : 18s5p2d contracted to 4s3p2d pattern {8811/311/11}
 Group   2 Type H   : 5s2p contracted to 3s2p pattern {311/11}

Atom   0C    basis set group =>   1
Atom   1C    basis set group =>   1
Atom   2C    basis set group =>   1
Atom   3C    basis set group =>   1
Atom   4C    basis set group =>   1
Atom   5C    basis set group =>   1
Atom   6H    basis set group =>   2
Atom   7H    basis set group =>   2
Atom   8H    basis set group =>   2
Atom   9H    basis set group =>   2
Atom  10H    basis set group =>   2
Atom  11H    basis set group =>   2
Atom  12H    basis set group =>   2
Atom  13H    basis set group =>   2
---------------------------------
AUXILIARY/C BASIS SET INFORMATION
---------------------------------
There are 2 groups of distinct atoms

 Group   1 Type C   : 8s6p5d3f contracted to 8s6p5d3f pattern {11111111/111111/11111/111}
 Group   2 Type H   : 4s3p2d contracted to 4s3p2d pattern {1111/111/11}

Atom   0C    basis set group =>   1
Atom   1C    basis set group =>   1
Atom   2C    basis set group =>   1
Atom   3C    basis set group =>   1
Atom   4C    basis set group =>   1
Atom   5C    basis set group =>   1
Atom   6H    basis set group =>   2
Atom   7H    basis set group =>   2
Atom   8H    basis set group =>   2
Atom   9H    basis set group =>   2
Atom  10H    basis set group =>   2
Atom  11H    basis set group =>   2
Atom  12H    basis set group =>   2
Atom  13H    basis set group =>   2


           ************************************************************
           *        Program running with 16 parallel MPI-processes    *
           *              working on a common directory               *
           ************************************************************
------------------------------------------------------------------------------
                           ORCA GTO INTEGRAL CALCULATION
------------------------------------------------------------------------------
------------------------------------------------------------------------------
                   ___                                                        
                  /   \      - P O W E R E D   B Y -                         
                 /     \                                                     
                 |  |  |   _    _      __       _____    __    __             
                 |  |  |  | |  | |    /  \     |  _  \  |  |  /  |          
                  \  \/   | |  | |   /    \    | | | |  |  | /  /          
                 / \  \   | |__| |  /  /\  \   | |_| |  |  |/  /          
                |  |  |   |  __  | /  /__\  \  |    /   |      \           
                |  |  |   | |  | | |   __   |  |    \   |  |\   \          
                \     /   | |  | | |  |  |  |  | |\  \  |  | \   \       
                 \___/    |_|  |_| |__|  |__|  |_| \__\ |__|  \__/        
                                                                              
                      - O R C A' S   B I G   F R I E N D -                    
                                      &                                       
                       - I N T E G R A L  F E E D E R -                       
                                                                              
 v1 FN, 2020, v2 2021                                                         
------------------------------------------------------------------------------


Reading SHARK input file DZ_E-1,3,5-hexatriene.SHARKINP.tmp ... ok
----------------------
SHARK INTEGRAL PACKAGE
----------------------

Number of atoms                             ...     14
Number of basis functions                   ...    246
Number of shells                            ...    130
Maximum angular momentum                    ...      2
Integral batch strategy                     ... SHARK/LIBINT Hybrid
RI-J (if used) integral strategy            ... SPLIT-RIJ (Revised 2003 algorithm where possible)
Printlevel                                  ...      1
Contraction scheme used                     ... PARTIAL GENERAL contraction
Coulomb Range Separation                    ... NOT USED
Exchange Range Separation                   ... NOT USED
Finite Nucleus Model                        ... NOT USED
Auxiliary Coulomb fitting basis             ... NOT available
Auxiliary J/K fitting basis                 ... NOT available
Auxiliary Correlation fitting basis         ... AVAILABLE
   # of basis functions in Aux-C            ...    616
   # of shells in Aux-C                     ...    204
   Maximum angular momentum in Aux-C        ...      3
Auxiliary 'external' fitting basis          ... NOT available
Integral threshold                          ...     2.500000e-11
Primitive cut-off                           ...     2.500000e-12
Primitive pair pre-selection threshold      ...     2.500000e-12

Calculating pre-screening integrals         ... done (  0.0 sec) Dimension = 130
Calculating pre-screening integrals (ORCA)  ... done (  0.1 sec) Dimension = 94
Organizing shell pair data                  ... done (  0.1 sec)
Shell pair information
Total number of shell pairs                 ...      8515
Shell pairs after pre-screening             ...      7341
Total number of primitive shell pairs       ...     12603
Primitive shell pairs kept                  ...      9998
          la=0 lb=0:   2710 shell pairs
          la=1 lb=0:   2626 shell pairs
          la=1 lb=1:    580 shell pairs
          la=2 lb=0:    948 shell pairs
          la=2 lb=1:    400 shell pairs
          la=2 lb=2:     77 shell pairs

Calculating one electron integrals          ... done (  0.0 sec)
Calculating RI/C V-Matrix + Cholesky decomp.... done (  0.0 sec)
Calculating Nuclear repulsion               ... done (  0.0 sec) ENN=    194.439111747316 Eh

SHARK setup successfully completed in   0.3 seconds

Maximum memory used throughout the entire GTOINT-calculation: 17.3 MB


           ************************************************************
           *        Program running with 16 parallel MPI-processes    *
           *              working on a common directory               *
           ************************************************************
-------------------------------------------------------------------------------
                                 ORCA SCF
-------------------------------------------------------------------------------

------------
SCF SETTINGS
------------
Hamiltonian:
 Ab initio Hamiltonian  Method          .... Hartree-Fock(GTOs)


General Settings:
 Integral files         IntName         .... DZ_E-1,3,5-hexatriene
 Hartree-Fock type      HFTyp           .... RHF
 Total Charge           Charge          ....    0
 Multiplicity           Mult            ....    1
 Number of Electrons    NEL             ....   44
 Basis Dimension        Dim             ....  210
 Nuclear Repulsion      ENuc            ....    194.4391117473 Eh

Convergence Acceleration:
 DIIS                   CNVDIIS         .... on
   Start iteration      DIISMaxIt       ....    12
   Startup error        DIISStart       ....  0.200000
   # of expansion vecs  DIISMaxEq       ....     5
   Bias factor          DIISBfac        ....   1.050
   Max. coefficient     DIISMaxC        ....  10.000
 Trust-Rad. Augm. Hess. CNVTRAH         .... auto
   Auto Start mean grad. ratio tolernc. ....  1.125000
   Auto Start start iteration           ....    20
   Auto Start num. interpolation iter.  ....    10
   Max. Number of Micro iterations      ....    16
   Max. Number of Macro iterations      .... Maxiter - #DIIS iter
   Number of Davidson start vectors     ....     2
   Converg. threshold I  (grad. norm)   ....   1.000e-05
   Converg. threshold II (energy diff.) ....   1.000e-08
   Grad. Scal. Fac. for Micro threshold ....   0.100
   Minimum threshold for Micro iter.    ....   0.010
   NR start threshold (gradient norm)   ....   0.001
   Initial trust radius                 ....   0.400
   Minimum AH scaling param. (alpha)    ....   1.000
   Maximum AH scaling param. (alpha)    .... 1000.000
   Orbital update algorithm             .... Taylor
   White noise on init. David. guess    .... on
   Maximum white noise                  ....   0.010
   Quad. conv. algorithm                .... NR
 SOSCF                  CNVSOSCF        .... on
   Start iteration      SOSCFMaxIt      ....   150
   Startup grad/error   SOSCFStart      ....  0.003300
 Level Shifting         CNVShift        .... on
   Level shift para.    LevelShift      ....    0.2500
   Turn off err/grad.   ShiftErr        ....    0.0010
 Zerner damping         CNVZerner       .... off
 Static damping         CNVDamp         .... on
   Fraction old density DampFac         ....    0.7000
   Max. Damping (<1)    DampMax         ....    0.9800
   Min. Damping (>=0)   DampMin         ....    0.0000
   Turn off err/grad.   DampErr         ....    0.1000
 Fernandez-Rico         CNVRico         .... off

SCF Procedure:
 Maximum # iterations   MaxIter         ....   125
 SCF integral mode      SCFMode         .... Direct
   Integral package                     .... SHARK and LIBINT hybrid scheme
 Reset frequency        DirectResetFreq ....    20
 Integral Threshold     Thresh          ....  2.500e-11 Eh
 Primitive CutOff       TCut            ....  2.500e-12 Eh

Convergence Tolerance:
 Convergence Check Mode ConvCheckMode   .... Total+1el-Energy
 Convergence forced     ConvForced      .... 1
 Energy Change          TolE            ....  1.000e-08 Eh
 1-El. energy change                    ....  1.000e-05 Eh
 Orbital Gradient       TolG            ....  1.000e-05
 Orbital Rotation angle TolX            ....  1.000e-05
 DIIS Error             TolErr          ....  5.000e-07


Diagonalization of the overlap matrix:
Smallest eigenvalue                        ... 4.281e-06
Time for diagonalization                   ...    0.007 sec
Threshold for overlap eigenvalues          ... 1.000e-08
Number of eigenvalues below threshold      ... 0
Time for construction of square roots      ...    0.007 sec
Total time needed                          ...    0.014 sec

Time for model grid setup =    0.085 sec

------------------------------
INITIAL GUESS: MODEL POTENTIAL
------------------------------
Loading Hartree-Fock densities                     ... done
Calculating cut-offs                               ... done
Initializing the effective Hamiltonian             ... done
Setting up the integral package (SHARK)            ... done
Starting the Coulomb interaction                   ... done (   0.0 sec)
Reading the grid                                   ... done
Mapping shells                                     ... done
Starting the XC term evaluation                    ... done (   0.0 sec)
Transforming the Hamiltonian                       ... done (   0.0 sec)
Diagonalizing the Hamiltonian                      ... done (   0.0 sec)
Back transforming the eigenvectors                 ... done (   0.0 sec)
Now organizing SCF variables                       ... done
                      ------------------
                      INITIAL GUESS DONE (   0.2 sec)
                      ------------------
--------------
SCF ITERATIONS
--------------
ITER       Energy         Delta-E        Max-DP      RMS-DP      [F,P]     Damp
               ***  Starting incremental Fock matrix formation  ***
  0   -231.5702459133   0.000000000000 0.71463803  0.01748377  0.1797290 0.7000
  1   -231.6599887191  -0.089742805780 0.54205457  0.01327049  0.1215871 0.7000
                               ***Turning on DIIS***
  2   -231.7172805781  -0.057291859026 1.25286494  0.03096390  0.0757793 0.0000
  3   -231.3659319939   0.351348584217 0.07827853  0.00192612  0.0223851 0.0000
  4   -231.7766888483  -0.410756854366 0.05228187  0.00096939  0.0051910 0.0000
                      *** Initiating the SOSCF procedure ***
                           *** Shutting down DIIS ***
                      *** Re-Reading the Fockian *** 
                      *** Removing any level shift *** 
ITER      Energy       Delta-E        Grad      Rot      Max-DP    RMS-DP
  5   -231.82636537  -0.0496765178  0.002729  0.002729  0.010930  0.000264
               *** Restarting incremental Fock matrix formation ***
  6   -231.83775813  -0.0113927637  0.001246  0.002652  0.002132  0.000065
  7   -231.83778521  -0.0000270853  0.000497  0.001765  0.002431  0.000067
  8   -231.83779145  -0.0000062377  0.000167  0.000275  0.000336  0.000013
  9   -231.83779185  -0.0000003957  0.000046  0.000091  0.000157  0.000005
 10   -231.83779188  -0.0000000323  0.000005  0.000009  0.000041  0.000001
 11   -231.83779188  -0.0000000017  0.000003  0.000006  0.000024  0.000001
                  ***Gradient check signals convergence***
              ***Rediagonalizing the Fockian in SOSCF/NRSCF***

               *****************************************************
               *                     SUCCESS                       *
               *           SCF CONVERGED AFTER  12 CYCLES          *
               *****************************************************


----------------
TOTAL SCF ENERGY
----------------

Total Energy       :         -231.83779189 Eh           -6308.62704 eV

Components:
Nuclear Repulsion  :          194.43911175 Eh            5290.95722 eV
Electronic Energy  :         -426.27690363 Eh          -11599.58426 eV
One Electron Energy:         -696.15389943 Eh          -18943.31066 eV
Two Electron Energy:          269.87699580 Eh            7343.72640 eV

Virial components:
Potential Energy   :         -463.51594720 Eh          -12612.91015 eV
Kinetic Energy     :          231.67815532 Eh            6304.28311 eV
Virial Ratio       :            2.00068904


---------------
SCF CONVERGENCE
---------------

  Last Energy change         ...   -2.8487e-09  Tolerance :   1.0000e-08
  Last MAX-Density change    ...    2.7391e-05  Tolerance :   1.0000e-07
  Last RMS-Density change    ...    7.6799e-07  Tolerance :   5.0000e-09
  Last Orbital Gradient      ...    8.1213e-07  Tolerance :   1.0000e-05
  Last Orbital Rotation      ...    2.2904e-06  Tolerance :   1.0000e-05

             **** THE GBW FILE WAS UPDATED (DZ_E-1,3,5-hexatriene.gbw) ****
             **** DENSITY DZ_E-1,3,5-hexatriene.scfp WAS UPDATED ****
             **** ENERGY FILE WAS UPDATED (DZ_E-1,3,5-hexatriene.en.tmp) ****
             **** THE GBW FILE WAS UPDATED (DZ_E-1,3,5-hexatriene.gbw) ****
             **** DENSITY DZ_E-1,3,5-hexatriene.scfp WAS UPDATED ****
----------------
ORBITAL ENERGIES
----------------

  NO   OCC          E(Eh)            E(eV) 
   0   2.0000     -11.246865      -306.0428 
   1   2.0000     -11.246699      -306.0382 
   2   2.0000     -11.245900      -306.0165 
   3   2.0000     -11.244491      -305.9782 
   4   2.0000     -11.236694      -305.7660 
   5   2.0000     -11.236694      -305.7660 
   6   2.0000      -1.115891       -30.3649 
   7   2.0000      -1.063415       -28.9370 
   8   2.0000      -0.988328       -26.8938 
   9   2.0000      -0.852486       -23.1973 
  10   2.0000      -0.764592       -20.8056 
  11   2.0000      -0.763339       -20.7715 
  12   2.0000      -0.668085       -18.1795 
  13   2.0000      -0.637192       -17.3389 
  14   2.0000      -0.602781       -16.4025 
  15   2.0000      -0.570803       -15.5323 
  16   2.0000      -0.543580       -14.7916 
  17   2.0000      -0.515126       -14.0173 
  18   2.0000      -0.494320       -13.4511 
  19   2.0000      -0.469301       -12.7703 
  20   2.0000      -0.398145       -10.8341 
  21   2.0000      -0.295236        -8.0338 
  22   0.0000       0.037134         1.0105 
  23   0.0000       0.039290         1.0691 
  24   0.0000       0.040492         1.1019 
  25   0.0000       0.055713         1.5160 
  26   0.0000       0.058540         1.5930 
  27   0.0000       0.072185         1.9643 
  28   0.0000       0.076460         2.0806 
  29   0.0000       0.084185         2.2908 
  30   0.0000       0.100056         2.7227 
  31   0.0000       0.108515         2.9528 
  32   0.0000       0.110385         3.0037 
  33   0.0000       0.127027         3.4566 
  34   0.0000       0.130068         3.5393 
  35   0.0000       0.133303         3.6274 
  36   0.0000       0.136267         3.7080 
  37   0.0000       0.141871         3.8605 
  38   0.0000       0.148630         4.0444 
  39   0.0000       0.168243         4.5781 
  40   0.0000       0.168855         4.5948 
  41   0.0000       0.170216         4.6318 
  42   0.0000       0.181076         4.9273 
  43   0.0000       0.185454         5.0465 
  44   0.0000       0.185530         5.0485 
  45   0.0000       0.204058         5.5527 
  46   0.0000       0.216983         5.9044 
  47   0.0000       0.217148         5.9089 
  48   0.0000       0.227484         6.1902 
  49   0.0000       0.229568         6.2469 
  50   0.0000       0.260020         7.0755 
  51   0.0000       0.268899         7.3171 
  52   0.0000       0.269082         7.3221 
  53   0.0000       0.295836         8.0501 
  54   0.0000       0.301299         8.1988 
  55   0.0000       0.307667         8.3721 
  56   0.0000       0.308709         8.4004 
  57   0.0000       0.334459         9.1011 
  58   0.0000       0.345703         9.4071 
  59   0.0000       0.348932         9.4949 
  60   0.0000       0.351646         9.5688 
  61   0.0000       0.359297         9.7770 
  62   0.0000       0.370256        10.0752 
  63   0.0000       0.375292        10.2122 
  64   0.0000       0.378330        10.2949 
  65   0.0000       0.386799        10.5253 
  66   0.0000       0.401735        10.9318 
  67   0.0000       0.420954        11.4547 
  68   0.0000       0.434331        11.8187 
  69   0.0000       0.439261        11.9529 
  70   0.0000       0.453508        12.3406 
  71   0.0000       0.460866        12.5408 
  72   0.0000       0.461858        12.5678 
  73   0.0000       0.464102        12.6289 
  74   0.0000       0.469651        12.7799 
  75   0.0000       0.500216        13.6116 
  76   0.0000       0.510517        13.8919 
  77   0.0000       0.514680        14.0052 
  78   0.0000       0.528243        14.3742 
  79   0.0000       0.533528        14.5180 
  80   0.0000       0.541675        14.7397 
  81   0.0000       0.564680        15.3657 
  82   0.0000       0.575667        15.6647 
  83   0.0000       0.601554        16.3691 
  84   0.0000       0.605282        16.4706 
  85   0.0000       0.615421        16.7465 
  86   0.0000       0.627251        17.0684 
  87   0.0000       0.636262        17.3136 
  88   0.0000       0.640839        17.4381 
  89   0.0000       0.646540        17.5932 
  90   0.0000       0.656516        17.8647 
  91   0.0000       0.659088        17.9347 
  92   0.0000       0.663206        18.0467 
  93   0.0000       0.665006        18.0957 
  94   0.0000       0.672728        18.3059 
  95   0.0000       0.683429        18.5971 
  96   0.0000       0.695259        18.9189 
  97   0.0000       0.709911        19.3177 
  98   0.0000       0.713992        19.4287 
  99   0.0000       0.720846        19.6152 
 100   0.0000       0.721265        19.6266 
 101   0.0000       0.726518        19.7696 
 102   0.0000       0.740076        20.1385 
 103   0.0000       0.741699        20.1826 
 104   0.0000       0.756698        20.5908 
 105   0.0000       0.776113        21.1191 
 106   0.0000       0.788775        21.4637 
 107   0.0000       0.816475        22.2174 
 108   0.0000       0.835389        22.7321 
 109   0.0000       0.845914        23.0185 
 110   0.0000       0.846530        23.0352 
 111   0.0000       0.846677        23.0392 
 112   0.0000       0.864141        23.5145 
 113   0.0000       0.869782        23.6680 
 114   0.0000       0.879388        23.9294 
 115   0.0000       0.891688        24.2641 
 116   0.0000       0.899901        24.4876 
 117   0.0000       0.911577        24.8053 
 118   0.0000       0.917661        24.9708 
 119   0.0000       0.926538        25.2124 
 120   0.0000       0.980906        26.6918 
 121   0.0000       0.981219        26.7003 
 122   0.0000       0.989152        26.9162 
 123   0.0000       1.016342        27.6561 
 124   0.0000       1.025178        27.8965 
 125   0.0000       1.044332        28.4177 
 126   0.0000       1.073418        29.2092 
 127   0.0000       1.138813        30.9887 
 128   0.0000       1.165688        31.7200 
 129   0.0000       1.202113        32.7112 
 130   0.0000       1.213628        33.0245 
 131   0.0000       1.298667        35.3385 
 132   0.0000       1.304727        35.5034 
 133   0.0000       1.347978        36.6803 
 134   0.0000       1.379499        37.5381 
 135   0.0000       1.385403        37.6987 
 136   0.0000       1.466983        39.9186 
 137   0.0000       1.468245        39.9530 
 138   0.0000       1.474025        40.1103 
 139   0.0000       1.514515        41.2120 
 140   0.0000       1.527080        41.5540 
 141   0.0000       1.549013        42.1508 
 142   0.0000       1.580832        43.0166 
 143   0.0000       1.588400        43.2226 
 144   0.0000       1.621541        44.1244 
 145   0.0000       1.622377        44.1471 
 146   0.0000       1.626604        44.2621 
 147   0.0000       1.634829        44.4859 
 148   0.0000       1.686086        45.8807 
 149   0.0000       1.699313        46.2406 
 150   0.0000       1.746188        47.5162 
 151   0.0000       1.753601        47.7179 
 152   0.0000       1.754870        47.7524 
 153   0.0000       1.779084        48.4113 
 154   0.0000       1.783476        48.5309 
 155   0.0000       1.794411        48.8284 
 156   0.0000       1.838911        50.0393 
 157   0.0000       1.839401        50.0526 
 158   0.0000       1.845064        50.2068 
 159   0.0000       1.851772        50.3893 
 160   0.0000       1.897530        51.6344 
 161   0.0000       1.908936        51.9448 
 162   0.0000       1.966083        53.4998 
 163   0.0000       1.969866        53.6028 
 164   0.0000       1.987904        54.0936 
 165   0.0000       2.017697        54.9043 
 166   0.0000       2.037792        55.4511 
 167   0.0000       2.076930        56.5161 
 168   0.0000       2.102161        57.2027 
 169   0.0000       2.102448        57.2105 
 170   0.0000       2.117001        57.6065 
 171   0.0000       2.137044        58.1519 
 172   0.0000       2.151878        58.5556 
 173   0.0000       2.154200        58.6188 
 174   0.0000       2.154863        58.6368 
 175   0.0000       2.184677        59.4481 
 176   0.0000       2.235959        60.8435 
 177   0.0000       2.240781        60.9748 
 178   0.0000       2.242998        61.0351 
 179   0.0000       2.256125        61.3923 
 180   0.0000       2.258592        61.4594 
 181   0.0000       2.284867        62.1744 
 182   0.0000       2.301705        62.6326 
 183   0.0000       2.314515        62.9812 
 184   0.0000       2.368818        64.4588 
 185   0.0000       2.409110        65.5552 
 186   0.0000       2.425227        65.9938 
 187   0.0000       2.429294        66.1044 
 188   0.0000       2.510804        68.3224 
 189   0.0000       2.555819        69.5474 
 190   0.0000       2.570963        69.9595 
 191   0.0000       2.572690        70.0064 
 192   0.0000       2.728975        74.2592 
 193   0.0000       2.735240        74.4297 
 194   0.0000       2.741791        74.6079 
 195   0.0000       2.751878        74.8824 
 196   0.0000       2.815424        76.6116 
 197   0.0000       2.827404        76.9376 
 198   0.0000       2.842693        77.3536 
 199   0.0000       2.850583        77.5683 
 200   0.0000       2.924836        79.5888 
 201   0.0000       2.977247        81.0150 
 202   0.0000       3.066685        83.4487 
 203   0.0000       3.163498        86.0831 
 204   0.0000       3.355274        91.3016 
 205   0.0000       3.405491        92.6681 
 206   0.0000       3.524111        95.8959 
 207   0.0000       3.650012        99.3219 
 208   0.0000       3.726717       101.4091 
 209   0.0000       3.794260       103.2471 

                    ********************************
                    * MULLIKEN POPULATION ANALYSIS *
                    ********************************

-----------------------
MULLIKEN ATOMIC CHARGES
-----------------------
   0 C :    0.590534
   1 C :    0.590534
   2 C :    0.691727
   3 C :    0.691727
   4 C :    0.478027
   5 C :    0.478027
   6 H :   -0.323051
   7 H :   -0.334775
   8 H :   -0.323051
   9 H :   -0.334775
  10 H :   -0.555992
  11 H :   -0.555992
  12 H :   -0.546469
  13 H :   -0.546469
Sum of atomic charges:    0.0000000

--------------------------------
MULLIKEN REDUCED ORBITAL CHARGES
--------------------------------
  0 C s       :     2.979449  s :     2.979449
      pz      :     0.975176  p :     2.522045
      px      :     0.641946
      py      :     0.904922
      dz2     :    -0.000471  d :    -0.092027
      dxz     :    -0.000165
      dyz     :     0.020271
      dx2y2   :    -0.028606
      dxy     :    -0.083056
  1 C s       :     2.979449  s :     2.979449
      pz      :     0.975176  p :     2.522045
      px      :     0.641946
      py      :     0.904922
      dz2     :    -0.000471  d :    -0.092027
      dxz     :    -0.000165
      dyz     :     0.020271
      dx2y2   :    -0.028606
      dxy     :    -0.083056
  2 C s       :     2.765802  s :     2.765802
      pz      :     0.935896  p :     2.624271
      px      :     1.130316
      py      :     0.558059
      dz2     :     0.018869  d :    -0.081800
      dxz     :     0.007455
      dyz     :     0.035166
      dx2y2   :    -0.137973
      dxy     :    -0.005317
  3 C s       :     2.765802  s :     2.765802
      pz      :     0.935896  p :     2.624271
      px      :     1.130316
      py      :     0.558059
      dz2     :     0.018869  d :    -0.081800
      dxz     :     0.007455
      dyz     :     0.035166
      dx2y2   :    -0.137973
      dxy     :    -0.005317
  4 C s       :     2.830558  s :     2.830558
      pz      :     0.938271  p :     2.633245
      px      :     0.852101
      py      :     0.842873
      dz2     :     0.012306  d :     0.058170
      dxz     :     0.005928
      dyz     :     0.035031
      dx2y2   :     0.058550
      dxy     :    -0.053645
  5 C s       :     2.830558  s :     2.830558
      pz      :     0.938271  p :     2.633245
      px      :     0.852101
      py      :     0.842873
      dz2     :     0.012306  d :     0.058170
      dxz     :     0.005928
      dyz     :     0.035031
      dx2y2   :     0.058550
      dxy     :    -0.053645
  6 H s       :     1.319265  s :     1.319265
      pz      :     0.014741  p :     0.003786
      px      :    -0.006826
      py      :    -0.004129
  7 H s       :     1.334142  s :     1.334142
      pz      :     0.013548  p :     0.000633
      px      :    -0.005431
      py      :    -0.007484
  8 H s       :     1.319265  s :     1.319265
      pz      :     0.014741  p :     0.003786
      px      :    -0.006826
      py      :    -0.004129
  9 H s       :     1.334142  s :     1.334142
      pz      :     0.013548  p :     0.000633
      px      :    -0.005431
      py      :    -0.007484
 10 H s       :     1.542787  s :     1.542787
      pz      :     0.009036  p :     0.013205
      px      :     0.028525
      py      :    -0.024356
 11 H s       :     1.542787  s :     1.542787
      pz      :     0.009036  p :     0.013205
      px      :     0.028525
      py      :    -0.024356
 12 H s       :     1.545485  s :     1.545485
      pz      :     0.009645  p :     0.000984
      px      :     0.025046
      py      :    -0.033708
 13 H s       :     1.545485  s :     1.545485
      pz      :     0.009645  p :     0.000984
      px      :     0.025046
      py      :    -0.033708


                     *******************************
                     * LOEWDIN POPULATION ANALYSIS *
                     *******************************

----------------------
LOEWDIN ATOMIC CHARGES
----------------------
   0 C :    0.174710
   1 C :    0.174710
   2 C :   -0.078774
   3 C :   -0.078774
   4 C :   -0.018765
   5 C :   -0.018765
   6 H :   -0.045189
   7 H :   -0.040116
   8 H :   -0.045189
   9 H :   -0.040116
  10 H :    0.001046
  11 H :    0.001046
  12 H :    0.007088
  13 H :    0.007088

-------------------------------
LOEWDIN REDUCED ORBITAL CHARGES
-------------------------------
  0 C s       :     2.660712  s :     2.660712
      pz      :     0.770301  p :     2.710891
      px      :     0.935996
      py      :     1.004594
      dz2     :     0.044801  d :     0.453687
      dxz     :     0.000496
      dyz     :     0.064667
      dx2y2   :     0.112229
      dxy     :     0.231494
  1 C s       :     2.660712  s :     2.660712
      pz      :     0.770301  p :     2.710891
      px      :     0.935996
      py      :     1.004594
      dz2     :     0.044801  d :     0.453687
      dxz     :     0.000496
      dyz     :     0.064667
      dx2y2   :     0.112229
      dxy     :     0.231494
  2 C s       :     2.623606  s :     2.623606
      pz      :     0.745118  p :     2.671129
      px      :     0.925720
      py      :     1.000291
      dz2     :     0.067820  d :     0.784039
      dxz     :     0.053018
      dyz     :     0.140224
      dx2y2   :     0.232648
      dxy     :     0.290330
  3 C s       :     2.623606  s :     2.623606
      pz      :     0.745118  p :     2.671129
      px      :     0.925720
      py      :     1.000291
      dz2     :     0.067820  d :     0.784039
      dxz     :     0.053018
      dyz     :     0.140224
      dx2y2   :     0.232648
      dxy     :     0.290330
  4 C s       :     2.612669  s :     2.612669
      pz      :     0.740481  p :     2.650670
      px      :     0.921745
      py      :     0.988444
      dz2     :     0.068081  d :     0.755426
      dxz     :     0.052429
      dyz     :     0.132310
      dx2y2   :     0.227485
      dxy     :     0.275121
  5 C s       :     2.612669  s :     2.612669
      pz      :     0.740481  p :     2.650670
      px      :     0.921745
      py      :     0.988444
      dz2     :     0.068081  d :     0.755426
      dxz     :     0.052429
      dyz     :     0.132310
      dx2y2   :     0.227485
      dxy     :     0.275121
  6 H s       :     0.759772  s :     0.759772
      pz      :     0.081966  p :     0.285417
      px      :     0.125834
      py      :     0.077617
  7 H s       :     0.755532  s :     0.755532
      pz      :     0.078750  p :     0.284584
      px      :     0.127666
      py      :     0.078168
  8 H s       :     0.759772  s :     0.759772
      pz      :     0.081966  p :     0.285417
      px      :     0.125834
      py      :     0.077617
  9 H s       :     0.755532  s :     0.755532
      pz      :     0.078750  p :     0.284584
      px      :     0.127666
      py      :     0.078168
 10 H s       :     0.736977  s :     0.736977
      pz      :     0.070456  p :     0.261976
      px      :     0.116107
      py      :     0.075414
 11 H s       :     0.736977  s :     0.736977
      pz      :     0.070456  p :     0.261976
      px      :     0.116107
      py      :     0.075414
 12 H s       :     0.732151  s :     0.732151
      pz      :     0.069785  p :     0.260761
      px      :     0.116921
      py      :     0.074056
 13 H s       :     0.732151  s :     0.732151
      pz      :     0.069785  p :     0.260761
      px      :     0.116921
      py      :     0.074056


                      *****************************
                      * MAYER POPULATION ANALYSIS *
                      *****************************

  NA   - Mulliken gross atomic population
  ZA   - Total nuclear charge
  QA   - Mulliken gross atomic charge
  VA   - Mayer's total valence
  BVA  - Mayer's bonded valence
  FA   - Mayer's free valence

  ATOM       NA         ZA         QA         VA         BVA        FA
  0 C      5.4095     6.0000     0.5905     3.4274     3.4274     0.0000
  1 C      5.4095     6.0000     0.5905     3.4274     3.4274    -0.0000
  2 C      5.3083     6.0000     0.6917     3.5157     3.5157     0.0000
  3 C      5.3083     6.0000     0.6917     3.5157     3.5157     0.0000
  4 C      5.5220     6.0000     0.4780     4.4904     4.4904     0.0000
  5 C      5.5220     6.0000     0.4780     4.4904     4.4904    -0.0000
  6 H      1.3231     1.0000    -0.3231     0.7017     0.7017    -0.0000
  7 H      1.3348     1.0000    -0.3348     0.7139     0.7139    -0.0000
  8 H      1.3231     1.0000    -0.3231     0.7017     0.7017    -0.0000
  9 H      1.3348     1.0000    -0.3348     0.7139     0.7139    -0.0000
 10 H      1.5560     1.0000    -0.5560     0.6083     0.6083    -0.0000
 11 H      1.5560     1.0000    -0.5560     0.6083     0.6083    -0.0000
 12 H      1.5465     1.0000    -0.5465     0.5491     0.5491    -0.0000
 13 H      1.5465     1.0000    -0.5465     0.5491     0.5491     0.0000

  Mayer bond orders larger than 0.100000
B(  0-C ,  1-C ) :   0.1351 B(  0-C ,  2-C ) :   1.8658 B(  0-C ,  4-C ) :  -0.2264 
B(  0-C ,  5-C ) :   0.2340 B(  0-C ,  6-H ) :   0.7074 B(  0-C ,  7-H ) :   0.8330 
B(  1-C ,  3-C ) :   1.8658 B(  1-C ,  4-C ) :   0.2340 B(  1-C ,  5-C ) :  -0.2264 
B(  1-C ,  8-H ) :   0.7074 B(  1-C ,  9-H ) :   0.8330 B(  2-C ,  3-C ) :   0.1413 
B(  2-C ,  4-C ) :   1.4419 B(  2-C ,  5-C ) :  -0.3231 B(  2-C ,  6-H ) :   0.1653 
B(  2-C , 10-H ) :   0.3094 B(  3-C ,  4-C ) :  -0.3231 B(  3-C ,  5-C ) :   1.4419 
B(  3-C ,  8-H ) :   0.1653 B(  3-C , 11-H ) :   0.3094 B(  4-C ,  5-C ) :   2.2860 
B(  4-C , 10-H ) :   0.4009 B(  4-C , 11-H ) :  -0.1359 B(  4-C , 12-H ) :   0.2376 
B(  4-C , 13-H ) :   0.5124 B(  5-C , 10-H ) :  -0.1359 B(  5-C , 11-H ) :   0.4009 
B(  5-C , 12-H ) :   0.5124 B(  5-C , 13-H ) :   0.2376 B(  6-H ,  7-H ) :  -0.1798 
B(  8-H ,  9-H ) :  -0.1798 

-------
TIMINGS
-------

Total SCF time: 0 days 0 hours 0 min 14 sec 

Total time                  ....      14.684 sec
Sum of individual times     ....      14.218 sec  ( 96.8%)

Fock matrix formation       ....      13.590 sec  ( 92.6%)
Diagonalization             ....       0.124 sec  (  0.8%)
Density matrix formation    ....       0.015 sec  (  0.1%)
Population analysis         ....       0.042 sec  (  0.3%)
Initial guess               ....       0.078 sec  (  0.5%)
Orbital Transformation      ....       0.000 sec  (  0.0%)
Orbital Orthonormalization  ....       0.000 sec  (  0.0%)
DIIS solution               ....       0.196 sec  (  1.3%)
SOSCF solution              ....       0.088 sec  (  0.6%)

Maximum memory used throughout the entire SCF-calculation: 231.8 MB


           ************************************************************
           *        Program running with 16 parallel MPI-processes    *
           *              working on a common directory               *
           ************************************************************

------------------------------------------------------------------------------
                                ORCA  MP2 
------------------------------------------------------------------------------

Freezing NCore=12 chemical core electrons

-------------
RI-MP2 ENERGY
-------------
Dimension of the basis                    ...  210
Memory devoted to MP2                     ...  256 MB   
Data format for buffers                   ... DOUBLE
Compression type for matrix containers    ... UNCOMPRESSED
Overall scaling of the MP2 energy         ...   1.000e+00
Calculating two index integrals           ... done (    0.003 sec)
Cholesky decomposition of V**-1           ... done (    0.040 sec)

-----------------
RI-TRANSFORMATION (AUX index driven)
-----------------

Dimension of the orbital-basis         ... 210
Dimension of the aux-basis             ... 616
Transformation of internal/external MOs...    6-  21 to   22- 209
Number Format for Storage              ... Double (8 Byte)
Integral mode                          ... Direct

First Phase: integral generation and transformation of MO indices
  Aux angular momentum 0               ... done (    0.010 sec)
  Aux angular momentum 1               ... done (    0.014 sec)
  Aux angular momentum 2               ... done (    0.016 sec)
  Aux angular momentum 3               ... done (    0.015 sec)
Closing buffer VIA ( 0.01 GB; CompressionRatio= 1.00)
  Phase 1 completed in     0.177 sec
Second Phase: sorting and transformation of aux index

IA-Transformation
Memory available                       ... 211 MB 
Max. # MO pairs treated in a batch     ... 1    
# of internal orbitals                 ... 16
# batches for internal orbitals        ... 1
Closing buffer IAV ( 0.01 GB; CompressionRatio= 1.00)
(ia|v) transformation done in     0.022 sec

  Phase 2 completed in     0.057 sec
RI-Integral transformation completed in     0.258 sec
Opening buffers                              ... done

Starting loop over batches of integrals:

Operator 0  - window                       ... (  6- 21)x( 22-209)
Operator 0  - Memory available             ...   256 MB
Operator 0  - Memory needed per MO         ...   0.9 MB
Operator 0  - Number of orbitals per batch ... 1
Operator 0  - Number of batches            ... 1

OPERATOR  0   PASS   0:  MOs     6 ...    6 +    7 ...    7 +    8 ...    8 +    9 ...    9
                            +   10 ...   10 +   11 ...   11 +   12 ...   12 +   13 ...   13
                            +   14 ...   14 +   15 ...   15 +   16 ...   16 +   17 ...   17
                            +   18 ...   18 +   19 ...   19 +   20 ...   20 +   21 ...   21
  Reading integrals       ... ok
Time spent in pair loops =     0.003 sec
Deleting buffer (Ka|jb)[aa] ...done

-----------------------------------------------
 RI-MP2 CORRELATION ENERGY:     -0.823803451 Eh
-----------------------------------------------


-------
TIMINGS
-------

Total time                :    0.355 sec
Integral trafo            :    0.266 sec ( 74.7%)
I/O of integrals          :    0.000 sec (  0.1%)
K(i,j) Operators          :    0.002 sec (  0.5%)
T(i,j) pair energies      :    0.000 sec (  0.1%)
V-calculation             :    0.003 sec (  0.8%)
V**(-1/2)                 :    0.040 sec ( 11.1%)
Gamma(ia|P)               :    0.000 sec (  0.0%)
Gamma-Trafo               :    0.000 sec (  0.0%)
D(virtual)                :    0.000 sec (  0.0%)
D(internal)               :    0.000 sec (  0.0%)
W(virtual)                :    0.000 sec (  0.0%)
W(internal)               :    0.000 sec (  0.0%)
L(virtual)                :    0.000 sec (  0.0%)
L(internal)               :    0.000 sec (  0.0%)
G(D)                      :    0.000 sec (  0.0%)
G(Z)                      :    0.000 sec (  0.0%)
Z-Vector Solution         :    0.000 sec (  0.0%)
3-Index Derivative        :    0.000 sec (  0.0%)
2-Index Derivative        :    0.000 sec (  0.0%)
Separable Gradient        :    0.000 sec (  0.0%)


---------------------------------------
MP2 TOTAL ENERGY:     -232.661595336 Eh
---------------------------------------

Maximum memory used throughout the entire MP2-calculation: 89.1 MB

-------------------------   --------------------
FINAL SINGLE POINT ENERGY      -232.661595335926
-------------------------   --------------------


                            ***************************************
                            *     ORCA property calculations      *
                            ***************************************


  WARNING: The energy has been calculated at the MP2 level but the densities
           used in the property calculations are still SCF densities
           MP2 response densities have not been calculated 
           use %mp2 Density relaxed end
           or  %mp2 Density unrelaxed end

                                    ---------------------
                                    Active property flags
                                    ---------------------
   (+) Dipole Moment


------------------------------------------------------------------------------
                       ORCA ELECTRIC PROPERTIES CALCULATION
------------------------------------------------------------------------------

Dipole Moment Calculation                       ... on
Quadrupole Moment Calculation                   ... off
Polarizability Calculation                      ... off
GBWName                                         ... DZ_E-1,3,5-hexatriene.gbw
Electron density                                ... DZ_E-1,3,5-hexatriene.scfp
The origin for moment calculation is the CENTER OF MASS  = ( 0.000000,  0.000000  0.000000)

-------------
DIPOLE MOMENT
-------------
                                X             Y             Z
Electronic contribution:     -0.00000      -0.00000       0.00000
Nuclear contribution   :      0.00000       0.00000       0.00000
                        -----------------------------------------
Total Dipole Moment    :     -0.00000      -0.00000       0.00000
                        -----------------------------------------
Magnitude (a.u.)       :      0.00000
Magnitude (Debye)      :      0.00000



--------------------
Rotational spectrum 
--------------------
 
Rotational constants in cm-1:     0.896251     0.044716     0.042591 
Rotational constants in MHz : 26868.927144  1340.541294  1276.837472 

 Dipole components along the rotational axes: 
x,y,z [a.u.] :     0.000000     0.000000     0.000000 
x,y,z [Debye]:     0.000000     0.000000     0.000000 

 

Timings for individual modules:

Sum of individual times         ...       24.202 sec (=   0.403 min)
GTO integral calculation        ...        3.723 sec (=   0.062 min)  15.4 %
SCF iterations                  ...       17.738 sec (=   0.296 min)  73.3 %
MP2 module                      ...        2.741 sec (=   0.046 min)  11.3 %
                             ****ORCA TERMINATED NORMALLY****
TOTAL RUN TIME: 0 days 0 hours 0 minutes 27 seconds 203 msec
