
                                 *****************
                                 * O   R   C   A *
                                 *****************

                                            #,                                       
                                            ###                                      
                                            ####                                     
                                            #####                                    
                                            ######                                   
                                           ########,                                 
                                     ,,################,,,,,                         
                               ,,#################################,,                 
                          ,,##########################################,,             
                       ,#########################################, ''#####,          
                    ,#############################################,,   '####,        
                  ,##################################################,,,,####,       
                ,###########''''           ''''###############################       
              ,#####''   ,,,,##########,,,,          '''####'''          '####       
            ,##' ,,,,###########################,,,                        '##       
           ' ,,###''''                  '''############,,,                           
         ,,##''                                '''############,,,,        ,,,,,,###''
      ,#''                                            '''#######################'''  
     '                                                          ''''####''''         
             ,#######,   #######,   ,#######,      ##                                
            ,#'     '#,  ##    ##  ,#'     '#,    #''#        ######   ,####,        
            ##       ##  ##   ,#'  ##            #'  '#       #        #'  '#        
            ##       ##  #######   ##           ,######,      #####,   #    #        
            '#,     ,#'  ##    ##  '#,     ,#' ,#      #,         ##   #,  ,#        
             '#######'   ##     ##  '#######'  #'      '#     #####' # '####'        



                  #######################################################
                  #                        -***-                        #
                  #          Department of theory and spectroscopy      #
                  #    Directorship and core code : Frank Neese         #
                  #        Max Planck Institute fuer Kohlenforschung    #
                  #                Kaiser Wilhelm Platz 1               #
                  #                 D-45470 Muelheim/Ruhr               #
                  #                      Germany                        #
                  #                                                     #
                  #                  All rights reserved                #
                  #                        -***-                        #
                  #######################################################


                         Program Version 5.0.3 -  RELEASE  -


 With contributions from (in alphabetic order):
   Daniel Aravena         : Magnetic Suceptibility
   Michael Atanasov       : Ab Initio Ligand Field Theory (pilot matlab implementation)
   Alexander A. Auer      : GIAO ZORA, VPT2 properties, NMR spectrum
   Ute Becker             : Parallelization
   Giovanni Bistoni       : ED, misc. LED, open-shell LED, HFLD
   Martin Brehm           : Molecular dynamics
   Dmytro Bykov           : SCF Hessian
   Vijay G. Chilkuri      : MRCI spin determinant printing, contributions to CSF-ICE
   Dipayan Datta          : RHF DLPNO-CCSD density
   Achintya Kumar Dutta   : EOM-CC, STEOM-CC
   Dmitry Ganyushin       : Spin-Orbit,Spin-Spin,Magnetic field MRCI
   Miquel Garcia          : C-PCM and meta-GGA Hessian, CC/C-PCM, Gaussian charge scheme
   Yang Guo               : DLPNO-NEVPT2, F12-NEVPT2, CIM, IAO-localization
   Andreas Hansen         : Spin unrestricted coupled pair/coupled cluster methods
   Benjamin Helmich-Paris : MC-RPA, TRAH-SCF, COSX integrals
   Lee Huntington         : MR-EOM, pCC
   Robert Izsak           : Overlap fitted RIJCOSX, COSX-SCS-MP3, EOM
   Marcus Kettner         : VPT2
   Christian Kollmar      : KDIIS, OOCD, Brueckner-CCSD(T), CCSD density, CASPT2, CASPT2-K
   Simone Kossmann        : Meta GGA functionals, TD-DFT gradient, OOMP2, MP2 Hessian
   Martin Krupicka        : Initial AUTO-CI
   Lucas Lang             : DCDCAS
   Marvin Lechner         : AUTO-CI (C++ implementation), FIC-MRCC
   Dagmar Lenk            : GEPOL surface, SMD
   Dimitrios Liakos       : Extrapolation schemes; Compound Job, initial MDCI parallelization
   Dimitrios Manganas     : Further ROCIS development; embedding schemes
   Dimitrios Pantazis     : SARC Basis sets
   Anastasios Papadopoulos: AUTO-CI, single reference methods and gradients
   Taras Petrenko         : DFT Hessian,TD-DFT gradient, ASA, ECA, R-Raman, ABS, FL, XAS/XES, NRVS
   Peter Pinski           : DLPNO-MP2, DLPNO-MP2 Gradient
   Christoph Reimann      : Effective Core Potentials
   Marius Retegan         : Local ZFS, SOC
   Christoph Riplinger    : Optimizer, TS searches, QM/MM, DLPNO-CCSD(T), (RO)-DLPNO pert. Triples
   Tobias Risthaus        : Range-separated hybrids, TD-DFT gradient, RPA, STAB
   Michael Roemelt        : Original ROCIS implementation
   Masaaki Saitow         : Open-shell DLPNO-CCSD energy and density
   Barbara Sandhoefer     : DKH picture change effects
   Avijit Sen             : IP-ROCIS
   Kantharuban Sivalingam : CASSCF convergence, NEVPT2, FIC-MRCI
   Bernardo de Souza      : ESD, SOC TD-DFT
   Georgi Stoychev        : AutoAux, RI-MP2 NMR, DLPNO-MP2 response
   Willem Van den Heuvel  : Paramagnetic NMR
   Boris Wezisla          : Elementary symmetry handling
   Frank Wennmohs         : Technical directorship


 We gratefully acknowledge several colleagues who have allowed us to
 interface, adapt or use parts of their codes:
   Stefan Grimme, W. Hujo, H. Kruse, P. Pracht,  : VdW corrections, initial TS optimization,
                  C. Bannwarth, S. Ehlert          DFT functionals, gCP, sTDA/sTD-DF
   Ed Valeev, F. Pavosevic, A. Kumar             : LibInt (2-el integral package), F12 methods
   Garnet Chan, S. Sharma, J. Yang, R. Olivares  : DMRG
   Ulf Ekstrom                                   : XCFun DFT Library
   Mihaly Kallay                                 : mrcc  (arbitrary order and MRCC methods)
   Jiri Pittner, Ondrej Demel                    : Mk-CCSD
   Frank Weinhold                                : gennbo (NPA and NBO analysis)
   Christopher J. Cramer and Donald G. Truhlar   : smd solvation model
   Lars Goerigk                                  : TD-DFT with DH, B97 family of functionals
   V. Asgeirsson, H. Jonsson                     : NEB implementation
   FAccTs GmbH                                   : IRC, NEB, NEB-TS, DLPNO-Multilevel, CI-OPT
                                                   MM, QMMM, 2- and 3-layer-ONIOM, Crystal-QMMM,
                                                   LR-CPCM, SF, NACMEs, symmetry and pop. for TD-DFT,
                                                   nearIR, NL-DFT gradient (VV10), updates on ESD,
                                                   ML-optimized integration grids
   S Lehtola, MJT Oliveira, MAL Marques          : LibXC Library
   Liviu Ungur et al                             : ANISO software


 Your calculation uses the libint2 library for the computation of 2-el integrals
 For citations please refer to: http://libint.valeyev.net

 Your ORCA version has been built with support for libXC version: 5.1.0
 For citations please refer to: https://tddft.org/programs/libxc/

 This ORCA versions uses:
   CBLAS   interface :  Fast vector & matrix operations
   LAPACKE interface :  Fast linear algebra routines
   SCALAPACK package :  Parallel linear algebra routines
   Shared memory     :  Shared parallel matrices
   BLAS/LAPACK       :  OpenBLAS 0.3.15  USE64BITINT DYNAMIC_ARCH NO_AFFINITY SkylakeX SINGLE_THREADED
        Core in use  :  SkylakeX
   Copyright (c) 2011-2014, The OpenBLAS Project


================================================================================

----- Orbital basis set information -----
Your calculation utilizes the basis: aug-cc-pVDZ 
    H, B-Ne : Obtained from the ccRepo (grant-hill.group.shef.ac.uk/ccrepo) Feb. 2017
              R. A. Kendall, T. H. Dunning, Jr., R. J. Harrison, J. Chem. Phys. 96, 6796 (1992)
         He : Obtained from the ccRepo (grant-hill.group.shef.ac.uk/ccrepo) Feb. 2017
              D. E. Woon, T. H. Dunning, Jr., J. Chem. Phys. 100, 2975 (1994)
  Li-Be, Na : Obtained from the ccRepo (grant-hill.group.shef.ac.uk/ccrepo) Feb. 2017
              B. P. Prascher, D. E. Woon, K. A. Peterson, T. H. Dunning, Jr., A. K. Wilson, Theor. Chem. Acc. 128, 69 (2011)
         Mg : Obtained from the Peterson Research Group Website (tyr0.chem.wsu.edu/~kipeters) Feb. 2017
              B. P. Prascher, D. E. Woon, K. A. Peterson, T. H. Dunning, Jr., A. K. Wilson, Theor. Chem. Acc. 128, 69 (2011)
      Al-Ar : Obtained from the ccRepo (grant-hill.group.shef.ac.uk/ccrepo) Feb. 2017
              D. E. Woon, T. H. Dunning, Jr., J. Chem. Phys. 98, 1358 (1993)
      Sc-Zn : Obtained from the ccRepo (grant-hill.group.shef.ac.uk/ccrepo) Feb. 2017
              N. B. Balabanov, K. A. Peterson, J. Chem. Phys. 123, 064107 (2005)
              N. B. Balabanov, K. A. Peterson, J. Chem. Phys. 125, 074110 (2006)
      Ga-Kr : Obtained from the ccRepo (grant-hill.group.shef.ac.uk/ccrepo) Feb. 2017
              A. K. Wilson, D. E. Woon, K. A. Peterson, T. H. Dunning, Jr., J. Chem. Phys. 110, 7667 (1999)

----- AuxC basis set information -----
Your calculation utilizes the auxiliary basis: aug-cc-pVDZ/C 
  H-He, B, Ne, Al-Ar, Ga-Ge, Se-Br : Obtained from the EMSL Basis Set Exchange (bse.pnl.gov) Feb. 2017
                                     F. Weigend, A. Kohn, C. Hattig, J. Chem. Phys. 116, 3175 (2002)
                            Be, Mg : Obtained from the TURBOMOLE 7.0 basis set library
                                     C. Haettig, Phys. Chem. Chem. Phys. 7, 59 (2005)
                               C-F : Obtained from the EMSL Basis Set Exchange (bse.pnl.gov) Feb. 2017
                                     C. Haettig, Phys. Chem. Chem. Phys. 7, 59 (2005)
                                     F. Weigend, A. Kohn, C. Hattig, J. Chem. Phys. 116, 3175 (2002)
                                As : Obtained from the EMSL Basis Set Exchange (bse.pnl.gov) Feb. 2017
                                     C. Haettig, G. Schmitz, J. Kossmann, Phys. Chem. Chem. Phys. 14, 6549 (2012)
                                Kr : Obtained from the TURBOMOLE 7.0 basis set library
                                     F. Weigend, A. Kohn, C. Hattig, J. Chem. Phys. 116, 3175 (2002)
                                     S function revised in Sep. 2009

================================================================================
                                        WARNINGS
                       Please study these warnings very carefully!
================================================================================


WARNING: No MP2 level density has been requested!
         To caclulate MP2 level properties use
         %mp2 Density relaxed end
         or
         %mp2 Density unrelaxed end

WARNING: Post HF methods need fully converged wavefunctions
  ===> : Setting SCFConvForced true
         You can overwrite this default with %scf ConvForced false 


INFO   : the flag for use of the SHARK integral package has been found!

================================================================================
                                       INPUT FILE
================================================================================
NAME = DZ_fulvene.inp
|  1> !ri-mp2 aug-cc-pvdz aug-cc-pvdz/c tightscf
|  2> %pal nprocs 16 end
|  3> 
|  4> * xyz 0 1
|  5> C      0.000000    0.735787   -1.400081
|  6> C      0.000000   -0.735787   -1.400081
|  7> C      0.000000    1.175419   -0.125488
|  8> C      0.000000   -1.175419   -0.125488
|  9> C      0.000000    0.000000    0.758403
| 10> C      0.000000    0.000000    2.096421
| 11> H      0.000000    1.347657   -2.289398
| 12> H      0.000000   -1.347657   -2.289398
| 13> H      0.000000    2.197794    0.217520
| 14> H      0.000000   -2.197794    0.217520
| 15> H      0.000000   -0.923202    2.660823
| 16> H      0.000000    0.923202    2.660823
| 17> *
| 18> 
| 19>                          ****END OF INPUT****
================================================================================

                       ****************************
                       * Single Point Calculation *
                       ****************************

---------------------------------
CARTESIAN COORDINATES (ANGSTROEM)
---------------------------------
  C      0.000000    0.735787   -1.400081
  C      0.000000   -0.735787   -1.400081
  C      0.000000    1.175419   -0.125488
  C      0.000000   -1.175419   -0.125488
  C      0.000000    0.000000    0.758403
  C      0.000000    0.000000    2.096421
  H      0.000000    1.347657   -2.289398
  H      0.000000   -1.347657   -2.289398
  H      0.000000    2.197794    0.217520
  H      0.000000   -2.197794    0.217520
  H      0.000000   -0.923202    2.660823
  H      0.000000    0.923202    2.660823

----------------------------
CARTESIAN COORDINATES (A.U.)
----------------------------
  NO LB      ZA    FRAG     MASS         X           Y           Z
   0 C     6.0000    0    12.011    0.000000    1.390436   -2.645770
   1 C     6.0000    0    12.011    0.000000   -1.390436   -2.645770
   2 C     6.0000    0    12.011    0.000000    2.221220   -0.237138
   3 C     6.0000    0    12.011    0.000000   -2.221220   -0.237138
   4 C     6.0000    0    12.011    0.000000    0.000000    1.433174
   5 C     6.0000    0    12.011    0.000000    0.000000    3.961662
   6 H     1.0000    0     1.008    0.000000    2.546703   -4.326335
   7 H     1.0000    0     1.008    0.000000   -2.546703   -4.326335
   8 H     1.0000    0     1.008    0.000000    4.153229    0.411053
   9 H     1.0000    0     1.008    0.000000   -4.153229    0.411053
  10 H     1.0000    0     1.008    0.000000   -1.744599    5.028227
  11 H     1.0000    0     1.008    0.000000    1.744599    5.028227

--------------------------------
INTERNAL COORDINATES (ANGSTROEM)
--------------------------------
 C      0   0   0     0.000000000000     0.00000000     0.00000000
 C      1   0   0     1.471574000000     0.00000000     0.00000000
 C      1   2   0     1.348281725409   109.03031332     0.00000000
 C      2   1   3     1.348281725409   109.03031332     0.00000000
 C      3   1   2     1.470670977970   107.91210251     0.00000000
 C      5   3   1     1.338018000000   126.94241583   180.00000000
 H      1   2   3     1.079476550643   124.52884201   180.00000085
 H      2   1   3     1.079476550643   124.52884201   180.00000085
 H      3   1   2     1.078380790208   127.57697602   180.00000000
 H      4   2   1     1.078380790208   127.57697602   180.00000000
 H      6   5   3     1.082058940358   121.43964117   180.00000000
 H      6   5   3     1.082058940358   121.43964117     0.00000000

---------------------------
INTERNAL COORDINATES (A.U.)
---------------------------
 C      0   0   0     0.000000000000     0.00000000     0.00000000
 C      1   0   0     2.780871845799     0.00000000     0.00000000
 C      1   2   0     2.547883212395   109.03031332     0.00000000
 C      2   1   3     2.547883212395   109.03031332     0.00000000
 C      3   1   2     2.779165381469   107.91210251     0.00000000
 C      5   3   1     2.528487582257   126.94241583   180.00000000
 H      1   2   3     2.039915048706   124.52884201   180.00000085
 H      2   1   3     2.039915048706   124.52884201   180.00000085
 H      3   1   2     2.037844361574   127.57697602   180.00000000
 H      4   2   1     2.037844361574   127.57697602   180.00000000
 H      6   5   3     2.044795058037   121.43964117   180.00000000
 H      6   5   3     2.044795058037   121.43964117     0.00000000

---------------------
BASIS SET INFORMATION
---------------------
There are 2 groups of distinct atoms

 Group   1 Type C   : 18s5p2d contracted to 4s3p2d pattern {8811/311/11}
 Group   2 Type H   : 5s2p contracted to 3s2p pattern {311/11}

Atom   0C    basis set group =>   1
Atom   1C    basis set group =>   1
Atom   2C    basis set group =>   1
Atom   3C    basis set group =>   1
Atom   4C    basis set group =>   1
Atom   5C    basis set group =>   1
Atom   6H    basis set group =>   2
Atom   7H    basis set group =>   2
Atom   8H    basis set group =>   2
Atom   9H    basis set group =>   2
Atom  10H    basis set group =>   2
Atom  11H    basis set group =>   2
---------------------------------
AUXILIARY/C BASIS SET INFORMATION
---------------------------------
There are 2 groups of distinct atoms

 Group   1 Type C   : 8s6p5d3f contracted to 8s6p5d3f pattern {11111111/111111/11111/111}
 Group   2 Type H   : 4s3p2d contracted to 4s3p2d pattern {1111/111/11}

Atom   0C    basis set group =>   1
Atom   1C    basis set group =>   1
Atom   2C    basis set group =>   1
Atom   3C    basis set group =>   1
Atom   4C    basis set group =>   1
Atom   5C    basis set group =>   1
Atom   6H    basis set group =>   2
Atom   7H    basis set group =>   2
Atom   8H    basis set group =>   2
Atom   9H    basis set group =>   2
Atom  10H    basis set group =>   2
Atom  11H    basis set group =>   2


           ************************************************************
           *        Program running with 16 parallel MPI-processes    *
           *              working on a common directory               *
           ************************************************************
------------------------------------------------------------------------------
                           ORCA GTO INTEGRAL CALCULATION
------------------------------------------------------------------------------
------------------------------------------------------------------------------
                   ___                                                        
                  /   \      - P O W E R E D   B Y -                         
                 /     \                                                     
                 |  |  |   _    _      __       _____    __    __             
                 |  |  |  | |  | |    /  \     |  _  \  |  |  /  |          
                  \  \/   | |  | |   /    \    | | | |  |  | /  /          
                 / \  \   | |__| |  /  /\  \   | |_| |  |  |/  /          
                |  |  |   |  __  | /  /__\  \  |    /   |      \           
                |  |  |   | |  | | |   __   |  |    \   |  |\   \          
                \     /   | |  | | |  |  |  |  | |\  \  |  | \   \       
                 \___/    |_|  |_| |__|  |__|  |_| \__\ |__|  \__/        
                                                                              
                      - O R C A' S   B I G   F R I E N D -                    
                                      &                                       
                       - I N T E G R A L  F E E D E R -                       
                                                                              
 v1 FN, 2020, v2 2021                                                         
------------------------------------------------------------------------------


Reading SHARK input file DZ_fulvene.SHARKINP.tmp ... ok
----------------------
SHARK INTEGRAL PACKAGE
----------------------

Number of atoms                             ...     12
Number of basis functions                   ...    228
Number of shells                            ...    120
Maximum angular momentum                    ...      2
Integral batch strategy                     ... SHARK/LIBINT Hybrid
RI-J (if used) integral strategy            ... SPLIT-RIJ (Revised 2003 algorithm where possible)
Printlevel                                  ...      1
Contraction scheme used                     ... PARTIAL GENERAL contraction
Coulomb Range Separation                    ... NOT USED
Exchange Range Separation                   ... NOT USED
Finite Nucleus Model                        ... NOT USED
Auxiliary Coulomb fitting basis             ... NOT available
Auxiliary J/K fitting basis                 ... NOT available
Auxiliary Correlation fitting basis         ... AVAILABLE
   # of basis functions in Aux-C            ...    570
   # of shells in Aux-C                     ...    186
   Maximum angular momentum in Aux-C        ...      3
Auxiliary 'external' fitting basis          ... NOT available
Integral threshold                          ...     2.500000e-11
Primitive cut-off                           ...     2.500000e-12
Primitive pair pre-selection threshold      ...     2.500000e-12

Calculating pre-screening integrals         ... done (  0.0 sec) Dimension = 120
Calculating pre-screening integrals (ORCA)  ... done (  0.1 sec) Dimension = 84
Organizing shell pair data                  ... done (  0.0 sec)
Shell pair information
Total number of shell pairs                 ...      7260
Shell pairs after pre-screening             ...      6462
Total number of primitive shell pairs       ...     10476
Primitive shell pairs kept                  ...      8673
          la=0 lb=0:   2385 shell pairs
          la=1 lb=0:   2242 shell pairs
          la=1 lb=1:    461 shell pairs
          la=2 lb=0:    936 shell pairs
          la=2 lb=1:    360 shell pairs
          la=2 lb=2:     78 shell pairs

Calculating one electron integrals          ... done (  0.0 sec)
Calculating RI/C V-Matrix + Cholesky decomp.... done (  0.0 sec)
Calculating Nuclear repulsion               ... done (  0.0 sec) ENN=    201.225556175047 Eh

SHARK setup successfully completed in   0.3 seconds

Maximum memory used throughout the entire GTOINT-calculation: 16.6 MB


           ************************************************************
           *        Program running with 16 parallel MPI-processes    *
           *              working on a common directory               *
           ************************************************************
-------------------------------------------------------------------------------
                                 ORCA SCF
-------------------------------------------------------------------------------

------------
SCF SETTINGS
------------
Hamiltonian:
 Ab initio Hamiltonian  Method          .... Hartree-Fock(GTOs)


General Settings:
 Integral files         IntName         .... DZ_fulvene
 Hartree-Fock type      HFTyp           .... RHF
 Total Charge           Charge          ....    0
 Multiplicity           Mult            ....    1
 Number of Electrons    NEL             ....   42
 Basis Dimension        Dim             ....  192
 Nuclear Repulsion      ENuc            ....    201.2255561750 Eh

Convergence Acceleration:
 DIIS                   CNVDIIS         .... on
   Start iteration      DIISMaxIt       ....    12
   Startup error        DIISStart       ....  0.200000
   # of expansion vecs  DIISMaxEq       ....     5
   Bias factor          DIISBfac        ....   1.050
   Max. coefficient     DIISMaxC        ....  10.000
 Trust-Rad. Augm. Hess. CNVTRAH         .... auto
   Auto Start mean grad. ratio tolernc. ....  1.125000
   Auto Start start iteration           ....    20
   Auto Start num. interpolation iter.  ....    10
   Max. Number of Micro iterations      ....    16
   Max. Number of Macro iterations      .... Maxiter - #DIIS iter
   Number of Davidson start vectors     ....     2
   Converg. threshold I  (grad. norm)   ....   1.000e-05
   Converg. threshold II (energy diff.) ....   1.000e-08
   Grad. Scal. Fac. for Micro threshold ....   0.100
   Minimum threshold for Micro iter.    ....   0.010
   NR start threshold (gradient norm)   ....   0.001
   Initial trust radius                 ....   0.400
   Minimum AH scaling param. (alpha)    ....   1.000
   Maximum AH scaling param. (alpha)    .... 1000.000
   Orbital update algorithm             .... Taylor
   White noise on init. David. guess    .... on
   Maximum white noise                  ....   0.010
   Quad. conv. algorithm                .... NR
 SOSCF                  CNVSOSCF        .... on
   Start iteration      SOSCFMaxIt      ....   150
   Startup grad/error   SOSCFStart      ....  0.003300
 Level Shifting         CNVShift        .... on
   Level shift para.    LevelShift      ....    0.2500
   Turn off err/grad.   ShiftErr        ....    0.0010
 Zerner damping         CNVZerner       .... off
 Static damping         CNVDamp         .... on
   Fraction old density DampFac         ....    0.7000
   Max. Damping (<1)    DampMax         ....    0.9800
   Min. Damping (>=0)   DampMin         ....    0.0000
   Turn off err/grad.   DampErr         ....    0.1000
 Fernandez-Rico         CNVRico         .... off

SCF Procedure:
 Maximum # iterations   MaxIter         ....   125
 SCF integral mode      SCFMode         .... Direct
   Integral package                     .... SHARK and LIBINT hybrid scheme
 Reset frequency        DirectResetFreq ....    20
 Integral Threshold     Thresh          ....  2.500e-11 Eh
 Primitive CutOff       TCut            ....  2.500e-12 Eh

Convergence Tolerance:
 Convergence Check Mode ConvCheckMode   .... Total+1el-Energy
 Convergence forced     ConvForced      .... 1
 Energy Change          TolE            ....  1.000e-08 Eh
 1-El. energy change                    ....  1.000e-05 Eh
 Orbital Gradient       TolG            ....  1.000e-05
 Orbital Rotation angle TolX            ....  1.000e-05
 DIIS Error             TolErr          ....  5.000e-07


Diagonalization of the overlap matrix:
Smallest eigenvalue                        ... 4.695e-06
Time for diagonalization                   ...    0.005 sec
Threshold for overlap eigenvalues          ... 1.000e-08
Number of eigenvalues below threshold      ... 0
Time for construction of square roots      ...    0.006 sec
Total time needed                          ...    0.011 sec

Time for model grid setup =    0.046 sec

------------------------------
INITIAL GUESS: MODEL POTENTIAL
------------------------------
Loading Hartree-Fock densities                     ... done
Calculating cut-offs                               ... done
Initializing the effective Hamiltonian             ... done
Setting up the integral package (SHARK)            ... done
Starting the Coulomb interaction                   ... done (   0.0 sec)
Reading the grid                                   ... done
Mapping shells                                     ... done
Starting the XC term evaluation                    ... done (   0.0 sec)
Transforming the Hamiltonian                       ... done (   0.0 sec)
Diagonalizing the Hamiltonian                      ... done (   0.0 sec)
Back transforming the eigenvectors                 ... done (   0.0 sec)
Now organizing SCF variables                       ... done
                      ------------------
                      INITIAL GUESS DONE (   0.1 sec)
                      ------------------
--------------
SCF ITERATIONS
--------------
ITER       Energy         Delta-E        Max-DP      RMS-DP      [F,P]     Damp
               ***  Starting incremental Fock matrix formation  ***
  0   -230.4306011116   0.000000000000 0.39940945  0.01582272  0.1579976 0.7000
  1   -230.5130290137  -0.082427902140 0.31636076  0.01186511  0.1047982 0.7000
                               ***Turning on DIIS***
  2   -230.5644049489  -0.051375935223 0.73798490  0.02736468  0.0693864 0.0000
  3   -230.1156055738   0.448799375158 0.04040815  0.00134479  0.0251531 0.0000
  4   -230.6286570687  -0.513051494957 0.03673520  0.00078235  0.0059906 0.0000
  5   -230.6587910540  -0.030133985237 0.01276711  0.00028621  0.0033889 0.0000
                      *** Initiating the SOSCF procedure ***
                           *** Shutting down DIIS ***
                      *** Re-Reading the Fockian *** 
                      *** Removing any level shift *** 
ITER      Energy       Delta-E        Grad      Rot      Max-DP    RMS-DP
  6   -230.67024495  -0.0114539000  0.001573  0.001573  0.003191  0.000109
               *** Restarting incremental Fock matrix formation ***
  7   -230.67227817  -0.0020332117  0.000748  0.001865  0.001179  0.000052
  8   -230.67228803  -0.0000098638  0.000367  0.002045  0.001981  0.000074
  9   -230.67229206  -0.0000040269  0.000054  0.000175  0.000265  0.000012
 10   -230.67229215  -0.0000000891  0.000046  0.000060  0.000121  0.000004
 11   -230.67229218  -0.0000000353  0.000013  0.000028  0.000095  0.000002
 12   -230.67229218  -0.0000000029  0.000003  0.000011  0.000019  0.000001
                  ***Gradient check signals convergence***
              ***Rediagonalizing the Fockian in SOSCF/NRSCF***

               *****************************************************
               *                     SUCCESS                       *
               *           SCF CONVERGED AFTER  13 CYCLES          *
               *****************************************************


----------------
TOTAL SCF ENERGY
----------------

Total Energy       :         -230.67229218 Eh           -6276.91218 eV

Components:
Nuclear Repulsion  :          201.22555618 Eh            5475.62576 eV
Electronic Energy  :         -431.89784836 Eh          -11752.53794 eV
One Electron Energy:         -708.70851231 Eh          -19284.93905 eV
Two Electron Energy:          276.81066395 Eh            7532.40111 eV

Virial components:
Potential Energy   :         -461.20844082 Eh          -12550.11971 eV
Kinetic Energy     :          230.53614864 Eh            6273.20753 eV
Virial Ratio       :            2.00059055


---------------
SCF CONVERGENCE
---------------

  Last Energy change         ...    1.0471e-10  Tolerance :   1.0000e-08
  Last MAX-Density change    ...    1.2776e-05  Tolerance :   1.0000e-07
  Last RMS-Density change    ...    2.2085e-07  Tolerance :   5.0000e-09
  Last Orbital Gradient      ...    1.6672e-06  Tolerance :   1.0000e-05
  Last Orbital Rotation      ...    2.7779e-06  Tolerance :   1.0000e-05

             **** THE GBW FILE WAS UPDATED (DZ_fulvene.gbw) ****
             **** DENSITY DZ_fulvene.scfp WAS UPDATED ****
             **** ENERGY FILE WAS UPDATED (DZ_fulvene.en.tmp) ****
             **** THE GBW FILE WAS UPDATED (DZ_fulvene.gbw) ****
             **** DENSITY DZ_fulvene.scfp WAS UPDATED ****
----------------
ORBITAL ENERGIES
----------------

  NO   OCC          E(Eh)            E(eV) 
   0   2.0000     -11.255660      -306.2821 
   1   2.0000     -11.248518      -306.0877 
   2   2.0000     -11.238533      -305.8160 
   3   2.0000     -11.237766      -305.7952 
   4   2.0000     -11.231806      -305.6330 
   5   2.0000     -11.231773      -305.6321 
   6   2.0000      -1.167311       -31.7642 
   7   2.0000      -1.030513       -28.0417 
   8   2.0000      -0.972981       -26.4762 
   9   2.0000      -0.862884       -23.4803 
  10   2.0000      -0.745545       -20.2873 
  11   2.0000      -0.728114       -19.8130 
  12   2.0000      -0.689293       -18.7566 
  13   2.0000      -0.608606       -16.5610 
  14   2.0000      -0.566021       -15.4022 
  15   2.0000      -0.557172       -15.1614 
  16   2.0000      -0.521426       -14.1887 
  17   2.0000      -0.503483       -13.7005 
  18   2.0000      -0.490572       -13.3492 
  19   2.0000      -0.345826        -9.4104 
  20   2.0000      -0.309783        -8.4296 
  21   0.0000       0.036544         0.9944 
  22   0.0000       0.040282         1.0961 
  23   0.0000       0.043921         1.1951 
  24   0.0000       0.055439         1.5086 
  25   0.0000       0.057049         1.5524 
  26   0.0000       0.059402         1.6164 
  27   0.0000       0.079867         2.1733 
  28   0.0000       0.100749         2.7415 
  29   0.0000       0.111222         3.0265 
  30   0.0000       0.136380         3.7111 
  31   0.0000       0.139630         3.7995 
  32   0.0000       0.141811         3.8589 
  33   0.0000       0.143035         3.8922 
  34   0.0000       0.150032         4.0826 
  35   0.0000       0.151323         4.1177 
  36   0.0000       0.152880         4.1601 
  37   0.0000       0.158803         4.3212 
  38   0.0000       0.167309         4.5527 
  39   0.0000       0.170582         4.6418 
  40   0.0000       0.176416         4.8005 
  41   0.0000       0.181424         4.9368 
  42   0.0000       0.192169         5.2292 
  43   0.0000       0.205732         5.5983 
  44   0.0000       0.208538         5.6746 
  45   0.0000       0.213415         5.8073 
  46   0.0000       0.228621         6.2211 
  47   0.0000       0.256811         6.9882 
  48   0.0000       0.261444         7.1143 
  49   0.0000       0.277385         7.5480 
  50   0.0000       0.284035         7.7290 
  51   0.0000       0.305345         8.3089 
  52   0.0000       0.307270         8.3613 
  53   0.0000       0.327985         8.9249 
  54   0.0000       0.343214         9.3393 
  55   0.0000       0.343668         9.3517 
  56   0.0000       0.349277         9.5043 
  57   0.0000       0.372482        10.1357 
  58   0.0000       0.378519        10.3000 
  59   0.0000       0.390383        10.6228 
  60   0.0000       0.395503        10.7622 
  61   0.0000       0.399540        10.8720 
  62   0.0000       0.407631        11.0922 
  63   0.0000       0.424608        11.5542 
  64   0.0000       0.439901        11.9703 
  65   0.0000       0.449112        12.2210 
  66   0.0000       0.452595        12.3157 
  67   0.0000       0.467456        12.7201 
  68   0.0000       0.474603        12.9146 
  69   0.0000       0.498558        13.5665 
  70   0.0000       0.513336        13.9686 
  71   0.0000       0.531144        14.4532 
  72   0.0000       0.543192        14.7810 
  73   0.0000       0.553578        15.0636 
  74   0.0000       0.563128        15.3235 
  75   0.0000       0.578200        15.7336 
  76   0.0000       0.595674        16.2091 
  77   0.0000       0.596082        16.2202 
  78   0.0000       0.614864        16.7313 
  79   0.0000       0.624793        17.0015 
  80   0.0000       0.627743        17.0818 
  81   0.0000       0.632781        17.2189 
  82   0.0000       0.641585        17.4584 
  83   0.0000       0.648038        17.6340 
  84   0.0000       0.666183        18.1278 
  85   0.0000       0.666687        18.1415 
  86   0.0000       0.688099        18.7241 
  87   0.0000       0.701453        19.0875 
  88   0.0000       0.702929        19.1277 
  89   0.0000       0.710318        19.3287 
  90   0.0000       0.727708        19.8019 
  91   0.0000       0.727718        19.8022 
  92   0.0000       0.733012        19.9463 
  93   0.0000       0.740315        20.1450 
  94   0.0000       0.760948        20.7065 
  95   0.0000       0.762056        20.7366 
  96   0.0000       0.793483        21.5918 
  97   0.0000       0.828710        22.5503 
  98   0.0000       0.830510        22.5993 
  99   0.0000       0.853031        23.2122 
 100   0.0000       0.864518        23.5247 
 101   0.0000       0.866544        23.5799 
 102   0.0000       0.899118        24.4662 
 103   0.0000       0.908094        24.7105 
 104   0.0000       0.912505        24.8305 
 105   0.0000       0.927902        25.2495 
 106   0.0000       0.933006        25.3884 
 107   0.0000       0.947241        25.7757 
 108   0.0000       0.949279        25.8312 
 109   0.0000       1.005267        27.3547 
 110   0.0000       1.025131        27.8952 
 111   0.0000       1.049275        28.5522 
 112   0.0000       1.060875        28.8679 
 113   0.0000       1.066556        29.0225 
 114   0.0000       1.089956        29.6592 
 115   0.0000       1.113701        30.3053 
 116   0.0000       1.142571        31.0909 
 117   0.0000       1.147756        31.2320 
 118   0.0000       1.221461        33.2376 
 119   0.0000       1.253521        34.1100 
 120   0.0000       1.269672        34.5495 
 121   0.0000       1.291089        35.1323 
 122   0.0000       1.340056        36.4648 
 123   0.0000       1.361083        37.0369 
 124   0.0000       1.378553        37.5123 
 125   0.0000       1.457372        39.6571 
 126   0.0000       1.468980        39.9730 
 127   0.0000       1.507416        41.0189 
 128   0.0000       1.555632        42.3309 
 129   0.0000       1.562935        42.5296 
 130   0.0000       1.578650        42.9573 
 131   0.0000       1.579439        42.9787 
 132   0.0000       1.613837        43.9147 
 133   0.0000       1.615800        43.9682 
 134   0.0000       1.618903        44.0526 
 135   0.0000       1.625340        44.2278 
 136   0.0000       1.628314        44.3087 
 137   0.0000       1.693488        46.0821 
 138   0.0000       1.729604        47.0649 
 139   0.0000       1.733446        47.1695 
 140   0.0000       1.733716        47.1768 
 141   0.0000       1.752825        47.6968 
 142   0.0000       1.754723        47.7484 
 143   0.0000       1.813019        49.3348 
 144   0.0000       1.838192        50.0197 
 145   0.0000       1.867621        50.8205 
 146   0.0000       1.880141        51.1612 
 147   0.0000       1.892488        51.4972 
 148   0.0000       1.923529        52.3419 
 149   0.0000       1.965037        53.4714 
 150   0.0000       1.975679        53.7610 
 151   0.0000       1.997973        54.3676 
 152   0.0000       2.016265        54.8654 
 153   0.0000       2.042039        55.5667 
 154   0.0000       2.042624        55.5826 
 155   0.0000       2.057209        55.9795 
 156   0.0000       2.087617        56.8069 
 157   0.0000       2.099017        57.1171 
 158   0.0000       2.117870        57.6302 
 159   0.0000       2.157803        58.7168 
 160   0.0000       2.162808        58.8530 
 161   0.0000       2.207214        60.0613 
 162   0.0000       2.212608        60.2081 
 163   0.0000       2.280625        62.0590 
 164   0.0000       2.281185        62.0742 
 165   0.0000       2.284244        62.1574 
 166   0.0000       2.301886        62.6375 
 167   0.0000       2.305592        62.7384 
 168   0.0000       2.317388        63.0593 
 169   0.0000       2.403791        65.4105 
 170   0.0000       2.462959        67.0205 
 171   0.0000       2.510781        68.3218 
 172   0.0000       2.543139        69.2023 
 173   0.0000       2.572392        69.9983 
 174   0.0000       2.578778        70.1721 
 175   0.0000       2.585241        70.3480 
 176   0.0000       2.719494        74.0012 
 177   0.0000       2.752665        74.9038 
 178   0.0000       2.801098        76.2218 
 179   0.0000       2.803839        76.2963 
 180   0.0000       2.857168        77.7475 
 181   0.0000       2.920527        79.4716 
 182   0.0000       2.933831        79.8336 
 183   0.0000       3.078885        83.7807 
 184   0.0000       3.102346        84.4191 
 185   0.0000       3.210525        87.3628 
 186   0.0000       3.239182        88.1426 
 187   0.0000       3.452742        93.9539 
 188   0.0000       3.472559        94.4931 
 189   0.0000       3.532859        96.1340 
 190   0.0000       4.035494       109.8114 
 191   0.0000       4.266755       116.1043 

                    ********************************
                    * MULLIKEN POPULATION ANALYSIS *
                    ********************************

-----------------------
MULLIKEN ATOMIC CHARGES
-----------------------
   0 C :    0.307376
   1 C :    0.307376
   2 C :    0.330310
   3 C :    0.330310
   4 C :   -0.077676
   5 C :    1.156653
   6 H :   -0.329474
   7 H :   -0.329474
   8 H :   -0.488715
   9 H :   -0.488715
  10 H :   -0.358984
  11 H :   -0.358984
Sum of atomic charges:   -0.0000000

--------------------------------
MULLIKEN REDUCED ORBITAL CHARGES
--------------------------------
  0 C s       :     2.985973  s :     2.985973
      pz      :     1.101794  p :     2.796750
      px      :     0.961217
      py      :     0.733739
      dz2     :     0.012149  d :    -0.090098
      dxz     :     0.017609
      dyz     :    -0.127291
      dx2y2   :    -0.007395
      dxy     :     0.014829
  1 C s       :     2.985973  s :     2.985973
      pz      :     1.101794  p :     2.796750
      px      :     0.961217
      py      :     0.733739
      dz2     :     0.012149  d :    -0.090098
      dxz     :     0.017609
      dyz     :    -0.127291
      dx2y2   :    -0.007395
      dxy     :     0.014829
  2 C s       :     2.649663  s :     2.649663
      pz      :     1.123018  p :     3.218420
      px      :     1.004984
      py      :     1.090418
      dz2     :    -0.133758  d :    -0.198393
      dxz     :     0.025205
      dyz     :    -0.053512
      dx2y2   :    -0.035230
      dxy     :    -0.001098
  3 C s       :     2.649663  s :     2.649663
      pz      :     1.123018  p :     3.218420
      px      :     1.004984
      py      :     1.090418
      dz2     :    -0.133758  d :    -0.198393
      dxz     :     0.025205
      dyz     :    -0.053512
      dx2y2   :    -0.035230
      dxy     :    -0.001098
  4 C s       :     2.911429  s :     2.911429
      pz      :     0.865626  p :     2.597346
      px      :     0.881338
      py      :     0.850383
      dz2     :    -0.030243  d :     0.568901
      dxz     :     0.045296
      dyz     :     0.560601
      dx2y2   :    -0.022637
      dxy     :     0.015884
  5 C s       :     3.000478  s :     3.000478
      pz      :     0.833609  p :     1.957960
      px      :     0.920013
      py      :     0.204338
      dz2     :    -0.025756  d :    -0.115092
      dxz     :     0.022620
      dyz     :    -0.098845
      dx2y2   :    -0.014567
      dxy     :     0.001456
  6 H s       :     1.316164  s :     1.316164
      pz      :     0.005568  p :     0.013310
      px      :     0.010491
      py      :    -0.002749
  7 H s       :     1.316164  s :     1.316164
      pz      :     0.005568  p :     0.013310
      px      :     0.010491
      py      :    -0.002749
  8 H s       :     1.441571  s :     1.441571
      pz      :    -0.001034  p :     0.047144
      px      :     0.011139
      py      :     0.037040
  9 H s       :     1.441571  s :     1.441571
      pz      :    -0.001034  p :     0.047144
      px      :     0.011139
      py      :     0.037040
 10 H s       :     1.353008  s :     1.353008
      pz      :    -0.003736  p :     0.005976
      px      :     0.012320
      py      :    -0.002608
 11 H s       :     1.353008  s :     1.353008
      pz      :    -0.003736  p :     0.005976
      px      :     0.012320
      py      :    -0.002608


                     *******************************
                     * LOEWDIN POPULATION ANALYSIS *
                     *******************************

----------------------
LOEWDIN ATOMIC CHARGES
----------------------
   0 C :    0.017827
   1 C :    0.017827
   2 C :    0.037634
   3 C :    0.037634
   4 C :   -0.277897
   5 C :    0.256011
   6 H :   -0.010077
   7 H :   -0.010077
   8 H :   -0.005694
   9 H :   -0.005694
  10 H :   -0.028748
  11 H :   -0.028748

-------------------------------
LOEWDIN REDUCED ORBITAL CHARGES
-------------------------------
  0 C s       :     2.620085  s :     2.620085
      pz      :     0.976092  p :     2.647520
      px      :     0.742318
      py      :     0.929109
      dz2     :     0.178013  d :     0.714568
      dxz     :     0.063795
      dyz     :     0.258367
      dx2y2   :     0.099561
      dxy     :     0.114832
  1 C s       :     2.620085  s :     2.620085
      pz      :     0.976092  p :     2.647520
      px      :     0.742318
      py      :     0.929109
      dz2     :     0.178013  d :     0.714568
      dxz     :     0.063795
      dyz     :     0.258367
      dx2y2   :     0.099561
      dxy     :     0.114832
  2 C s       :     2.609731  s :     2.609731
      pz      :     0.965502  p :     2.655996
      px      :     0.764371
      py      :     0.926123
      dz2     :     0.193782  d :     0.696639
      dxz     :     0.124091
      dyz     :     0.227786
      dx2y2   :     0.102018
      dxy     :     0.048963
  3 C s       :     2.609731  s :     2.609731
      pz      :     0.965502  p :     2.655996
      px      :     0.764371
      py      :     0.926123
      dz2     :     0.193782  d :     0.696639
      dxz     :     0.124091
      dyz     :     0.227786
      dx2y2   :     0.102018
      dxy     :     0.048963
  4 C s       :     2.589510  s :     2.589510
      pz      :     0.991523  p :     2.635853
      px      :     0.729155
      py      :     0.915175
      dz2     :     0.278196  d :     1.052534
      dxz     :     0.164979
      dyz     :     0.339856
      dx2y2   :     0.114889
      dxy     :     0.154614
  5 C s       :     2.654897  s :     2.654897
      pz      :     1.008776  p :     2.656186
      px      :     0.709888
      py      :     0.937522
      dz2     :     0.112592  d :     0.432906
      dxz     :     0.062579
      dyz     :     0.221045
      dx2y2   :     0.034916
      dxy     :     0.001775
  6 H s       :     0.753644  s :     0.753644
      pz      :     0.102421  p :     0.256433
      px      :     0.075923
      py      :     0.078088
  7 H s       :     0.753644  s :     0.753644
      pz      :     0.102421  p :     0.256433
      px      :     0.075923
      py      :     0.078088
  8 H s       :     0.747309  s :     0.747309
      pz      :     0.059101  p :     0.258384
      px      :     0.081053
      py      :     0.118231
  9 H s       :     0.747309  s :     0.747309
      pz      :     0.059101  p :     0.258384
      px      :     0.081053
      py      :     0.118231
 10 H s       :     0.751407  s :     0.751407
      pz      :     0.077203  p :     0.277341
      px      :     0.073158
      py      :     0.126979
 11 H s       :     0.751407  s :     0.751407
      pz      :     0.077203  p :     0.277341
      px      :     0.073158
      py      :     0.126979


                      *****************************
                      * MAYER POPULATION ANALYSIS *
                      *****************************

  NA   - Mulliken gross atomic population
  ZA   - Total nuclear charge
  QA   - Mulliken gross atomic charge
  VA   - Mayer's total valence
  BVA  - Mayer's bonded valence
  FA   - Mayer's free valence

  ATOM       NA         ZA         QA         VA         BVA        FA
  0 C      5.6926     6.0000     0.3074     4.0697     4.0697    -0.0000
  1 C      5.6926     6.0000     0.3074     4.0697     4.0697     0.0000
  2 C      5.6697     6.0000     0.3303     3.3806     3.3806     0.0000
  3 C      5.6697     6.0000     0.3303     3.3806     3.3806    -0.0000
  4 C      6.0777     6.0000    -0.0777     6.1748     6.1748    -0.0000
  5 C      4.8433     6.0000     1.1567     2.8047     2.8047    -0.0000
  6 H      1.3295     1.0000    -0.3295     0.7910     0.7910    -0.0000
  7 H      1.3295     1.0000    -0.3295     0.7910     0.7910     0.0000
  8 H      1.4887     1.0000    -0.4887     0.7990     0.7990    -0.0000
  9 H      1.4887     1.0000    -0.4887     0.7990     0.7990    -0.0000
 10 H      1.3590     1.0000    -0.3590     0.7153     0.7153    -0.0000
 11 H      1.3590     1.0000    -0.3590     0.7153     0.7153    -0.0000

  Mayer bond orders larger than 0.100000
B(  0-C ,  1-C ) :   1.3670 B(  0-C ,  2-C ) :   2.0170 B(  0-C ,  3-C ) :  -0.2617 
B(  0-C ,  5-C ) :   0.1988 B(  0-C ,  6-H ) :   0.6864 B(  1-C ,  2-C ) :  -0.2617 
B(  1-C ,  3-C ) :   2.0170 B(  1-C ,  5-C ) :   0.1988 B(  1-C ,  7-H ) :   0.6864 
B(  2-C ,  4-C ) :   1.5036 B(  2-C ,  5-C ) :  -0.2932 B(  2-C ,  6-H ) :   0.1141 
B(  2-C ,  8-H ) :   0.3591 B(  2-C ,  9-H ) :   0.1047 B(  3-C ,  4-C ) :   1.5036 
B(  3-C ,  5-C ) :  -0.2932 B(  3-C ,  7-H ) :   0.1141 B(  3-C ,  8-H ) :   0.1047 
B(  3-C ,  9-H ) :   0.3591 B(  4-C ,  5-C ) :   1.7978 B(  4-C ,  8-H ) :   0.2631 
B(  4-C ,  9-H ) :   0.2631 B(  4-C , 10-H ) :   0.3375 B(  4-C , 11-H ) :   0.3375 
B(  5-C , 10-H ) :   0.5286 B(  5-C , 11-H ) :   0.5286 B( 10-H , 11-H ) :  -0.1602 


-------
TIMINGS
-------

Total SCF time: 0 days 0 hours 0 min 11 sec 

Total time                  ....      11.336 sec
Sum of individual times     ....      10.996 sec  ( 97.0%)

Fock matrix formation       ....      10.647 sec  ( 93.9%)
Diagonalization             ....       0.084 sec  (  0.7%)
Density matrix formation    ....       0.014 sec  (  0.1%)
Population analysis         ....       0.022 sec  (  0.2%)
Initial guess               ....       0.063 sec  (  0.6%)
Orbital Transformation      ....       0.000 sec  (  0.0%)
Orbital Orthonormalization  ....       0.000 sec  (  0.0%)
DIIS solution               ....       0.068 sec  (  0.6%)
SOSCF solution              ....       0.052 sec  (  0.5%)

Maximum memory used throughout the entire SCF-calculation: 230.9 MB


           ************************************************************
           *        Program running with 16 parallel MPI-processes    *
           *              working on a common directory               *
           ************************************************************

------------------------------------------------------------------------------
                                ORCA  MP2 
------------------------------------------------------------------------------

Freezing NCore=12 chemical core electrons

-------------
RI-MP2 ENERGY
-------------
Dimension of the basis                    ...  192
Memory devoted to MP2                     ...  256 MB   
Data format for buffers                   ... DOUBLE
Compression type for matrix containers    ... UNCOMPRESSED
Overall scaling of the MP2 energy         ...   1.000e+00
Calculating two index integrals           ... done (    0.002 sec)
Cholesky decomposition of V**-1           ... done (    0.031 sec)

-----------------
RI-TRANSFORMATION (AUX index driven)
-----------------

Dimension of the orbital-basis         ... 192
Dimension of the aux-basis             ... 570
Transformation of internal/external MOs...    6-  20 to   21- 191
Number Format for Storage              ... Double (8 Byte)
Integral mode                          ... Direct

First Phase: integral generation and transformation of MO indices
  Aux angular momentum 0               ... done (    0.009 sec)
  Aux angular momentum 1               ... done (    0.011 sec)
  Aux angular momentum 2               ... done (    0.012 sec)
  Aux angular momentum 3               ... done (    0.011 sec)
Closing buffer VIA ( 0.01 GB; CompressionRatio= 1.00)
  Phase 1 completed in     0.169 sec
Second Phase: sorting and transformation of aux index

IA-Transformation
Memory available                       ... 212 MB 
Max. # MO pairs treated in a batch     ... 1    
# of internal orbitals                 ... 15
# batches for internal orbitals        ... 1
Closing buffer IAV ( 0.01 GB; CompressionRatio= 1.00)
(ia|v) transformation done in     0.020 sec

  Phase 2 completed in     0.047 sec
RI-Integral transformation completed in     0.221 sec
Opening buffers                              ... done

Starting loop over batches of integrals:

Operator 0  - window                       ... (  6- 20)x( 21-191)
Operator 0  - Memory available             ...   256 MB
Operator 0  - Memory needed per MO         ...   0.7 MB
Operator 0  - Number of orbitals per batch ... 1
Operator 0  - Number of batches            ... 1

OPERATOR  0   PASS   0:  MOs     6 ...    6 +    7 ...    7 +    8 ...    8 +    9 ...    9
                            +   10 ...   10 +   11 ...   11 +   12 ...   12 +   13 ...   13
                            +   14 ...   14 +   15 ...   15 +   16 ...   16 +   17 ...   17
                            +   18 ...   18 +   19 ...   19 +   20 ...   20
  Reading integrals       ... ok
Time spent in pair loops =     0.003 sec
Deleting buffer (Ka|jb)[aa] ...done

-----------------------------------------------
 RI-MP2 CORRELATION ENERGY:     -0.807782203 Eh
-----------------------------------------------


-------
TIMINGS
-------

Total time                :    0.293 sec
Integral trafo            :    0.227 sec ( 77.6%)
I/O of integrals          :    0.000 sec (  0.1%)
K(i,j) Operators          :    0.001 sec (  0.3%)
T(i,j) pair energies      :    0.000 sec (  0.0%)
V-calculation             :    0.002 sec (  0.7%)
V**(-1/2)                 :    0.031 sec ( 10.5%)
Gamma(ia|P)               :    0.000 sec (  0.0%)
Gamma-Trafo               :    0.000 sec (  0.0%)
D(virtual)                :    0.000 sec (  0.0%)
D(internal)               :    0.000 sec (  0.0%)
W(virtual)                :    0.000 sec (  0.0%)
W(internal)               :    0.000 sec (  0.0%)
L(virtual)                :    0.000 sec (  0.0%)
L(internal)               :    0.000 sec (  0.0%)
G(D)                      :    0.000 sec (  0.0%)
G(Z)                      :    0.000 sec (  0.0%)
Z-Vector Solution         :    0.000 sec (  0.0%)
3-Index Derivative        :    0.000 sec (  0.0%)
2-Index Derivative        :    0.000 sec (  0.0%)
Separable Gradient        :    0.000 sec (  0.0%)


---------------------------------------
MP2 TOTAL ENERGY:     -231.480074387 Eh
---------------------------------------

Maximum memory used throughout the entire MP2-calculation: 87.8 MB

-------------------------   --------------------
FINAL SINGLE POINT ENERGY      -231.480074387146
-------------------------   --------------------


                            ***************************************
                            *     ORCA property calculations      *
                            ***************************************


  WARNING: The energy has been calculated at the MP2 level but the densities
           used in the property calculations are still SCF densities
           MP2 response densities have not been calculated 
           use %mp2 Density relaxed end
           or  %mp2 Density unrelaxed end

                                    ---------------------
                                    Active property flags
                                    ---------------------
   (+) Dipole Moment


------------------------------------------------------------------------------
                       ORCA ELECTRIC PROPERTIES CALCULATION
------------------------------------------------------------------------------

Dipole Moment Calculation                       ... on
Quadrupole Moment Calculation                   ... off
Polarizability Calculation                      ... off
GBWName                                         ... DZ_fulvene.gbw
Electron density                                ... DZ_fulvene.scfp
The origin for moment calculation is the CENTER OF MASS  = ( 0.000000,  0.000000 -0.028319)

-------------
DIPOLE MOMENT
-------------
                                X             Y             Z
Electronic contribution:     -0.00000       0.00000      -0.99043
Nuclear contribution   :      0.00000       0.00000       1.18943
                        -----------------------------------------
Total Dipole Moment    :     -0.00000       0.00000       0.19900
                        -----------------------------------------
Magnitude (a.u.)       :      0.19900
Magnitude (Debye)      :      0.50581



--------------------
Rotational spectrum 
--------------------
 
Rotational constants in cm-1:     0.274950     0.127631     0.087168 
Rotational constants in MHz :  8242.795315  3826.283796  2613.229548 

 Dipole components along the rotational axes: 
x,y,z [a.u.] :     0.198999     0.000000    -0.000000 
x,y,z [Debye]:     0.505814     0.000000    -0.000000 

 

Timings for individual modules:

Sum of individual times         ...       41.675 sec (=   0.695 min)
GTO integral calculation        ...       15.645 sec (=   0.261 min)  37.5 %
SCF iterations                  ...       19.100 sec (=   0.318 min)  45.8 %
MP2 module                      ...        6.930 sec (=   0.116 min)  16.6 %
                             ****ORCA TERMINATED NORMALLY****
TOTAL RUN TIME: 0 days 0 hours 0 minutes 50 seconds 621 msec
