
                                 *****************
                                 * O   R   C   A *
                                 *****************

                                            #,                                       
                                            ###                                      
                                            ####                                     
                                            #####                                    
                                            ######                                   
                                           ########,                                 
                                     ,,################,,,,,                         
                               ,,#################################,,                 
                          ,,##########################################,,             
                       ,#########################################, ''#####,          
                    ,#############################################,,   '####,        
                  ,##################################################,,,,####,       
                ,###########''''           ''''###############################       
              ,#####''   ,,,,##########,,,,          '''####'''          '####       
            ,##' ,,,,###########################,,,                        '##       
           ' ,,###''''                  '''############,,,                           
         ,,##''                                '''############,,,,        ,,,,,,###''
      ,#''                                            '''#######################'''  
     '                                                          ''''####''''         
             ,#######,   #######,   ,#######,      ##                                
            ,#'     '#,  ##    ##  ,#'     '#,    #''#        ######   ,####,        
            ##       ##  ##   ,#'  ##            #'  '#       #        #'  '#        
            ##       ##  #######   ##           ,######,      #####,   #    #        
            '#,     ,#'  ##    ##  '#,     ,#' ,#      #,         ##   #,  ,#        
             '#######'   ##     ##  '#######'  #'      '#     #####' # '####'        



                  #######################################################
                  #                        -***-                        #
                  #          Department of theory and spectroscopy      #
                  #    Directorship and core code : Frank Neese         #
                  #        Max Planck Institute fuer Kohlenforschung    #
                  #                Kaiser Wilhelm Platz 1               #
                  #                 D-45470 Muelheim/Ruhr               #
                  #                      Germany                        #
                  #                                                     #
                  #                  All rights reserved                #
                  #                        -***-                        #
                  #######################################################


                         Program Version 5.0.3 -  RELEASE  -


 With contributions from (in alphabetic order):
   Daniel Aravena         : Magnetic Suceptibility
   Michael Atanasov       : Ab Initio Ligand Field Theory (pilot matlab implementation)
   Alexander A. Auer      : GIAO ZORA, VPT2 properties, NMR spectrum
   Ute Becker             : Parallelization
   Giovanni Bistoni       : ED, misc. LED, open-shell LED, HFLD
   Martin Brehm           : Molecular dynamics
   Dmytro Bykov           : SCF Hessian
   Vijay G. Chilkuri      : MRCI spin determinant printing, contributions to CSF-ICE
   Dipayan Datta          : RHF DLPNO-CCSD density
   Achintya Kumar Dutta   : EOM-CC, STEOM-CC
   Dmitry Ganyushin       : Spin-Orbit,Spin-Spin,Magnetic field MRCI
   Miquel Garcia          : C-PCM and meta-GGA Hessian, CC/C-PCM, Gaussian charge scheme
   Yang Guo               : DLPNO-NEVPT2, F12-NEVPT2, CIM, IAO-localization
   Andreas Hansen         : Spin unrestricted coupled pair/coupled cluster methods
   Benjamin Helmich-Paris : MC-RPA, TRAH-SCF, COSX integrals
   Lee Huntington         : MR-EOM, pCC
   Robert Izsak           : Overlap fitted RIJCOSX, COSX-SCS-MP3, EOM
   Marcus Kettner         : VPT2
   Christian Kollmar      : KDIIS, OOCD, Brueckner-CCSD(T), CCSD density, CASPT2, CASPT2-K
   Simone Kossmann        : Meta GGA functionals, TD-DFT gradient, OOMP2, MP2 Hessian
   Martin Krupicka        : Initial AUTO-CI
   Lucas Lang             : DCDCAS
   Marvin Lechner         : AUTO-CI (C++ implementation), FIC-MRCC
   Dagmar Lenk            : GEPOL surface, SMD
   Dimitrios Liakos       : Extrapolation schemes; Compound Job, initial MDCI parallelization
   Dimitrios Manganas     : Further ROCIS development; embedding schemes
   Dimitrios Pantazis     : SARC Basis sets
   Anastasios Papadopoulos: AUTO-CI, single reference methods and gradients
   Taras Petrenko         : DFT Hessian,TD-DFT gradient, ASA, ECA, R-Raman, ABS, FL, XAS/XES, NRVS
   Peter Pinski           : DLPNO-MP2, DLPNO-MP2 Gradient
   Christoph Reimann      : Effective Core Potentials
   Marius Retegan         : Local ZFS, SOC
   Christoph Riplinger    : Optimizer, TS searches, QM/MM, DLPNO-CCSD(T), (RO)-DLPNO pert. Triples
   Tobias Risthaus        : Range-separated hybrids, TD-DFT gradient, RPA, STAB
   Michael Roemelt        : Original ROCIS implementation
   Masaaki Saitow         : Open-shell DLPNO-CCSD energy and density
   Barbara Sandhoefer     : DKH picture change effects
   Avijit Sen             : IP-ROCIS
   Kantharuban Sivalingam : CASSCF convergence, NEVPT2, FIC-MRCI
   Bernardo de Souza      : ESD, SOC TD-DFT
   Georgi Stoychev        : AutoAux, RI-MP2 NMR, DLPNO-MP2 response
   Willem Van den Heuvel  : Paramagnetic NMR
   Boris Wezisla          : Elementary symmetry handling
   Frank Wennmohs         : Technical directorship


 We gratefully acknowledge several colleagues who have allowed us to
 interface, adapt or use parts of their codes:
   Stefan Grimme, W. Hujo, H. Kruse, P. Pracht,  : VdW corrections, initial TS optimization,
                  C. Bannwarth, S. Ehlert          DFT functionals, gCP, sTDA/sTD-DF
   Ed Valeev, F. Pavosevic, A. Kumar             : LibInt (2-el integral package), F12 methods
   Garnet Chan, S. Sharma, J. Yang, R. Olivares  : DMRG
   Ulf Ekstrom                                   : XCFun DFT Library
   Mihaly Kallay                                 : mrcc  (arbitrary order and MRCC methods)
   Jiri Pittner, Ondrej Demel                    : Mk-CCSD
   Frank Weinhold                                : gennbo (NPA and NBO analysis)
   Christopher J. Cramer and Donald G. Truhlar   : smd solvation model
   Lars Goerigk                                  : TD-DFT with DH, B97 family of functionals
   V. Asgeirsson, H. Jonsson                     : NEB implementation
   FAccTs GmbH                                   : IRC, NEB, NEB-TS, DLPNO-Multilevel, CI-OPT
                                                   MM, QMMM, 2- and 3-layer-ONIOM, Crystal-QMMM,
                                                   LR-CPCM, SF, NACMEs, symmetry and pop. for TD-DFT,
                                                   nearIR, NL-DFT gradient (VV10), updates on ESD,
                                                   ML-optimized integration grids
   S Lehtola, MJT Oliveira, MAL Marques          : LibXC Library
   Liviu Ungur et al                             : ANISO software


 Your calculation uses the libint2 library for the computation of 2-el integrals
 For citations please refer to: http://libint.valeyev.net

 Your ORCA version has been built with support for libXC version: 5.1.0
 For citations please refer to: https://tddft.org/programs/libxc/

 This ORCA versions uses:
   CBLAS   interface :  Fast vector & matrix operations
   LAPACKE interface :  Fast linear algebra routines
   SCALAPACK package :  Parallel linear algebra routines
   Shared memory     :  Shared parallel matrices
   BLAS/LAPACK       :  OpenBLAS 0.3.15  USE64BITINT DYNAMIC_ARCH NO_AFFINITY SkylakeX SINGLE_THREADED
        Core in use  :  SkylakeX
   Copyright (c) 2011-2014, The OpenBLAS Project


================================================================================

----- Orbital basis set information -----
Your calculation utilizes the basis: aug-cc-pVDZ 
    H, B-Ne : Obtained from the ccRepo (grant-hill.group.shef.ac.uk/ccrepo) Feb. 2017
              R. A. Kendall, T. H. Dunning, Jr., R. J. Harrison, J. Chem. Phys. 96, 6796 (1992)
         He : Obtained from the ccRepo (grant-hill.group.shef.ac.uk/ccrepo) Feb. 2017
              D. E. Woon, T. H. Dunning, Jr., J. Chem. Phys. 100, 2975 (1994)
  Li-Be, Na : Obtained from the ccRepo (grant-hill.group.shef.ac.uk/ccrepo) Feb. 2017
              B. P. Prascher, D. E. Woon, K. A. Peterson, T. H. Dunning, Jr., A. K. Wilson, Theor. Chem. Acc. 128, 69 (2011)
         Mg : Obtained from the Peterson Research Group Website (tyr0.chem.wsu.edu/~kipeters) Feb. 2017
              B. P. Prascher, D. E. Woon, K. A. Peterson, T. H. Dunning, Jr., A. K. Wilson, Theor. Chem. Acc. 128, 69 (2011)
      Al-Ar : Obtained from the ccRepo (grant-hill.group.shef.ac.uk/ccrepo) Feb. 2017
              D. E. Woon, T. H. Dunning, Jr., J. Chem. Phys. 98, 1358 (1993)
      Sc-Zn : Obtained from the ccRepo (grant-hill.group.shef.ac.uk/ccrepo) Feb. 2017
              N. B. Balabanov, K. A. Peterson, J. Chem. Phys. 123, 064107 (2005)
              N. B. Balabanov, K. A. Peterson, J. Chem. Phys. 125, 074110 (2006)
      Ga-Kr : Obtained from the ccRepo (grant-hill.group.shef.ac.uk/ccrepo) Feb. 2017
              A. K. Wilson, D. E. Woon, K. A. Peterson, T. H. Dunning, Jr., J. Chem. Phys. 110, 7667 (1999)

----- AuxC basis set information -----
Your calculation utilizes the auxiliary basis: aug-cc-pVDZ/C 
  H-He, B, Ne, Al-Ar, Ga-Ge, Se-Br : Obtained from the EMSL Basis Set Exchange (bse.pnl.gov) Feb. 2017
                                     F. Weigend, A. Kohn, C. Hattig, J. Chem. Phys. 116, 3175 (2002)
                            Be, Mg : Obtained from the TURBOMOLE 7.0 basis set library
                                     C. Haettig, Phys. Chem. Chem. Phys. 7, 59 (2005)
                               C-F : Obtained from the EMSL Basis Set Exchange (bse.pnl.gov) Feb. 2017
                                     C. Haettig, Phys. Chem. Chem. Phys. 7, 59 (2005)
                                     F. Weigend, A. Kohn, C. Hattig, J. Chem. Phys. 116, 3175 (2002)
                                As : Obtained from the EMSL Basis Set Exchange (bse.pnl.gov) Feb. 2017
                                     C. Haettig, G. Schmitz, J. Kossmann, Phys. Chem. Chem. Phys. 14, 6549 (2012)
                                Kr : Obtained from the TURBOMOLE 7.0 basis set library
                                     F. Weigend, A. Kohn, C. Hattig, J. Chem. Phys. 116, 3175 (2002)
                                     S function revised in Sep. 2009

================================================================================
                                        WARNINGS
                       Please study these warnings very carefully!
================================================================================


WARNING: No MP2 level density has been requested!
         To caclulate MP2 level properties use
         %mp2 Density relaxed end
         or
         %mp2 Density unrelaxed end

WARNING: Post HF methods need fully converged wavefunctions
  ===> : Setting SCFConvForced true
         You can overwrite this default with %scf ConvForced false 


INFO   : the flag for use of the SHARK integral package has been found!

================================================================================
                                       INPUT FILE
================================================================================
NAME = DZ_hydroquinone.inp
|  1> !ri-mp2 aug-cc-pvdz aug-cc-pvdz/c tightscf
|  2> %pal nprocs 16 end
|  3> 
|  4> * xyz 0 1
|  5> O    -0.055278     2.766941       0.000000
|  6> C     0.001661     1.395041       0.000000
|  7> C     1.201394     0.689669       0.000000
|  8> C     1.201394    -0.699360       0.000000
|  9> C    -0.001661    -1.395041       0.000000
| 10> O     0.055278    -2.766941       0.000000
| 11> C    -1.201394    -0.689669       0.000000
| 12> C    -1.201394     0.699360       0.000000
| 13> H     0.835947     3.128399       0.000000
| 14> H     2.144114     1.223949       0.000000
| 15> H     2.130783    -1.251030       0.000000
| 16> H    -0.835947    -3.128399       0.000000
| 17> H    -2.144114    -1.223949       0.000000
| 18> H    -2.130783     1.251030       0.000000
| 19> *
| 20> 
| 21>                          ****END OF INPUT****
================================================================================

                       ****************************
                       * Single Point Calculation *
                       ****************************

---------------------------------
CARTESIAN COORDINATES (ANGSTROEM)
---------------------------------
  O     -0.055278    2.766941    0.000000
  C      0.001661    1.395041    0.000000
  C      1.201394    0.689669    0.000000
  C      1.201394   -0.699360    0.000000
  C     -0.001661   -1.395041    0.000000
  O      0.055278   -2.766941    0.000000
  C     -1.201394   -0.689669    0.000000
  C     -1.201394    0.699360    0.000000
  H      0.835947    3.128399    0.000000
  H      2.144114    1.223949    0.000000
  H      2.130783   -1.251030    0.000000
  H     -0.835947   -3.128399    0.000000
  H     -2.144114   -1.223949    0.000000
  H     -2.130783    1.251030    0.000000

----------------------------
CARTESIAN COORDINATES (A.U.)
----------------------------
  NO LB      ZA    FRAG     MASS         X           Y           Z
   0 O     8.0000    0    15.999   -0.104460    5.228761    0.000000
   1 C     6.0000    0    12.011    0.003139    2.636245    0.000000
   2 C     6.0000    0    12.011    2.270306    1.303286    0.000000
   3 C     6.0000    0    12.011    2.270306   -1.321599    0.000000
   4 C     6.0000    0    12.011   -0.003139   -2.636245    0.000000
   5 O     8.0000    0    15.999    0.104460   -5.228761    0.000000
   6 C     6.0000    0    12.011   -2.270306   -1.303286    0.000000
   7 C     6.0000    0    12.011   -2.270306    1.321599    0.000000
   8 H     1.0000    0     1.008    1.579711    5.911817    0.000000
   9 H     1.0000    0     1.008    4.051788    2.312928    0.000000
  10 H     1.0000    0     1.008    4.026596   -2.364104    0.000000
  11 H     1.0000    0     1.008   -1.579711   -5.911817    0.000000
  12 H     1.0000    0     1.008   -4.051788   -2.312928    0.000000
  13 H     1.0000    0     1.008   -4.026596    2.364104    0.000000

--------------------------------
INTERNAL COORDINATES (ANGSTROEM)
--------------------------------
 O      0   0   0     0.000000000000     0.00000000     0.00000000
 C      1   0   0     1.373081082719     0.00000000     0.00000000
 C      2   1   0     1.391728755783   122.82963429     0.00000000
 C      3   2   1     1.389029000000   120.45300835   180.00000000
 C      4   3   2     1.389717016801   120.03916362     0.00000000
 O      5   4   3     1.373081082719   117.66253769   180.00000000
 C      5   4   3     1.391728755783   119.50782803     0.00000000
 C      7   5   4     1.389029000000   120.45300835     0.00000000
 H      1   2   3     0.961734831640   109.69958660     0.00000000
 H      3   2   1     1.083594073812   120.00489717     0.00000000
 H      4   3   2     1.080788463216   120.69266994   180.00000000
 H      6   5   4     0.961734831640   109.69958660   180.00000000
 H      7   5   4     1.083594073812   120.00489717   180.00000085
 H      8   7   5     1.080788463216   120.69266994   180.00000000

---------------------------
INTERNAL COORDINATES (A.U.)
---------------------------
 O      0   0   0     0.000000000000     0.00000000     0.00000000
 C      1   0   0     2.594747206007     0.00000000     0.00000000
 C      2   1   0     2.629986201133   122.82963429     0.00000000
 C      3   2   1     2.624884402075   120.45300835   180.00000000
 C      4   3   2     2.626184565404   120.03916362     0.00000000
 O      5   4   3     2.594747206007   117.66253769   180.00000000
 C      5   4   3     2.629986201133   119.50782803     0.00000000
 C      7   5   4     2.624884402075   120.45300835     0.00000000
 H      1   2   3     1.817415445252   109.69958660     0.00000000
 H      3   2   1     2.047696039844   120.00489717     0.00000000
 H      4   3   2     2.042394204180   120.69266994   180.00000000
 H      6   5   4     1.817415445252   109.69958660   180.00000000
 H      7   5   4     2.047696039844   120.00489717   180.00000085
 H      8   7   5     2.042394204180   120.69266994   180.00000000

---------------------
BASIS SET INFORMATION
---------------------
There are 3 groups of distinct atoms

 Group   1 Type O   : 18s5p2d contracted to 4s3p2d pattern {8811/311/11}
 Group   2 Type C   : 18s5p2d contracted to 4s3p2d pattern {8811/311/11}
 Group   3 Type H   : 5s2p contracted to 3s2p pattern {311/11}

Atom   0O    basis set group =>   1
Atom   1C    basis set group =>   2
Atom   2C    basis set group =>   2
Atom   3C    basis set group =>   2
Atom   4C    basis set group =>   2
Atom   5O    basis set group =>   1
Atom   6C    basis set group =>   2
Atom   7C    basis set group =>   2
Atom   8H    basis set group =>   3
Atom   9H    basis set group =>   3
Atom  10H    basis set group =>   3
Atom  11H    basis set group =>   3
Atom  12H    basis set group =>   3
Atom  13H    basis set group =>   3
---------------------------------
AUXILIARY/C BASIS SET INFORMATION
---------------------------------
There are 3 groups of distinct atoms

 Group   1 Type O   : 8s6p5d3f contracted to 8s6p5d3f pattern {11111111/111111/11111/111}
 Group   2 Type C   : 8s6p5d3f contracted to 8s6p5d3f pattern {11111111/111111/11111/111}
 Group   3 Type H   : 4s3p2d contracted to 4s3p2d pattern {1111/111/11}

Atom   0O    basis set group =>   1
Atom   1C    basis set group =>   2
Atom   2C    basis set group =>   2
Atom   3C    basis set group =>   2
Atom   4C    basis set group =>   2
Atom   5O    basis set group =>   1
Atom   6C    basis set group =>   2
Atom   7C    basis set group =>   2
Atom   8H    basis set group =>   3
Atom   9H    basis set group =>   3
Atom  10H    basis set group =>   3
Atom  11H    basis set group =>   3
Atom  12H    basis set group =>   3
Atom  13H    basis set group =>   3


           ************************************************************
           *        Program running with 16 parallel MPI-processes    *
           *              working on a common directory               *
           ************************************************************
------------------------------------------------------------------------------
                           ORCA GTO INTEGRAL CALCULATION
------------------------------------------------------------------------------
------------------------------------------------------------------------------
                   ___                                                        
                  /   \      - P O W E R E D   B Y -                         
                 /     \                                                     
                 |  |  |   _    _      __       _____    __    __             
                 |  |  |  | |  | |    /  \     |  _  \  |  |  /  |          
                  \  \/   | |  | |   /    \    | | | |  |  | /  /          
                 / \  \   | |__| |  /  /\  \   | |_| |  |  |/  /          
                |  |  |   |  __  | /  /__\  \  |    /   |      \           
                |  |  |   | |  | | |   __   |  |    \   |  |\   \          
                \     /   | |  | | |  |  |  |  | |\  \  |  | \   \       
                 \___/    |_|  |_| |__|  |__|  |_| \__\ |__|  \__/        
                                                                              
                      - O R C A' S   B I G   F R I E N D -                    
                                      &                                       
                       - I N T E G R A L  F E E D E R -                       
                                                                              
 v1 FN, 2020, v2 2021                                                         
------------------------------------------------------------------------------


Reading SHARK input file DZ_hydroquinone.SHARKINP.tmp ... ok
----------------------
SHARK INTEGRAL PACKAGE
----------------------

Number of atoms                             ...     14
Number of basis functions                   ...    286
Number of shells                            ...    150
Maximum angular momentum                    ...      2
Integral batch strategy                     ... SHARK/LIBINT Hybrid
RI-J (if used) integral strategy            ... SPLIT-RIJ (Revised 2003 algorithm where possible)
Printlevel                                  ...      1
Contraction scheme used                     ... PARTIAL GENERAL contraction
Coulomb Range Separation                    ... NOT USED
Exchange Range Separation                   ... NOT USED
Finite Nucleus Model                        ... NOT USED
Auxiliary Coulomb fitting basis             ... NOT available
Auxiliary J/K fitting basis                 ... NOT available
Auxiliary Correlation fitting basis         ... AVAILABLE
   # of basis functions in Aux-C            ...    714
   # of shells in Aux-C                     ...    230
   Maximum angular momentum in Aux-C        ...      3
Auxiliary 'external' fitting basis          ... NOT available
Integral threshold                          ...     2.500000e-11
Primitive cut-off                           ...     2.500000e-12
Primitive pair pre-selection threshold      ...     2.500000e-12

Calculating pre-screening integrals         ... done (  0.0 sec) Dimension = 150
Calculating pre-screening integrals (ORCA)  ... done (  0.1 sec) Dimension = 102
Organizing shell pair data                  ... done (  0.1 sec)
Shell pair information
Total number of shell pairs                 ...     11325
Shell pairs after pre-screening             ...      9498
Total number of primitive shell pairs       ...     15973
Primitive shell pairs kept                  ...     12411
          la=0 lb=0:   3397 shell pairs
          la=1 lb=0:   3266 shell pairs
          la=1 lb=1:    654 shell pairs
          la=2 lb=0:   1478 shell pairs
          la=2 lb=1:    568 shell pairs
          la=2 lb=2:    135 shell pairs

Calculating one electron integrals          ... done (  0.0 sec)
Calculating RI/C V-Matrix + Cholesky decomp.... done (  0.0 sec)
Calculating Nuclear repulsion               ... done (  0.0 sec) ENN=    345.028126231652 Eh

SHARK setup successfully completed in   0.3 seconds

Maximum memory used throughout the entire GTOINT-calculation: 18.9 MB


           ************************************************************
           *        Program running with 16 parallel MPI-processes    *
           *              working on a common directory               *
           ************************************************************
-------------------------------------------------------------------------------
                                 ORCA SCF
-------------------------------------------------------------------------------

------------
SCF SETTINGS
------------
Hamiltonian:
 Ab initio Hamiltonian  Method          .... Hartree-Fock(GTOs)


General Settings:
 Integral files         IntName         .... DZ_hydroquinone
 Hartree-Fock type      HFTyp           .... RHF
 Total Charge           Charge          ....    0
 Multiplicity           Mult            ....    1
 Number of Electrons    NEL             ....   58
 Basis Dimension        Dim             ....  238
 Nuclear Repulsion      ENuc            ....    345.0281262317 Eh

Convergence Acceleration:
 DIIS                   CNVDIIS         .... on
   Start iteration      DIISMaxIt       ....    12
   Startup error        DIISStart       ....  0.200000
   # of expansion vecs  DIISMaxEq       ....     5
   Bias factor          DIISBfac        ....   1.050
   Max. coefficient     DIISMaxC        ....  10.000
 Trust-Rad. Augm. Hess. CNVTRAH         .... auto
   Auto Start mean grad. ratio tolernc. ....  1.125000
   Auto Start start iteration           ....    20
   Auto Start num. interpolation iter.  ....    10
   Max. Number of Micro iterations      ....    16
   Max. Number of Macro iterations      .... Maxiter - #DIIS iter
   Number of Davidson start vectors     ....     2
   Converg. threshold I  (grad. norm)   ....   1.000e-05
   Converg. threshold II (energy diff.) ....   1.000e-08
   Grad. Scal. Fac. for Micro threshold ....   0.100
   Minimum threshold for Micro iter.    ....   0.010
   NR start threshold (gradient norm)   ....   0.001
   Initial trust radius                 ....   0.400
   Minimum AH scaling param. (alpha)    ....   1.000
   Maximum AH scaling param. (alpha)    .... 1000.000
   Orbital update algorithm             .... Taylor
   White noise on init. David. guess    .... on
   Maximum white noise                  ....   0.010
   Quad. conv. algorithm                .... NR
 SOSCF                  CNVSOSCF        .... on
   Start iteration      SOSCFMaxIt      ....   150
   Startup grad/error   SOSCFStart      ....  0.003300
 Level Shifting         CNVShift        .... on
   Level shift para.    LevelShift      ....    0.2500
   Turn off err/grad.   ShiftErr        ....    0.0010
 Zerner damping         CNVZerner       .... off
 Static damping         CNVDamp         .... on
   Fraction old density DampFac         ....    0.7000
   Max. Damping (<1)    DampMax         ....    0.9800
   Min. Damping (>=0)   DampMin         ....    0.0000
   Turn off err/grad.   DampErr         ....    0.1000
 Fernandez-Rico         CNVRico         .... off

SCF Procedure:
 Maximum # iterations   MaxIter         ....   125
 SCF integral mode      SCFMode         .... Direct
   Integral package                     .... SHARK and LIBINT hybrid scheme
 Reset frequency        DirectResetFreq ....    20
 Integral Threshold     Thresh          ....  2.500e-11 Eh
 Primitive CutOff       TCut            ....  2.500e-12 Eh

Convergence Tolerance:
 Convergence Check Mode ConvCheckMode   .... Total+1el-Energy
 Convergence forced     ConvForced      .... 1
 Energy Change          TolE            ....  1.000e-08 Eh
 1-El. energy change                    ....  1.000e-05 Eh
 Orbital Gradient       TolG            ....  1.000e-05
 Orbital Rotation angle TolX            ....  1.000e-05
 DIIS Error             TolErr          ....  5.000e-07


Diagonalization of the overlap matrix:
Smallest eigenvalue                        ... 2.225e-06
Time for diagonalization                   ...    0.007 sec
Threshold for overlap eigenvalues          ... 1.000e-08
Number of eigenvalues below threshold      ... 0
Time for construction of square roots      ...    0.007 sec
Total time needed                          ...    0.015 sec

Time for model grid setup =    0.060 sec

------------------------------
INITIAL GUESS: MODEL POTENTIAL
------------------------------
Loading Hartree-Fock densities                     ... done
Calculating cut-offs                               ... done
Initializing the effective Hamiltonian             ... done
Setting up the integral package (SHARK)            ... done
Starting the Coulomb interaction                   ... done (   0.0 sec)
Reading the grid                                   ... done
Mapping shells                                     ... done
Starting the XC term evaluation                    ... done (   0.0 sec)
Transforming the Hamiltonian                       ... done (   0.0 sec)
Diagonalizing the Hamiltonian                      ... done (   0.0 sec)
Back transforming the eigenvectors                 ... done (   0.0 sec)
Now organizing SCF variables                       ... done
                      ------------------
                      INITIAL GUESS DONE (   0.1 sec)
                      ------------------
--------------
SCF ITERATIONS
--------------
ITER       Energy         Delta-E        Max-DP      RMS-DP      [F,P]     Damp
               ***  Starting incremental Fock matrix formation  ***
  0   -380.1849064406   0.000000000000 1.13175601  0.02258299  0.2075522 0.7000
  1   -380.2833519871  -0.098445546503 0.85329347  0.01709329  0.1308631 0.7000
                               ***Turning on DIIS***
  2   -380.3441450458  -0.060793058627 2.03663738  0.04031750  0.0788824 0.0000
  3   -379.8291840540   0.514960991784 0.05836707  0.00163976  0.0359164 0.0000
  4   -380.4141936474  -0.585009593422 0.08408640  0.00135174  0.0053675 0.0000
  5   -380.4556515046  -0.041457857144 0.02964545  0.00045935  0.0038263 0.0000
                      *** Initiating the SOSCF procedure ***
                           *** Shutting down DIIS ***
                      *** Re-Reading the Fockian *** 
                      *** Removing any level shift *** 
ITER      Energy       Delta-E        Grad      Rot      Max-DP    RMS-DP
  6   -380.46913709  -0.0134855830  0.000683  0.000683  0.006097  0.000102
               *** Restarting incremental Fock matrix formation ***
  7   -380.47173413  -0.0025970394  0.000346  0.000565  0.003130  0.000054
  8   -380.47173708  -0.0000029497  0.000125  0.000398  0.002891  0.000046
  9   -380.47173778  -0.0000007025  0.000049  0.000028  0.000141  0.000006
 10   -380.47173782  -0.0000000402  0.000013  0.000021  0.000205  0.000004
                  ***Gradient check signals convergence***
              ***Rediagonalizing the Fockian in SOSCF/NRSCF***

               *****************************************************
               *                     SUCCESS                       *
               *           SCF CONVERGED AFTER  11 CYCLES          *
               *****************************************************


----------------
TOTAL SCF ENERGY
----------------

Total Energy       :         -380.47173783 Eh          -10353.16233 eV

Components:
Nuclear Repulsion  :          345.02812623 Eh            9388.69263 eV
Electronic Energy  :         -725.49986406 Eh          -19741.85496 eV
One Electron Energy:        -1202.27696316 Eh          -32715.61940 eV
Two Electron Energy:          476.77709911 Eh           12973.76444 eV

Virial components:
Potential Energy   :         -760.61893373 Eh          -20697.49343 eV
Kinetic Energy     :          380.14719590 Eh           10344.33110 eV
Virial Ratio       :            2.00085373


---------------
SCF CONVERGENCE
---------------

  Last Energy change         ...   -7.8703e-09  Tolerance :   1.0000e-08
  Last MAX-Density change    ...    2.1112e-05  Tolerance :   1.0000e-07
  Last RMS-Density change    ...    6.0142e-07  Tolerance :   5.0000e-09
  Last Orbital Gradient      ...    1.8673e-06  Tolerance :   1.0000e-05
  Last Orbital Rotation      ...    2.8131e-06  Tolerance :   1.0000e-05

             **** THE GBW FILE WAS UPDATED (DZ_hydroquinone.gbw) ****
             **** DENSITY DZ_hydroquinone.scfp WAS UPDATED ****
             **** ENERGY FILE WAS UPDATED (DZ_hydroquinone.en.tmp) ****
             **** THE GBW FILE WAS UPDATED (DZ_hydroquinone.gbw) ****
             **** DENSITY DZ_hydroquinone.scfp WAS UPDATED ****
----------------
ORBITAL ENERGIES
----------------

  NO   OCC          E(Eh)            E(eV) 
   0   2.0000     -20.597561      -560.4881 
   1   2.0000     -20.597560      -560.4881 
   2   2.0000     -11.302689      -307.5618 
   3   2.0000     -11.302668      -307.5612 
   4   2.0000     -11.247214      -306.0522 
   5   2.0000     -11.247187      -306.0515 
   6   2.0000     -11.242761      -305.9311 
   7   2.0000     -11.242746      -305.9307 
   8   2.0000      -1.405630       -38.2491 
   9   2.0000      -1.404289       -38.2126 
  10   2.0000      -1.152279       -31.3551 
  11   2.0000      -1.031236       -28.0613 
  12   2.0000      -1.003009       -27.2933 
  13   2.0000      -0.867080       -23.5945 
  14   2.0000      -0.827166       -22.5083 
  15   2.0000      -0.748467       -20.3668 
  16   2.0000      -0.735443       -20.0124 
  17   2.0000      -0.669407       -18.2155 
  18   2.0000      -0.626863       -17.0578 
  19   2.0000      -0.620129       -16.8746 
  20   2.0000      -0.597863       -16.2687 
  21   2.0000      -0.597055       -16.2467 
  22   2.0000      -0.577571       -15.7165 
  23   2.0000      -0.551998       -15.0206 
  24   2.0000      -0.551456       -15.0059 
  25   2.0000      -0.497515       -13.5381 
  26   2.0000      -0.466654       -12.6983 
  27   2.0000      -0.350039        -9.5250 
  28   2.0000      -0.299775        -8.1573 
  29   0.0000       0.032855         0.8940 
  30   0.0000       0.034403         0.9362 
  31   0.0000       0.045342         1.2338 
  32   0.0000       0.055120         1.4999 
  33   0.0000       0.064030         1.7423 
  34   0.0000       0.079254         2.1566 
  35   0.0000       0.098614         2.6834 
  36   0.0000       0.113274         3.0824 
  37   0.0000       0.113869         3.0985 
  38   0.0000       0.128758         3.5037 
  39   0.0000       0.131700         3.5838 
  40   0.0000       0.137363         3.7378 
  41   0.0000       0.142159         3.8684 
  42   0.0000       0.143148         3.8953 
  43   0.0000       0.145674         3.9640 
  44   0.0000       0.145853         3.9689 
  45   0.0000       0.158343         4.3087 
  46   0.0000       0.164023         4.4633 
  47   0.0000       0.167045         4.5455 
  48   0.0000       0.170732         4.6458 
  49   0.0000       0.182745         4.9727 
  50   0.0000       0.189596         5.1592 
  51   0.0000       0.193216         5.2577 
  52   0.0000       0.193312         5.2603 
  53   0.0000       0.193998         5.2790 
  54   0.0000       0.198039         5.3889 
  55   0.0000       0.241542         6.5727 
  56   0.0000       0.257230         6.9996 
  57   0.0000       0.267083         7.2677 
  58   0.0000       0.269726         7.3396 
  59   0.0000       0.280058         7.6208 
  60   0.0000       0.286401         7.7934 
  61   0.0000       0.296530         8.0690 
  62   0.0000       0.303703         8.2642 
  63   0.0000       0.312288         8.4978 
  64   0.0000       0.320051         8.7090 
  65   0.0000       0.321231         8.7411 
  66   0.0000       0.328287         8.9331 
  67   0.0000       0.335383         9.1262 
  68   0.0000       0.349511         9.5107 
  69   0.0000       0.364223         9.9110 
  70   0.0000       0.366513         9.9733 
  71   0.0000       0.380069        10.3422 
  72   0.0000       0.399610        10.8739 
  73   0.0000       0.400263        10.8917 
  74   0.0000       0.405139        11.0244 
  75   0.0000       0.414330        11.2745 
  76   0.0000       0.418010        11.3746 
  77   0.0000       0.421354        11.4656 
  78   0.0000       0.440662        11.9910 
  79   0.0000       0.460168        12.5218 
  80   0.0000       0.461143        12.5483 
  81   0.0000       0.467744        12.7280 
  82   0.0000       0.487565        13.2673 
  83   0.0000       0.501037        13.6339 
  84   0.0000       0.508633        13.8406 
  85   0.0000       0.510429        13.8895 
  86   0.0000       0.519430        14.1344 
  87   0.0000       0.535197        14.5635 
  88   0.0000       0.536055        14.5868 
  89   0.0000       0.563006        15.3202 
  90   0.0000       0.584168        15.8960 
  91   0.0000       0.584285        15.8992 
  92   0.0000       0.605706        16.4821 
  93   0.0000       0.621443        16.9103 
  94   0.0000       0.622885        16.9496 
  95   0.0000       0.637884        17.3577 
  96   0.0000       0.638497        17.3744 
  97   0.0000       0.653949        17.7948 
  98   0.0000       0.662293        18.0219 
  99   0.0000       0.666213        18.1286 
 100   0.0000       0.678723        18.4690 
 101   0.0000       0.683392        18.5960 
 102   0.0000       0.695196        18.9173 
 103   0.0000       0.702808        19.1244 
 104   0.0000       0.709688        19.3116 
 105   0.0000       0.711966        19.3736 
 106   0.0000       0.716861        19.5068 
 107   0.0000       0.726526        19.7698 
 108   0.0000       0.737253        20.0617 
 109   0.0000       0.751262        20.4429 
 110   0.0000       0.772778        21.0283 
 111   0.0000       0.775004        21.0889 
 112   0.0000       0.804170        21.8826 
 113   0.0000       0.808464        21.9994 
 114   0.0000       0.821523        22.3548 
 115   0.0000       0.856957        23.3190 
 116   0.0000       0.866843        23.5880 
 117   0.0000       0.877795        23.8860 
 118   0.0000       0.892649        24.2902 
 119   0.0000       0.900891        24.5145 
 120   0.0000       0.902700        24.5637 
 121   0.0000       0.924192        25.1485 
 122   0.0000       0.926379        25.2080 
 123   0.0000       0.941500        25.6195 
 124   0.0000       0.956844        26.0370 
 125   0.0000       0.962248        26.1841 
 126   0.0000       0.966029        26.2870 
 127   0.0000       0.985050        26.8046 
 128   0.0000       0.997739        27.1499 
 129   0.0000       1.020293        27.7636 
 130   0.0000       1.045209        28.4416 
 131   0.0000       1.055867        28.7316 
 132   0.0000       1.055963        28.7342 
 133   0.0000       1.067211        29.0403 
 134   0.0000       1.083679        29.4884 
 135   0.0000       1.113006        30.2864 
 136   0.0000       1.135915        30.9098 
 137   0.0000       1.148066        31.2405 
 138   0.0000       1.152381        31.3579 
 139   0.0000       1.168418        31.7943 
 140   0.0000       1.241935        33.7948 
 141   0.0000       1.252280        34.0763 
 142   0.0000       1.255852        34.1735 
 143   0.0000       1.325191        36.0603 
 144   0.0000       1.335036        36.3282 
 145   0.0000       1.380599        37.5680 
 146   0.0000       1.412005        38.4226 
 147   0.0000       1.441469        39.2244 
 148   0.0000       1.449191        39.4345 
 149   0.0000       1.468725        39.9660 
 150   0.0000       1.472111        40.0582 
 151   0.0000       1.493361        40.6364 
 152   0.0000       1.506346        40.9898 
 153   0.0000       1.551373        42.2150 
 154   0.0000       1.557076        42.3702 
 155   0.0000       1.577991        42.9393 
 156   0.0000       1.604562        43.6623 
 157   0.0000       1.611903        43.8621 
 158   0.0000       1.626147        44.2497 
 159   0.0000       1.646859        44.8133 
 160   0.0000       1.646958        44.8160 
 161   0.0000       1.663083        45.2548 
 162   0.0000       1.668835        45.4113 
 163   0.0000       1.688460        45.9453 
 164   0.0000       1.690522        46.0014 
 165   0.0000       1.709425        46.5158 
 166   0.0000       1.716189        46.6999 
 167   0.0000       1.727049        46.9954 
 168   0.0000       1.757135        47.8141 
 169   0.0000       1.768532        48.1242 
 170   0.0000       1.790295        48.7164 
 171   0.0000       1.853748        50.4430 
 172   0.0000       1.866270        50.7838 
 173   0.0000       1.873908        50.9916 
 174   0.0000       1.892937        51.5094 
 175   0.0000       1.900891        51.7259 
 176   0.0000       1.908057        51.9209 
 177   0.0000       1.925559        52.3971 
 178   0.0000       1.944979        52.9256 
 179   0.0000       1.966318        53.5062 
 180   0.0000       1.966333        53.5067 
 181   0.0000       1.978428        53.8358 
 182   0.0000       1.983255        53.9671 
 183   0.0000       2.087415        56.8015 
 184   0.0000       2.109139        57.3926 
 185   0.0000       2.125680        57.8427 
 186   0.0000       2.145324        58.3772 
 187   0.0000       2.167035        58.9680 
 188   0.0000       2.174500        59.1712 
 189   0.0000       2.178020        59.2669 
 190   0.0000       2.192434        59.6592 
 191   0.0000       2.204793        59.9955 
 192   0.0000       2.209143        60.1138 
 193   0.0000       2.258716        61.4628 
 194   0.0000       2.266744        61.6812 
 195   0.0000       2.269406        61.7537 
 196   0.0000       2.300379        62.5965 
 197   0.0000       2.332677        63.4754 
 198   0.0000       2.335097        63.5412 
 199   0.0000       2.373065        64.5744 
 200   0.0000       2.393757        65.1374 
 201   0.0000       2.413230        65.6673 
 202   0.0000       2.462662        67.0124 
 203   0.0000       2.483248        67.5726 
 204   0.0000       2.524921        68.7066 
 205   0.0000       2.556158        69.5566 
 206   0.0000       2.576245        70.1032 
 207   0.0000       2.619879        71.2905 
 208   0.0000       2.649014        72.0833 
 209   0.0000       2.751301        74.8667 
 210   0.0000       2.817399        76.6653 
 211   0.0000       2.825726        76.8919 
 212   0.0000       2.912875        79.2634 
 213   0.0000       2.941772        80.0497 
 214   0.0000       2.943383        80.0935 
 215   0.0000       2.986181        81.2581 
 216   0.0000       3.029224        82.4294 
 217   0.0000       3.062367        83.3312 
 218   0.0000       3.141240        85.4775 
 219   0.0000       3.176779        86.4445 
 220   0.0000       3.212157        87.4072 
 221   0.0000       3.254450        88.5581 
 222   0.0000       3.258884        88.6788 
 223   0.0000       3.445209        93.7489 
 224   0.0000       3.555944        96.7621 
 225   0.0000       3.645759        99.2061 
 226   0.0000       3.725201       101.3679 
 227   0.0000       3.749517       102.0295 
 228   0.0000       3.750933       102.0681 
 229   0.0000       3.774508       102.7096 
 230   0.0000       3.778760       102.8253 
 231   0.0000       3.850398       104.7746 
 232   0.0000       3.908581       106.3579 
 233   0.0000       3.945816       107.3711 
 234   0.0000       4.043408       110.0267 
 235   0.0000       4.392423       119.5239 
 236   0.0000       4.407987       119.9474 
 237   0.0000       4.797579       130.5488 

                    ********************************
                    * MULLIKEN POPULATION ANALYSIS *
                    ********************************

-----------------------
MULLIKEN ATOMIC CHARGES
-----------------------
   0 O :   -0.896355
   1 C :    0.764919
   2 C :    0.532039
   3 C :    0.471370
   4 C :    0.764919
   5 O :   -0.896355
   6 C :    0.532039
   7 C :    0.471370
   8 H :    0.162178
   9 H :   -0.581726
  10 H :   -0.452424
  11 H :    0.162178
  12 H :   -0.581726
  13 H :   -0.452424
Sum of atomic charges:   -0.0000000

--------------------------------
MULLIKEN REDUCED ORBITAL CHARGES
--------------------------------
  0 O s       :     4.101552  s :     4.101552
      pz      :     1.932025  p :     4.764522
      px      :     1.461542
      py      :     1.370954
      dz2     :     0.001629  d :     0.030282
      dxz     :     0.001735
      dyz     :     0.013000
      dx2y2   :     0.006950
      dxy     :     0.006967
  1 C s       :     2.878349  s :     2.878349
      pz      :     0.946454  p :     2.479614
      px      :     1.125516
      py      :     0.407644
      dz2     :     0.013988  d :    -0.122882
      dxz     :     0.020285
      dyz     :     0.002355
      dx2y2   :    -0.067038
      dxy     :    -0.092472
  2 C s       :     2.689007  s :     2.689007
      pz      :     0.988034  p :     2.783990
      px      :     0.892328
      py      :     0.903627
      dz2     :     0.012742  d :    -0.005036
      dxz     :    -0.007320
      dyz     :     0.033382
      dx2y2   :     0.029213
      dxy     :    -0.073052
  3 C s       :     2.531857  s :     2.531857
      pz      :     0.990817  p :     2.976017
      px      :     0.857058
      py      :     1.128143
      dz2     :     0.008408  d :     0.020756
      dxz     :    -0.000748
      dyz     :     0.042080
      dx2y2   :     0.025443
      dxy     :    -0.054428
  4 C s       :     2.878349  s :     2.878349
      pz      :     0.946454  p :     2.479614
      px      :     1.125516
      py      :     0.407644
      dz2     :     0.013988  d :    -0.122882
      dxz     :     0.020285
      dyz     :     0.002355
      dx2y2   :    -0.067038
      dxy     :    -0.092472
  5 O s       :     4.101552  s :     4.101552
      pz      :     1.932025  p :     4.764522
      px      :     1.461542
      py      :     1.370954
      dz2     :     0.001629  d :     0.030282
      dxz     :     0.001735
      dyz     :     0.013000
      dx2y2   :     0.006950
      dxy     :     0.006967
  6 C s       :     2.689007  s :     2.689007
      pz      :     0.988034  p :     2.783990
      px      :     0.892328
      py      :     0.903627
      dz2     :     0.012742  d :    -0.005036
      dxz     :    -0.007320
      dyz     :     0.033382
      dx2y2   :     0.029213
      dxy     :    -0.073052
  7 C s       :     2.531857  s :     2.531857
      pz      :     0.990817  p :     2.976017
      px      :     0.857058
      py      :     1.128143
      dz2     :     0.008408  d :     0.020756
      dxz     :    -0.000748
      dyz     :     0.042080
      dx2y2   :     0.025443
      dxy     :    -0.054428
  8 H s       :     0.747033  s :     0.747033
      pz      :     0.028443  p :     0.090788
      px      :     0.035867
      py      :     0.026478
  9 H s       :     1.580415  s :     1.580415
      pz      :     0.005643  p :     0.001310
      px      :     0.017986
      py      :    -0.022318
 10 H s       :     1.461487  s :     1.461487
      pz      :     0.003813  p :    -0.009063
      px      :    -0.000920
      py      :    -0.011956
 11 H s       :     0.747033  s :     0.747033
      pz      :     0.028443  p :     0.090788
      px      :     0.035867
      py      :     0.026478
 12 H s       :     1.580415  s :     1.580415
      pz      :     0.005643  p :     0.001310
      px      :     0.017986
      py      :    -0.022318
 13 H s       :     1.461487  s :     1.461487
      pz      :     0.003813  p :    -0.009063
      px      :    -0.000920
      py      :    -0.011956


                     *******************************
                     * LOEWDIN POPULATION ANALYSIS *
                     *******************************

----------------------
LOEWDIN ATOMIC CHARGES
----------------------
   0 O :    0.174328
   1 C :   -0.236724
   2 C :    0.043648
   3 C :    0.051368
   4 C :   -0.236724
   5 O :    0.174328
   6 C :    0.043648
   7 C :    0.051368
   8 H :   -0.044639
   9 H :    0.002644
  10 H :    0.009375
  11 H :   -0.044639
  12 H :    0.002644
  13 H :    0.009375

-------------------------------
LOEWDIN REDUCED ORBITAL CHARGES
-------------------------------
  0 O s       :     3.221476  s :     3.221476
      pz      :     1.675499  p :     4.408519
      px      :     1.409700
      py      :     1.323320
      dz2     :     0.021212  d :     0.195678
      dxz     :     0.000514
      dyz     :     0.044644
      dx2y2   :     0.061472
      dxy     :     0.067835
  1 C s       :     2.558665  s :     2.558665
      pz      :     0.740421  p :     2.515216
      px      :     0.990465
      py      :     0.784330
      dz2     :     0.101330  d :     1.162843
      dxz     :     0.154528
      dyz     :     0.205380
      dx2y2   :     0.369589
      dxy     :     0.332015
  2 C s       :     2.596638  s :     2.596638
      pz      :     0.771703  p :     2.654124
      px      :     0.925700
      py      :     0.956721
      dz2     :     0.066792  d :     0.705590
      dxz     :     0.059595
      dyz     :     0.127656
      dx2y2   :     0.203087
      dxy     :     0.248460
  3 C s       :     2.598542  s :     2.598542
      pz      :     0.760627  p :     2.650035
      px      :     0.932020
      py      :     0.957388
      dz2     :     0.066240  d :     0.700055
      dxz     :     0.060010
      dyz     :     0.126432
      dx2y2   :     0.203818
      dxy     :     0.243555
  4 C s       :     2.558665  s :     2.558665
      pz      :     0.740421  p :     2.515216
      px      :     0.990465
      py      :     0.784330
      dz2     :     0.101330  d :     1.162843
      dxz     :     0.154528
      dyz     :     0.205380
      dx2y2   :     0.369589
      dxy     :     0.332015
  5 O s       :     3.221476  s :     3.221476
      pz      :     1.675499  p :     4.408519
      px      :     1.409700
      py      :     1.323320
      dz2     :     0.021212  d :     0.195678
      dxz     :     0.000514
      dyz     :     0.044644
      dx2y2   :     0.061472
      dxy     :     0.067835
  6 C s       :     2.596638  s :     2.596638
      pz      :     0.771703  p :     2.654124
      px      :     0.925700
      py      :     0.956721
      dz2     :     0.066792  d :     0.705590
      dxz     :     0.059595
      dyz     :     0.127656
      dx2y2   :     0.203087
      dxy     :     0.248460
  7 C s       :     2.598542  s :     2.598542
      pz      :     0.760627  p :     2.650035
      px      :     0.932020
      py      :     0.957388
      dz2     :     0.066240  d :     0.700055
      dxz     :     0.060010
      dyz     :     0.126432
      dx2y2   :     0.203818
      dxy     :     0.243555
  8 H s       :     0.612139  s :     0.612139
      pz      :     0.119539  p :     0.432500
      px      :     0.206186
      py      :     0.106775
  9 H s       :     0.736102  s :     0.736102
      pz      :     0.078551  p :     0.261253
      px      :     0.109967
      py      :     0.072735
 10 H s       :     0.732226  s :     0.732226
      pz      :     0.074900  p :     0.258399
      px      :     0.109348
      py      :     0.074151
 11 H s       :     0.612139  s :     0.612139
      pz      :     0.119539  p :     0.432500
      px      :     0.206186
      py      :     0.106775
 12 H s       :     0.736102  s :     0.736102
      pz      :     0.078551  p :     0.261253
      px      :     0.109967
      py      :     0.072735
 13 H s       :     0.732226  s :     0.732226
      pz      :     0.074900  p :     0.258399
      px      :     0.109348
      py      :     0.074151


                      *****************************
                      * MAYER POPULATION ANALYSIS *
                      *****************************

  NA   - Mulliken gross atomic population
  ZA   - Total nuclear charge
  QA   - Mulliken gross atomic charge
  VA   - Mayer's total valence
  BVA  - Mayer's bonded valence
  FA   - Mayer's free valence

  ATOM       NA         ZA         QA         VA         BVA        FA
  0 O      8.8964     8.0000    -0.8964     1.2178     1.2178    -0.0000
  1 C      5.2351     6.0000     0.7649     3.6664     3.6664    -0.0000
  2 C      5.4680     6.0000     0.5320     4.3875     4.3875    -0.0000
  3 C      5.5286     6.0000     0.4714     4.0771     4.0771    -0.0000
  4 C      5.2351     6.0000     0.7649     3.6664     3.6664    -0.0000
  5 O      8.8964     8.0000    -0.8964     1.2178     1.2178    -0.0000
  6 C      5.4680     6.0000     0.5320     4.3875     4.3875    -0.0000
  7 C      5.5286     6.0000     0.4714     4.0771     4.0771    -0.0000
  8 H      0.8378     1.0000     0.1622     1.0046     1.0046     0.0000
  9 H      1.5817     1.0000    -0.5817     0.5941     0.5941    -0.0000
 10 H      1.4524     1.0000    -0.4524     0.6632     0.6632    -0.0000
 11 H      0.8378     1.0000     0.1622     1.0046     1.0046     0.0000
 12 H      1.5817     1.0000    -0.5817     0.5941     0.5941     0.0000
 13 H      1.4524     1.0000    -0.4524     0.6632     0.6632    -0.0000

  Mayer bond orders larger than 0.100000
B(  0-O ,  2-C ) :   0.1575 B(  0-O ,  8-H ) :   1.0661 B(  1-C ,  2-C ) :   1.5704 
B(  1-C ,  3-C ) :  -0.1318 B(  1-C ,  4-C ) :   0.1522 B(  1-C ,  6-C ) :  -0.1615 
B(  1-C ,  7-C ) :   1.7125 B(  1-C ,  8-H ) :  -0.1075 B(  1-C ,  9-H ) :   0.4419 
B(  1-C , 10-H ) :  -0.1108 B(  1-C , 12-H ) :  -0.1291 B(  1-C , 13-H ) :   0.5139 
B(  2-C ,  3-C ) :   1.9849 B(  2-C ,  4-C ) :  -0.1615 B(  2-C ,  6-C ) :   0.5950 
B(  2-C , 10-H ) :   0.1258 B(  3-C ,  4-C ) :   1.7125 B(  3-C ,  7-C ) :   0.1042 
B(  3-C ,  9-H ) :   0.2093 B(  4-C ,  6-C ) :   1.5704 B(  4-C ,  7-C ) :  -0.1318 
B(  4-C ,  9-H ) :  -0.1291 B(  4-C , 10-H ) :   0.5139 B(  4-C , 11-H ) :  -0.1075 
B(  4-C , 12-H ) :   0.4419 B(  4-C , 13-H ) :  -0.1108 B(  5-O ,  6-C ) :   0.1575 
B(  5-O , 11-H ) :   1.0661 B(  6-C ,  7-C ) :   1.9849 B(  6-C , 13-H ) :   0.1258 
B(  7-C , 12-H ) :   0.2093 

-------
TIMINGS
-------

Total SCF time: 0 days 0 hours 0 min 22 sec 

Total time                  ....      22.531 sec
Sum of individual times     ....      22.160 sec  ( 98.4%)

Fock matrix formation       ....      21.705 sec  ( 96.3%)
Diagonalization             ....       0.115 sec  (  0.5%)
Density matrix formation    ....       0.012 sec  (  0.1%)
Population analysis         ....       0.027 sec  (  0.1%)
Initial guess               ....       0.090 sec  (  0.4%)
Orbital Transformation      ....       0.000 sec  (  0.0%)
Orbital Orthonormalization  ....       0.000 sec  (  0.0%)
DIIS solution               ....       0.088 sec  (  0.4%)
SOSCF solution              ....       0.063 sec  (  0.3%)

Maximum memory used throughout the entire SCF-calculation: 233.8 MB


           ************************************************************
           *        Program running with 16 parallel MPI-processes    *
           *              working on a common directory               *
           ************************************************************

------------------------------------------------------------------------------
                                ORCA  MP2 
------------------------------------------------------------------------------

Freezing NCore=16 chemical core electrons

-------------
RI-MP2 ENERGY
-------------
Dimension of the basis                    ...  238
Memory devoted to MP2                     ...  256 MB   
Data format for buffers                   ... DOUBLE
Compression type for matrix containers    ... UNCOMPRESSED
Overall scaling of the MP2 energy         ...   1.000e+00
Calculating two index integrals           ... done (    0.003 sec)
Cholesky decomposition of V**-1           ... done (    0.051 sec)

-----------------
RI-TRANSFORMATION (AUX index driven)
-----------------

Dimension of the orbital-basis         ... 238
Dimension of the aux-basis             ... 714
Transformation of internal/external MOs...    8-  28 to   29- 237
Number Format for Storage              ... Double (8 Byte)
Integral mode                          ... Direct

First Phase: integral generation and transformation of MO indices
  Aux angular momentum 0               ... done (    0.015 sec)
  Aux angular momentum 1               ... done (    0.022 sec)
  Aux angular momentum 2               ... done (    0.029 sec)
  Aux angular momentum 3               ... done (    0.018 sec)
Closing buffer VIA ( 0.02 GB; CompressionRatio= 1.00)
  Phase 1 completed in     0.182 sec
Second Phase: sorting and transformation of aux index

IA-Transformation
Memory available                       ... 209 MB 
Max. # MO pairs treated in a batch     ... 2    
# of internal orbitals                 ... 21
# batches for internal orbitals        ... 1
Closing buffer IAV ( 0.02 GB; CompressionRatio= 1.00)
(ia|v) transformation done in     0.031 sec

  Phase 2 completed in     0.067 sec
RI-Integral transformation completed in     0.256 sec
Opening buffers                              ... done

Starting loop over batches of integrals:

Operator 0  - window                       ... (  8- 28)x( 29-237)
Operator 0  - Memory available             ...   256 MB
Operator 0  - Memory needed per MO         ...   1.1 MB
Operator 0  - Number of orbitals per batch ... 2
Operator 0  - Number of batches            ... 1

OPERATOR  0   PASS   0:  MOs     8 ...    9 +   10 ...   11 +   12 ...   13 +   14 ...   15
                            +   16 ...   17 +   18 ...   19 +   20 ...   21 +   22 ...   23
                            +   24 ...   25 +   26 ...   27 +   28 ...   28
  Reading integrals       ... ok
Time spent in pair loops =     0.010 sec
Deleting buffer (Ka|jb)[aa] ...done

-----------------------------------------------
 RI-MP2 CORRELATION ENERGY:     -1.204626443 Eh
-----------------------------------------------


-------
TIMINGS
-------

Total time                :    0.415 sec
Integral trafo            :    0.264 sec ( 63.6%)
I/O of integrals          :    0.001 sec (  0.2%)
K(i,j) Operators          :    0.005 sec (  1.3%)
T(i,j) pair energies      :    0.001 sec (  0.1%)
V-calculation             :    0.003 sec (  0.8%)
V**(-1/2)                 :    0.051 sec ( 12.2%)
Gamma(ia|P)               :    0.000 sec (  0.0%)
Gamma-Trafo               :    0.000 sec (  0.0%)
D(virtual)                :    0.000 sec (  0.0%)
D(internal)               :    0.000 sec (  0.0%)
W(virtual)                :    0.000 sec (  0.0%)
W(internal)               :    0.000 sec (  0.0%)
L(virtual)                :    0.000 sec (  0.0%)
L(internal)               :    0.000 sec (  0.0%)
G(D)                      :    0.000 sec (  0.0%)
G(Z)                      :    0.000 sec (  0.0%)
Z-Vector Solution         :    0.000 sec (  0.0%)
3-Index Derivative        :    0.000 sec (  0.0%)
2-Index Derivative        :    0.000 sec (  0.0%)
Separable Gradient        :    0.000 sec (  0.0%)


---------------------------------------
MP2 TOTAL ENERGY:     -381.676364271 Eh
---------------------------------------

Maximum memory used throughout the entire MP2-calculation: 93.1 MB

-------------------------   --------------------
FINAL SINGLE POINT ENERGY      -381.676364270595
-------------------------   --------------------


                            ***************************************
                            *     ORCA property calculations      *
                            ***************************************


  WARNING: The energy has been calculated at the MP2 level but the densities
           used in the property calculations are still SCF densities
           MP2 response densities have not been calculated 
           use %mp2 Density relaxed end
           or  %mp2 Density unrelaxed end

                                    ---------------------
                                    Active property flags
                                    ---------------------
   (+) Dipole Moment


------------------------------------------------------------------------------
                       ORCA ELECTRIC PROPERTIES CALCULATION
------------------------------------------------------------------------------

Dipole Moment Calculation                       ... on
Quadrupole Moment Calculation                   ... off
Polarizability Calculation                      ... off
GBWName                                         ... DZ_hydroquinone.gbw
Electron density                                ... DZ_hydroquinone.scfp
The origin for moment calculation is the CENTER OF MASS  = ( 0.000000, -0.000000  0.000000)

-------------
DIPOLE MOMENT
-------------
                                X             Y             Z
Electronic contribution:     -0.00000      -0.00000       0.00000
Nuclear contribution   :      0.00000       0.00000       0.00000
                        -----------------------------------------
Total Dipole Moment    :     -0.00000      -0.00000       0.00000
                        -----------------------------------------
Magnitude (a.u.)       :      0.00000
Magnitude (Debye)      :      0.00000



--------------------
Rotational spectrum 
--------------------
 
Rotational constants in cm-1:     0.188835     0.049464     0.039197 
Rotational constants in MHz :  5661.124294  1482.892927  1175.086918 

 Dipole components along the rotational axes: 
x,y,z [a.u.] :     0.000000     0.000000     0.000000 
x,y,z [Debye]:     0.000000     0.000000     0.000000 

 

Timings for individual modules:

Sum of individual times         ...       54.574 sec (=   0.910 min)
GTO integral calculation        ...       16.054 sec (=   0.268 min)  29.4 %
SCF iterations                  ...       33.100 sec (=   0.552 min)  60.7 %
MP2 module                      ...        5.421 sec (=   0.090 min)   9.9 %
                             ****ORCA TERMINATED NORMALLY****
TOTAL RUN TIME: 0 days 0 hours 0 minutes 58 seconds 976 msec
