
                                 *****************
                                 * O   R   C   A *
                                 *****************

                                            #,                                       
                                            ###                                      
                                            ####                                     
                                            #####                                    
                                            ######                                   
                                           ########,                                 
                                     ,,################,,,,,                         
                               ,,#################################,,                 
                          ,,##########################################,,             
                       ,#########################################, ''#####,          
                    ,#############################################,,   '####,        
                  ,##################################################,,,,####,       
                ,###########''''           ''''###############################       
              ,#####''   ,,,,##########,,,,          '''####'''          '####       
            ,##' ,,,,###########################,,,                        '##       
           ' ,,###''''                  '''############,,,                           
         ,,##''                                '''############,,,,        ,,,,,,###''
      ,#''                                            '''#######################'''  
     '                                                          ''''####''''         
             ,#######,   #######,   ,#######,      ##                                
            ,#'     '#,  ##    ##  ,#'     '#,    #''#        ######   ,####,        
            ##       ##  ##   ,#'  ##            #'  '#       #        #'  '#        
            ##       ##  #######   ##           ,######,      #####,   #    #        
            '#,     ,#'  ##    ##  '#,     ,#' ,#      #,         ##   #,  ,#        
             '#######'   ##     ##  '#######'  #'      '#     #####' # '####'        



                  #######################################################
                  #                        -***-                        #
                  #          Department of theory and spectroscopy      #
                  #    Directorship and core code : Frank Neese         #
                  #        Max Planck Institute fuer Kohlenforschung    #
                  #                Kaiser Wilhelm Platz 1               #
                  #                 D-45470 Muelheim/Ruhr               #
                  #                      Germany                        #
                  #                                                     #
                  #                  All rights reserved                #
                  #                        -***-                        #
                  #######################################################


                         Program Version 5.0.3 -  RELEASE  -


 With contributions from (in alphabetic order):
   Daniel Aravena         : Magnetic Suceptibility
   Michael Atanasov       : Ab Initio Ligand Field Theory (pilot matlab implementation)
   Alexander A. Auer      : GIAO ZORA, VPT2 properties, NMR spectrum
   Ute Becker             : Parallelization
   Giovanni Bistoni       : ED, misc. LED, open-shell LED, HFLD
   Martin Brehm           : Molecular dynamics
   Dmytro Bykov           : SCF Hessian
   Vijay G. Chilkuri      : MRCI spin determinant printing, contributions to CSF-ICE
   Dipayan Datta          : RHF DLPNO-CCSD density
   Achintya Kumar Dutta   : EOM-CC, STEOM-CC
   Dmitry Ganyushin       : Spin-Orbit,Spin-Spin,Magnetic field MRCI
   Miquel Garcia          : C-PCM and meta-GGA Hessian, CC/C-PCM, Gaussian charge scheme
   Yang Guo               : DLPNO-NEVPT2, F12-NEVPT2, CIM, IAO-localization
   Andreas Hansen         : Spin unrestricted coupled pair/coupled cluster methods
   Benjamin Helmich-Paris : MC-RPA, TRAH-SCF, COSX integrals
   Lee Huntington         : MR-EOM, pCC
   Robert Izsak           : Overlap fitted RIJCOSX, COSX-SCS-MP3, EOM
   Marcus Kettner         : VPT2
   Christian Kollmar      : KDIIS, OOCD, Brueckner-CCSD(T), CCSD density, CASPT2, CASPT2-K
   Simone Kossmann        : Meta GGA functionals, TD-DFT gradient, OOMP2, MP2 Hessian
   Martin Krupicka        : Initial AUTO-CI
   Lucas Lang             : DCDCAS
   Marvin Lechner         : AUTO-CI (C++ implementation), FIC-MRCC
   Dagmar Lenk            : GEPOL surface, SMD
   Dimitrios Liakos       : Extrapolation schemes; Compound Job, initial MDCI parallelization
   Dimitrios Manganas     : Further ROCIS development; embedding schemes
   Dimitrios Pantazis     : SARC Basis sets
   Anastasios Papadopoulos: AUTO-CI, single reference methods and gradients
   Taras Petrenko         : DFT Hessian,TD-DFT gradient, ASA, ECA, R-Raman, ABS, FL, XAS/XES, NRVS
   Peter Pinski           : DLPNO-MP2, DLPNO-MP2 Gradient
   Christoph Reimann      : Effective Core Potentials
   Marius Retegan         : Local ZFS, SOC
   Christoph Riplinger    : Optimizer, TS searches, QM/MM, DLPNO-CCSD(T), (RO)-DLPNO pert. Triples
   Tobias Risthaus        : Range-separated hybrids, TD-DFT gradient, RPA, STAB
   Michael Roemelt        : Original ROCIS implementation
   Masaaki Saitow         : Open-shell DLPNO-CCSD energy and density
   Barbara Sandhoefer     : DKH picture change effects
   Avijit Sen             : IP-ROCIS
   Kantharuban Sivalingam : CASSCF convergence, NEVPT2, FIC-MRCI
   Bernardo de Souza      : ESD, SOC TD-DFT
   Georgi Stoychev        : AutoAux, RI-MP2 NMR, DLPNO-MP2 response
   Willem Van den Heuvel  : Paramagnetic NMR
   Boris Wezisla          : Elementary symmetry handling
   Frank Wennmohs         : Technical directorship


 We gratefully acknowledge several colleagues who have allowed us to
 interface, adapt or use parts of their codes:
   Stefan Grimme, W. Hujo, H. Kruse, P. Pracht,  : VdW corrections, initial TS optimization,
                  C. Bannwarth, S. Ehlert          DFT functionals, gCP, sTDA/sTD-DF
   Ed Valeev, F. Pavosevic, A. Kumar             : LibInt (2-el integral package), F12 methods
   Garnet Chan, S. Sharma, J. Yang, R. Olivares  : DMRG
   Ulf Ekstrom                                   : XCFun DFT Library
   Mihaly Kallay                                 : mrcc  (arbitrary order and MRCC methods)
   Jiri Pittner, Ondrej Demel                    : Mk-CCSD
   Frank Weinhold                                : gennbo (NPA and NBO analysis)
   Christopher J. Cramer and Donald G. Truhlar   : smd solvation model
   Lars Goerigk                                  : TD-DFT with DH, B97 family of functionals
   V. Asgeirsson, H. Jonsson                     : NEB implementation
   FAccTs GmbH                                   : IRC, NEB, NEB-TS, DLPNO-Multilevel, CI-OPT
                                                   MM, QMMM, 2- and 3-layer-ONIOM, Crystal-QMMM,
                                                   LR-CPCM, SF, NACMEs, symmetry and pop. for TD-DFT,
                                                   nearIR, NL-DFT gradient (VV10), updates on ESD,
                                                   ML-optimized integration grids
   S Lehtola, MJT Oliveira, MAL Marques          : LibXC Library
   Liviu Ungur et al                             : ANISO software


 Your calculation uses the libint2 library for the computation of 2-el integrals
 For citations please refer to: http://libint.valeyev.net

 Your ORCA version has been built with support for libXC version: 5.1.0
 For citations please refer to: https://tddft.org/programs/libxc/

 This ORCA versions uses:
   CBLAS   interface :  Fast vector & matrix operations
   LAPACKE interface :  Fast linear algebra routines
   SCALAPACK package :  Parallel linear algebra routines
   Shared memory     :  Shared parallel matrices
   BLAS/LAPACK       :  OpenBLAS 0.3.15  USE64BITINT DYNAMIC_ARCH NO_AFFINITY SkylakeX SINGLE_THREADED
        Core in use  :  SkylakeX
   Copyright (c) 2011-2014, The OpenBLAS Project


================================================================================

----- Orbital basis set information -----
Your calculation utilizes the basis: aug-cc-pVDZ 
    H, B-Ne : Obtained from the ccRepo (grant-hill.group.shef.ac.uk/ccrepo) Feb. 2017
              R. A. Kendall, T. H. Dunning, Jr., R. J. Harrison, J. Chem. Phys. 96, 6796 (1992)
         He : Obtained from the ccRepo (grant-hill.group.shef.ac.uk/ccrepo) Feb. 2017
              D. E. Woon, T. H. Dunning, Jr., J. Chem. Phys. 100, 2975 (1994)
  Li-Be, Na : Obtained from the ccRepo (grant-hill.group.shef.ac.uk/ccrepo) Feb. 2017
              B. P. Prascher, D. E. Woon, K. A. Peterson, T. H. Dunning, Jr., A. K. Wilson, Theor. Chem. Acc. 128, 69 (2011)
         Mg : Obtained from the Peterson Research Group Website (tyr0.chem.wsu.edu/~kipeters) Feb. 2017
              B. P. Prascher, D. E. Woon, K. A. Peterson, T. H. Dunning, Jr., A. K. Wilson, Theor. Chem. Acc. 128, 69 (2011)
      Al-Ar : Obtained from the ccRepo (grant-hill.group.shef.ac.uk/ccrepo) Feb. 2017
              D. E. Woon, T. H. Dunning, Jr., J. Chem. Phys. 98, 1358 (1993)
      Sc-Zn : Obtained from the ccRepo (grant-hill.group.shef.ac.uk/ccrepo) Feb. 2017
              N. B. Balabanov, K. A. Peterson, J. Chem. Phys. 123, 064107 (2005)
              N. B. Balabanov, K. A. Peterson, J. Chem. Phys. 125, 074110 (2006)
      Ga-Kr : Obtained from the ccRepo (grant-hill.group.shef.ac.uk/ccrepo) Feb. 2017
              A. K. Wilson, D. E. Woon, K. A. Peterson, T. H. Dunning, Jr., J. Chem. Phys. 110, 7667 (1999)

----- AuxC basis set information -----
Your calculation utilizes the auxiliary basis: aug-cc-pVDZ/C 
  H-He, B, Ne, Al-Ar, Ga-Ge, Se-Br : Obtained from the EMSL Basis Set Exchange (bse.pnl.gov) Feb. 2017
                                     F. Weigend, A. Kohn, C. Hattig, J. Chem. Phys. 116, 3175 (2002)
                            Be, Mg : Obtained from the TURBOMOLE 7.0 basis set library
                                     C. Haettig, Phys. Chem. Chem. Phys. 7, 59 (2005)
                               C-F : Obtained from the EMSL Basis Set Exchange (bse.pnl.gov) Feb. 2017
                                     C. Haettig, Phys. Chem. Chem. Phys. 7, 59 (2005)
                                     F. Weigend, A. Kohn, C. Hattig, J. Chem. Phys. 116, 3175 (2002)
                                As : Obtained from the EMSL Basis Set Exchange (bse.pnl.gov) Feb. 2017
                                     C. Haettig, G. Schmitz, J. Kossmann, Phys. Chem. Chem. Phys. 14, 6549 (2012)
                                Kr : Obtained from the TURBOMOLE 7.0 basis set library
                                     F. Weigend, A. Kohn, C. Hattig, J. Chem. Phys. 116, 3175 (2002)
                                     S function revised in Sep. 2009

================================================================================
                                        WARNINGS
                       Please study these warnings very carefully!
================================================================================


WARNING: No MP2 level density has been requested!
         To caclulate MP2 level properties use
         %mp2 Density relaxed end
         or
         %mp2 Density unrelaxed end

WARNING: Post HF methods need fully converged wavefunctions
  ===> : Setting SCFConvForced true
         You can overwrite this default with %scf ConvForced false 


INFO   : the flag for use of the SHARK integral package has been found!

================================================================================
                                       INPUT FILE
================================================================================
NAME = DZ_propane-1,2,3-triamine.inp
|  1> !ri-mp2 aug-cc-pvdz aug-cc-pvdz/c tightscf
|  2> %pal nprocs 16 end
|  3> 
|  4> * xyz 0 1
|  5> C     -0.013757   -1.316234    0.197329
|  6> C      0.083647    1.251840    0.325748
|  7> C      0.646705   -0.029651   -0.312805
|  8> N     -1.467041   -1.338650   -0.018105
|  9> N     -1.231706    1.613642   -0.202973
| 10> N      2.093096   -0.186523   -0.116420
| 11> H      0.508805   -2.160172   -0.265080
| 12> H      0.158200   -1.387214    1.276005
| 13> H      0.104816    1.127108    1.421032
| 14> H      0.771050    2.067989    0.090551
| 15> H      0.474190    0.042447   -1.391124
| 16> H     -1.874954   -2.159342    0.411086
| 17> H     -1.678612   -1.389398   -1.008104
| 18> H     -1.536048    2.505919    0.164381
| 19> H     -1.910296    0.908416    0.058611
| 20> H      2.324036   -0.198746    0.871269
| 21> H      2.598800    0.587978   -0.527778
| 22> *
| 23> 
| 24>                          ****END OF INPUT****
================================================================================

                       ****************************
                       * Single Point Calculation *
                       ****************************

---------------------------------
CARTESIAN COORDINATES (ANGSTROEM)
---------------------------------
  C     -0.013757   -1.316234    0.197329
  C      0.083647    1.251840    0.325748
  C      0.646705   -0.029651   -0.312805
  N     -1.467041   -1.338650   -0.018105
  N     -1.231706    1.613642   -0.202973
  N      2.093096   -0.186523   -0.116420
  H      0.508805   -2.160172   -0.265080
  H      0.158200   -1.387214    1.276005
  H      0.104816    1.127108    1.421032
  H      0.771050    2.067989    0.090551
  H      0.474190    0.042447   -1.391124
  H     -1.874954   -2.159342    0.411086
  H     -1.678612   -1.389398   -1.008104
  H     -1.536048    2.505919    0.164381
  H     -1.910296    0.908416    0.058611
  H      2.324036   -0.198746    0.871269
  H      2.598800    0.587978   -0.527778

----------------------------
CARTESIAN COORDINATES (A.U.)
----------------------------
  NO LB      ZA    FRAG     MASS         X           Y           Z
   0 C     6.0000    0    12.011   -0.025997   -2.487322    0.372898
   1 C     6.0000    0    12.011    0.158070    2.365635    0.615575
   2 C     6.0000    0    12.011    1.222095   -0.056032   -0.591116
   3 N     7.0000    0    14.007   -2.772306   -2.529682   -0.034213
   4 N     7.0000    0    14.007   -2.327587    3.049341   -0.383563
   5 N     7.0000    0    14.007    3.955378   -0.352477   -0.220002
   6 H     1.0000    0     1.008    0.961502   -4.082133   -0.500929
   7 H     1.0000    0     1.008    0.298955   -2.621455    2.411300
   8 H     1.0000    0     1.008    0.198074    2.129925    2.685361
   9 H     1.0000    0     1.008    1.457073    3.907933    0.171117
  10 H     1.0000    0     1.008    0.896089    0.080213   -2.628843
  11 H     1.0000    0     1.008   -3.543150   -4.080565    0.776840
  12 H     1.0000    0     1.008   -3.172117   -2.625582   -1.905040
  13 H     1.0000    0     1.008   -2.902710    4.735501    0.310635
  14 H     1.0000    0     1.008   -3.609936    1.716657    0.110759
  15 H     1.0000    0     1.008    4.391792   -0.375576    1.646460
  16 H     1.0000    0     1.008    4.911020    1.111117   -0.997356

--------------------------------
INTERNAL COORDINATES (ANGSTROEM)
--------------------------------
 C      0   0   0     0.000000000000     0.00000000     0.00000000
 C      1   0   0     2.573127095239     0.00000000     0.00000000
 C      1   2   0     1.533539229133    33.17356980     0.00000000
 N      1   2   3     1.469336132431    93.43890373   231.52964565
 N      2   1   3     1.463078978611   101.22923250   114.49353888
 N      3   1   2     1.468067715567   106.86823010   125.69875496
 H      1   2   3     1.095045421418   140.55047380     6.04046686
 H      1   2   3     1.094600056288    90.54946340   124.07165811
 H      2   1   3     1.102566659681    86.41083992   228.10119959
 H      2   1   3     1.092675479463   139.33494926   339.63955724
 H      3   1   2     1.094409161415   108.36934028   240.82184919
 H      4   1   2     1.011994707948   110.41788028   213.22717188
 H      4   1   2     1.013625013280   110.51258251    95.25297512
 H      5   2   1     1.011796056036   110.93415666   153.14326860
 H      5   2   1     1.013042095982   109.67942822    33.19760247
 H      6   3   1     1.014402408342   110.84465876   292.28909349
 H      6   3   1     1.012325905418   110.85844238   173.70428880

---------------------------
INTERNAL COORDINATES (A.U.)
---------------------------
 C      0   0   0     0.000000000000     0.00000000     0.00000000
 C      1   0   0     4.862505517774     0.00000000     0.00000000
 C      1   2   0     2.897969158686    33.17356980     0.00000000
 N      1   2   3     2.776642888970    93.43890373   231.52964565
 N      2   1   3     2.764818581872   101.22923250   114.49353888
 N      3   1   2     2.774245928473   106.86823010   125.69875496
 H      1   2   3     2.069335950685   140.55047380     6.04046686
 H      1   2   3     2.068494332559    90.54946340   124.07165811
 H      2   1   3     2.083549031190    86.41083992   228.10119959
 H      2   1   3     2.064857409436   139.33494926   339.63955724
 H      3   1   2     2.068133593530   108.36934028   240.82184919
 H      4   1   2     1.912392846999   110.41788028   213.22717188
 H      4   1   2     1.915473677591   110.51258251    95.25297512
 H      5   2   1     1.912017449289   110.93415666   153.14326860
 H      5   2   1     1.914372123540   109.67942822    33.19760247
 H      6   3   1     1.916942741356   110.84465876   292.28909349
 H      6   3   1     1.913018719514   110.85844238   173.70428880

---------------------
BASIS SET INFORMATION
---------------------
There are 3 groups of distinct atoms

 Group   1 Type C   : 18s5p2d contracted to 4s3p2d pattern {8811/311/11}
 Group   2 Type N   : 18s5p2d contracted to 4s3p2d pattern {8811/311/11}
 Group   3 Type H   : 5s2p contracted to 3s2p pattern {311/11}

Atom   0C    basis set group =>   1
Atom   1C    basis set group =>   1
Atom   2C    basis set group =>   1
Atom   3N    basis set group =>   2
Atom   4N    basis set group =>   2
Atom   5N    basis set group =>   2
Atom   6H    basis set group =>   3
Atom   7H    basis set group =>   3
Atom   8H    basis set group =>   3
Atom   9H    basis set group =>   3
Atom  10H    basis set group =>   3
Atom  11H    basis set group =>   3
Atom  12H    basis set group =>   3
Atom  13H    basis set group =>   3
Atom  14H    basis set group =>   3
Atom  15H    basis set group =>   3
Atom  16H    basis set group =>   3
---------------------------------
AUXILIARY/C BASIS SET INFORMATION
---------------------------------
There are 3 groups of distinct atoms

 Group   1 Type C   : 8s6p5d3f contracted to 8s6p5d3f pattern {11111111/111111/11111/111}
 Group   2 Type N   : 8s6p5d3f contracted to 8s6p5d3f pattern {11111111/111111/11111/111}
 Group   3 Type H   : 4s3p2d contracted to 4s3p2d pattern {1111/111/11}

Atom   0C    basis set group =>   1
Atom   1C    basis set group =>   1
Atom   2C    basis set group =>   1
Atom   3N    basis set group =>   2
Atom   4N    basis set group =>   2
Atom   5N    basis set group =>   2
Atom   6H    basis set group =>   3
Atom   7H    basis set group =>   3
Atom   8H    basis set group =>   3
Atom   9H    basis set group =>   3
Atom  10H    basis set group =>   3
Atom  11H    basis set group =>   3
Atom  12H    basis set group =>   3
Atom  13H    basis set group =>   3
Atom  14H    basis set group =>   3
Atom  15H    basis set group =>   3
Atom  16H    basis set group =>   3


           ************************************************************
           *        Program running with 16 parallel MPI-processes    *
           *              working on a common directory               *
           ************************************************************
------------------------------------------------------------------------------
                           ORCA GTO INTEGRAL CALCULATION
------------------------------------------------------------------------------
------------------------------------------------------------------------------
                   ___                                                        
                  /   \      - P O W E R E D   B Y -                         
                 /     \                                                     
                 |  |  |   _    _      __       _____    __    __             
                 |  |  |  | |  | |    /  \     |  _  \  |  |  /  |          
                  \  \/   | |  | |   /    \    | | | |  |  | /  /          
                 / \  \   | |__| |  /  /\  \   | |_| |  |  |/  /          
                |  |  |   |  __  | /  /__\  \  |    /   |      \           
                |  |  |   | |  | | |   __   |  |    \   |  |\   \          
                \     /   | |  | | |  |  |  |  | |\  \  |  | \   \       
                 \___/    |_|  |_| |__|  |__|  |_| \__\ |__|  \__/        
                                                                              
                      - O R C A' S   B I G   F R I E N D -                    
                                      &                                       
                       - I N T E G R A L  F E E D E R -                       
                                                                              
 v1 FN, 2020, v2 2021                                                         
------------------------------------------------------------------------------


Reading SHARK input file DZ_propane-1,2,3-triamine.SHARKINP.tmp ... ok
----------------------
SHARK INTEGRAL PACKAGE
----------------------

Number of atoms                             ...     17
Number of basis functions                   ...    273
Number of shells                            ...    145
Maximum angular momentum                    ...      2
Integral batch strategy                     ... SHARK/LIBINT Hybrid
RI-J (if used) integral strategy            ... SPLIT-RIJ (Revised 2003 algorithm where possible)
Printlevel                                  ...      1
Contraction scheme used                     ... PARTIAL GENERAL contraction
Coulomb Range Separation                    ... NOT USED
Exchange Range Separation                   ... NOT USED
Finite Nucleus Model                        ... NOT USED
Auxiliary Coulomb fitting basis             ... NOT available
Auxiliary J/K fitting basis                 ... NOT available
Auxiliary Correlation fitting basis         ... AVAILABLE
   # of basis functions in Aux-C            ...    685
   # of shells in Aux-C                     ...    231
   Maximum angular momentum in Aux-C        ...      3
Auxiliary 'external' fitting basis          ... NOT available
Integral threshold                          ...     2.500000e-11
Primitive cut-off                           ...     2.500000e-12
Primitive pair pre-selection threshold      ...     2.500000e-12

Calculating pre-screening integrals         ... done (  0.0 sec) Dimension = 145
Calculating pre-screening integrals (ORCA)  ... done (  0.1 sec) Dimension = 109
Organizing shell pair data                  ... done (  0.1 sec)
Shell pair information
Total number of shell pairs                 ...     10585
Shell pairs after pre-screening             ...      9582
Total number of primitive shell pairs       ...     16161
Primitive shell pairs kept                  ...     13427
          la=0 lb=0:   3582 shell pairs
          la=1 lb=0:   3542 shell pairs
          la=1 lb=1:    817 shell pairs
          la=2 lb=0:   1083 shell pairs
          la=2 lb=1:    480 shell pairs
          la=2 lb=2:     78 shell pairs

Calculating one electron integrals          ... done (  0.0 sec)
Calculating RI/C V-Matrix + Cholesky decomp.... done (  0.0 sec)
Calculating Nuclear repulsion               ... done (  0.0 sec) ENN=    263.762326474363 Eh

SHARK setup successfully completed in   0.3 seconds

Maximum memory used throughout the entire GTOINT-calculation: 19.0 MB


           ************************************************************
           *        Program running with 16 parallel MPI-processes    *
           *              working on a common directory               *
           ************************************************************
-------------------------------------------------------------------------------
                                 ORCA SCF
-------------------------------------------------------------------------------

------------
SCF SETTINGS
------------
Hamiltonian:
 Ab initio Hamiltonian  Method          .... Hartree-Fock(GTOs)


General Settings:
 Integral files         IntName         .... DZ_propane-1,2,3-triamine
 Hartree-Fock type      HFTyp           .... RHF
 Total Charge           Charge          ....    0
 Multiplicity           Mult            ....    1
 Number of Electrons    NEL             ....   50
 Basis Dimension        Dim             ....  237
 Nuclear Repulsion      ENuc            ....    263.7623264744 Eh

Convergence Acceleration:
 DIIS                   CNVDIIS         .... on
   Start iteration      DIISMaxIt       ....    12
   Startup error        DIISStart       ....  0.200000
   # of expansion vecs  DIISMaxEq       ....     5
   Bias factor          DIISBfac        ....   1.050
   Max. coefficient     DIISMaxC        ....  10.000
 Trust-Rad. Augm. Hess. CNVTRAH         .... auto
   Auto Start mean grad. ratio tolernc. ....  1.125000
   Auto Start start iteration           ....    20
   Auto Start num. interpolation iter.  ....    10
   Max. Number of Micro iterations      ....    16
   Max. Number of Macro iterations      .... Maxiter - #DIIS iter
   Number of Davidson start vectors     ....     2
   Converg. threshold I  (grad. norm)   ....   1.000e-05
   Converg. threshold II (energy diff.) ....   1.000e-08
   Grad. Scal. Fac. for Micro threshold ....   0.100
   Minimum threshold for Micro iter.    ....   0.010
   NR start threshold (gradient norm)   ....   0.001
   Initial trust radius                 ....   0.400
   Minimum AH scaling param. (alpha)    ....   1.000
   Maximum AH scaling param. (alpha)    .... 1000.000
   Orbital update algorithm             .... Taylor
   White noise on init. David. guess    .... on
   Maximum white noise                  ....   0.010
   Quad. conv. algorithm                .... NR
 SOSCF                  CNVSOSCF        .... on
   Start iteration      SOSCFMaxIt      ....   150
   Startup grad/error   SOSCFStart      ....  0.003300
 Level Shifting         CNVShift        .... on
   Level shift para.    LevelShift      ....    0.2500
   Turn off err/grad.   ShiftErr        ....    0.0010
 Zerner damping         CNVZerner       .... off
 Static damping         CNVDamp         .... on
   Fraction old density DampFac         ....    0.7000
   Max. Damping (<1)    DampMax         ....    0.9800
   Min. Damping (>=0)   DampMin         ....    0.0000
   Turn off err/grad.   DampErr         ....    0.1000
 Fernandez-Rico         CNVRico         .... off

SCF Procedure:
 Maximum # iterations   MaxIter         ....   125
 SCF integral mode      SCFMode         .... Direct
   Integral package                     .... SHARK and LIBINT hybrid scheme
 Reset frequency        DirectResetFreq ....    20
 Integral Threshold     Thresh          ....  2.500e-11 Eh
 Primitive CutOff       TCut            ....  2.500e-12 Eh

Convergence Tolerance:
 Convergence Check Mode ConvCheckMode   .... Total+1el-Energy
 Convergence forced     ConvForced      .... 1
 Energy Change          TolE            ....  1.000e-08 Eh
 1-El. energy change                    ....  1.000e-05 Eh
 Orbital Gradient       TolG            ....  1.000e-05
 Orbital Rotation angle TolX            ....  1.000e-05
 DIIS Error             TolErr          ....  5.000e-07


Diagonalization of the overlap matrix:
Smallest eigenvalue                        ... 1.285e-05
Time for diagonalization                   ...    0.008 sec
Threshold for overlap eigenvalues          ... 1.000e-08
Number of eigenvalues below threshold      ... 0
Time for construction of square roots      ...    0.007 sec
Total time needed                          ...    0.016 sec

Time for model grid setup =    0.067 sec

------------------------------
INITIAL GUESS: MODEL POTENTIAL
------------------------------
Loading Hartree-Fock densities                     ... done
Calculating cut-offs                               ... done
Initializing the effective Hamiltonian             ... done
Setting up the integral package (SHARK)            ... done
Starting the Coulomb interaction                   ... done (   0.0 sec)
Reading the grid                                   ... done
Mapping shells                                     ... done
Starting the XC term evaluation                    ... done (   0.0 sec)
Transforming the Hamiltonian                       ... done (   0.0 sec)
Diagonalizing the Hamiltonian                      ... done (   0.0 sec)
Back transforming the eigenvectors                 ... done (   0.0 sec)
Now organizing SCF variables                       ... done
                      ------------------
                      INITIAL GUESS DONE (   0.2 sec)
                      ------------------
--------------
SCF ITERATIONS
--------------
ITER       Energy         Delta-E        Max-DP      RMS-DP      [F,P]     Damp
               ***  Starting incremental Fock matrix formation  ***
  0   -283.0106156661   0.000000000000 0.52693434  0.00482818  0.2620634 0.7000
  1   -283.1480605239  -0.137444857841 0.43024278  0.00376552  0.1634053 0.7000
                               ***Turning on DIIS***
  2   -283.2266496322  -0.078589108349 1.12438697  0.00927366  0.0924084 0.0000
  3   -282.4899602666   0.736689365644 0.12298537  0.00126419  0.0521863 0.0000
  4   -283.2858016458  -0.795841379236 0.04204392  0.00047118  0.0061982 0.0000
                      *** Initiating the SOSCF procedure ***
                           *** Shutting down DIIS ***
                      *** Re-Reading the Fockian *** 
                      *** Removing any level shift *** 
ITER      Energy       Delta-E        Grad      Rot      Max-DP    RMS-DP
  5   -283.35888802  -0.0730863727  0.000967  0.000967  0.006806  0.000133
               *** Restarting incremental Fock matrix formation ***
  6   -283.38234808  -0.0234600579  0.000253  0.000458  0.004946  0.000086
  7   -283.38236202  -0.0000139456  0.000106  0.000347  0.003380  0.000052
  8   -283.38236468  -0.0000026574  0.000029  0.000031  0.000953  0.000012
  9   -283.38236485  -0.0000001675  0.000007  0.000011  0.000257  0.000003
                  ***Gradient check signals convergence***
              ***Rediagonalizing the Fockian in SOSCF/NRSCF***

               *****************************************************
               *                     SUCCESS                       *
               *           SCF CONVERGED AFTER  10 CYCLES          *
               *****************************************************


----------------
TOTAL SCF ENERGY
----------------

Total Energy       :         -283.38236486 Eh           -7711.22618 eV

Components:
Nuclear Repulsion  :          263.76232647 Eh            7177.33779 eV
Electronic Energy  :         -547.14469133 Eh          -14888.56397 eV
One Electron Energy:         -907.24780513 Eh          -24687.46786 eV
Two Electron Energy:          360.10311380 Eh            9798.90389 eV

Virial components:
Potential Energy   :         -566.36051084 Eh          -15411.45300 eV
Kinetic Energy     :          282.97814599 Eh            7700.22682 eV
Virial Ratio       :            2.00142845


---------------
SCF CONVERGENCE
---------------

  Last Energy change         ...   -9.4487e-09  Tolerance :   1.0000e-08
  Last MAX-Density change    ...    3.7419e-05  Tolerance :   1.0000e-07
  Last RMS-Density change    ...    8.0131e-07  Tolerance :   5.0000e-09
  Last Orbital Gradient      ...    2.1977e-06  Tolerance :   1.0000e-05
  Last Orbital Rotation      ...    5.7902e-06  Tolerance :   1.0000e-05

             **** THE GBW FILE WAS UPDATED (DZ_propane-1,2,3-triamine.gbw) ****
             **** DENSITY DZ_propane-1,2,3-triamine.scfp WAS UPDATED ****
             **** ENERGY FILE WAS UPDATED (DZ_propane-1,2,3-triamine.en.tmp) ****
             **** THE GBW FILE WAS UPDATED (DZ_propane-1,2,3-triamine.gbw) ****
             **** DENSITY DZ_propane-1,2,3-triamine.scfp WAS UPDATED ****
----------------
ORBITAL ENERGIES
----------------

  NO   OCC          E(Eh)            E(eV) 
   0   2.0000     -15.551682      -423.1828 
   1   2.0000     -15.546358      -423.0379 
   2   2.0000     -15.531529      -422.6344 
   3   2.0000     -11.253137      -306.2134 
   4   2.0000     -11.251456      -306.1677 
   5   2.0000     -11.245207      -305.9976 
   6   2.0000      -1.205280       -32.7973 
   7   2.0000      -1.165717       -31.7208 
   8   2.0000      -1.153905       -31.3994 
   9   2.0000      -0.968307       -26.3490 
  10   2.0000      -0.886832       -24.1319 
  11   2.0000      -0.785602       -21.3773 
  12   2.0000      -0.675644       -18.3852 
  13   2.0000      -0.662832       -18.0366 
  14   2.0000      -0.656334       -17.8598 
  15   2.0000      -0.607122       -16.5206 
  16   2.0000      -0.603925       -16.4336 
  17   2.0000      -0.559393       -15.2219 
  18   2.0000      -0.548560       -14.9271 
  19   2.0000      -0.538106       -14.6426 
  20   2.0000      -0.496015       -13.4972 
  21   2.0000      -0.469740       -12.7823 
  22   2.0000      -0.399118       -10.8605 
  23   2.0000      -0.388340       -10.5673 
  24   2.0000      -0.370461       -10.0808 
  25   0.0000       0.035805         0.9743 
  26   0.0000       0.041450         1.1279 
  27   0.0000       0.047051         1.2803 
  28   0.0000       0.048769         1.3271 
  29   0.0000       0.065649         1.7864 
  30   0.0000       0.068335         1.8595 
  31   0.0000       0.071039         1.9331 
  32   0.0000       0.071788         1.9535 
  33   0.0000       0.078227         2.1287 
  34   0.0000       0.095756         2.6056 
  35   0.0000       0.100709         2.7404 
  36   0.0000       0.136211         3.7065 
  37   0.0000       0.139270         3.7897 
  38   0.0000       0.143642         3.9087 
  39   0.0000       0.150330         4.0907 
  40   0.0000       0.158623         4.3164 
  41   0.0000       0.163144         4.4394 
  42   0.0000       0.171435         4.6650 
  43   0.0000       0.182085         4.9548 
  44   0.0000       0.187300         5.0967 
  45   0.0000       0.192374         5.2348 
  46   0.0000       0.194564         5.2944 
  47   0.0000       0.203572         5.5395 
  48   0.0000       0.208791         5.6815 
  49   0.0000       0.215518         5.8646 
  50   0.0000       0.229400         6.2423 
  51   0.0000       0.235476         6.4076 
  52   0.0000       0.246341         6.7033 
  53   0.0000       0.251482         6.8432 
  54   0.0000       0.252557         6.8724 
  55   0.0000       0.256262         6.9733 
  56   0.0000       0.266480         7.2513 
  57   0.0000       0.302629         8.2350 
  58   0.0000       0.320745         8.7279 
  59   0.0000       0.324640         8.8339 
  60   0.0000       0.335077         9.1179 
  61   0.0000       0.345212         9.3937 
  62   0.0000       0.353189         9.6108 
  63   0.0000       0.361621         9.8402 
  64   0.0000       0.370174        10.0729 
  65   0.0000       0.379262        10.3202 
  66   0.0000       0.384252        10.4560 
  67   0.0000       0.406884        11.0719 
  68   0.0000       0.414308        11.2739 
  69   0.0000       0.417699        11.3662 
  70   0.0000       0.431699        11.7471 
  71   0.0000       0.436491        11.8775 
  72   0.0000       0.442559        12.0426 
  73   0.0000       0.459536        12.5046 
  74   0.0000       0.476362        12.9625 
  75   0.0000       0.481573        13.1043 
  76   0.0000       0.486803        13.2466 
  77   0.0000       0.490742        13.3538 
  78   0.0000       0.499250        13.5853 
  79   0.0000       0.503059        13.6889 
  80   0.0000       0.505936        13.7672 
  81   0.0000       0.517777        14.0894 
  82   0.0000       0.527224        14.3465 
  83   0.0000       0.538619        14.6566 
  84   0.0000       0.544130        14.8065 
  85   0.0000       0.549217        14.9450 
  86   0.0000       0.553336        15.0570 
  87   0.0000       0.562015        15.2932 
  88   0.0000       0.576151        15.6779 
  89   0.0000       0.586014        15.9463 
  90   0.0000       0.592372        16.1193 
  91   0.0000       0.602183        16.3862 
  92   0.0000       0.610595        16.6151 
  93   0.0000       0.622000        16.9255 
  94   0.0000       0.636459        17.3189 
  95   0.0000       0.641180        17.4474 
  96   0.0000       0.647631        17.6229 
  97   0.0000       0.660389        17.9701 
  98   0.0000       0.668324        18.1860 
  99   0.0000       0.675396        18.3785 
 100   0.0000       0.684779        18.6338 
 101   0.0000       0.697978        18.9930 
 102   0.0000       0.705579        19.1998 
 103   0.0000       0.720153        19.5964 
 104   0.0000       0.727933        19.8081 
 105   0.0000       0.735636        20.0177 
 106   0.0000       0.741043        20.1648 
 107   0.0000       0.741334        20.1727 
 108   0.0000       0.763452        20.7746 
 109   0.0000       0.771519        20.9941 
 110   0.0000       0.779859        21.2210 
 111   0.0000       0.795903        21.6576 
 112   0.0000       0.818958        22.2850 
 113   0.0000       0.828234        22.5374 
 114   0.0000       0.834646        22.7119 
 115   0.0000       0.850901        23.1542 
 116   0.0000       0.870333        23.6830 
 117   0.0000       0.879900        23.9433 
 118   0.0000       0.890403        24.2291 
 119   0.0000       0.899362        24.4729 
 120   0.0000       0.912149        24.8208 
 121   0.0000       0.915699        24.9174 
 122   0.0000       0.923520        25.1303 
 123   0.0000       0.951634        25.8953 
 124   0.0000       0.965258        26.2660 
 125   0.0000       0.970966        26.4213 
 126   0.0000       0.999845        27.2072 
 127   0.0000       1.007620        27.4187 
 128   0.0000       1.034255        28.1435 
 129   0.0000       1.041921        28.3521 
 130   0.0000       1.054018        28.6813 
 131   0.0000       1.064197        28.9583 
 132   0.0000       1.075435        29.2641 
 133   0.0000       1.088661        29.6240 
 134   0.0000       1.112260        30.2661 
 135   0.0000       1.143108        31.1056 
 136   0.0000       1.154735        31.4219 
 137   0.0000       1.172462        31.9043 
 138   0.0000       1.174734        31.9661 
 139   0.0000       1.221370        33.2352 
 140   0.0000       1.232421        33.5359 
 141   0.0000       1.263460        34.3805 
 142   0.0000       1.292107        35.1600 
 143   0.0000       1.329551        36.1789 
 144   0.0000       1.337290        36.3895 
 145   0.0000       1.361105        37.0375 
 146   0.0000       1.388314        37.7780 
 147   0.0000       1.410951        38.3939 
 148   0.0000       1.452462        39.5235 
 149   0.0000       1.469853        39.9967 
 150   0.0000       1.517831        41.3023 
 151   0.0000       1.548985        42.1500 
 152   0.0000       1.560608        42.4663 
 153   0.0000       1.574624        42.8477 
 154   0.0000       1.624245        44.1980 
 155   0.0000       1.655535        45.0494 
 156   0.0000       1.665943        45.3326 
 157   0.0000       1.700420        46.2708 
 158   0.0000       1.708421        46.4885 
 159   0.0000       1.752572        47.6899 
 160   0.0000       1.766266        48.0625 
 161   0.0000       1.785957        48.5984 
 162   0.0000       1.851132        50.3719 
 163   0.0000       1.863486        50.7080 
 164   0.0000       1.892236        51.4904 
 165   0.0000       1.904710        51.8298 
 166   0.0000       1.917419        52.1756 
 167   0.0000       1.968053        53.5534 
 168   0.0000       1.982524        53.9472 
 169   0.0000       2.000581        54.4386 
 170   0.0000       2.014119        54.8070 
 171   0.0000       2.039989        55.5109 
 172   0.0000       2.050455        55.7957 
 173   0.0000       2.077268        56.5253 
 174   0.0000       2.107556        57.3495 
 175   0.0000       2.121514        57.7293 
 176   0.0000       2.142386        58.2973 
 177   0.0000       2.167325        58.9759 
 178   0.0000       2.179016        59.2940 
 179   0.0000       2.206870        60.0520 
 180   0.0000       2.220653        60.4270 
 181   0.0000       2.235932        60.8428 
 182   0.0000       2.261498        61.5385 
 183   0.0000       2.273699        61.8705 
 184   0.0000       2.287781        62.2537 
 185   0.0000       2.317377        63.0590 
 186   0.0000       2.355866        64.1064 
 187   0.0000       2.377344        64.6908 
 188   0.0000       2.393948        65.1426 
 189   0.0000       2.410005        65.5796 
 190   0.0000       2.418276        65.8046 
 191   0.0000       2.434168        66.2371 
 192   0.0000       2.443308        66.4858 
 193   0.0000       2.451891        66.7193 
 194   0.0000       2.464153        67.0530 
 195   0.0000       2.494829        67.8878 
 196   0.0000       2.507722        68.2386 
 197   0.0000       2.516130        68.4674 
 198   0.0000       2.533049        68.9278 
 199   0.0000       2.554895        69.5222 
 200   0.0000       2.568331        69.8878 
 201   0.0000       2.578918        70.1759 
 202   0.0000       2.621051        71.3224 
 203   0.0000       2.630591        71.5820 
 204   0.0000       2.669525        72.6415 
 205   0.0000       2.670587        72.6704 
 206   0.0000       2.703813        73.5745 
 207   0.0000       2.709545        73.7305 
 208   0.0000       2.722972        74.0958 
 209   0.0000       2.749221        74.8101 
 210   0.0000       2.769764        75.3691 
 211   0.0000       2.791696        75.9659 
 212   0.0000       2.844278        77.3967 
 213   0.0000       2.861278        77.8593 
 214   0.0000       2.883663        78.4684 
 215   0.0000       2.912002        79.2396 
 216   0.0000       2.954385        80.3929 
 217   0.0000       2.971625        80.8620 
 218   0.0000       3.004906        81.7677 
 219   0.0000       3.020675        82.1967 
 220   0.0000       3.032526        82.5192 
 221   0.0000       3.041463        82.7624 
 222   0.0000       3.124592        85.0245 
 223   0.0000       3.149163        85.6931 
 224   0.0000       3.169589        86.2489 
 225   0.0000       3.209272        87.3287 
 226   0.0000       3.293096        89.6097 
 227   0.0000       3.338010        90.8319 
 228   0.0000       3.407139        92.7130 
 229   0.0000       3.412759        92.8659 
 230   0.0000       3.462710        94.2251 
 231   0.0000       3.477246        94.6207 
 232   0.0000       3.568121        97.0935 
 233   0.0000       3.704359       100.8007 
 234   0.0000       3.767547       102.5202 
 235   0.0000       3.788227       103.0829 
 236   0.0000       3.851076       104.7931 

                    ********************************
                    * MULLIKEN POPULATION ANALYSIS *
                    ********************************

-----------------------
MULLIKEN ATOMIC CHARGES
-----------------------
   0 C :    1.052578
   1 C :    0.985708
   2 C :   -0.242964
   3 N :   -0.510116
   4 N :   -0.373468
   5 N :   -0.395036
   6 H :   -0.029288
   7 H :   -0.163351
   8 H :   -0.060540
   9 H :   -0.122772
  10 H :   -0.198231
  11 H :   -0.021789
  12 H :    0.042524
  13 H :   -0.034150
  14 H :    0.078733
  15 H :    0.037024
  16 H :   -0.044863
Sum of atomic charges:    0.0000000

--------------------------------
MULLIKEN REDUCED ORBITAL CHARGES
--------------------------------
  0 C s       :     2.568824  s :     2.568824
      pz      :     0.803194  p :     2.308398
      px      :     0.574265
      py      :     0.930939
      dz2     :     0.013397  d :     0.070200
      dxz     :    -0.014549
      dyz     :     0.001975
      dx2y2   :     0.011349
      dxy     :     0.058028
  1 C s       :     2.660894  s :     2.660894
      pz      :     0.788451  p :     2.290314
      px      :     0.661663
      py      :     0.840200
      dz2     :     0.022655  d :     0.063083
      dxz     :    -0.018123
      dyz     :     0.002799
      dx2y2   :     0.003191
      dxy     :     0.052560
  2 C s       :     2.959386  s :     2.959386
      pz      :     0.995828  p :     2.997103
      px      :     0.733816
      py      :     1.267459
      dz2     :     0.028683  d :     0.286475
      dxz     :     0.010213
      dyz     :     0.116895
      dx2y2   :     0.085374
      dxy     :     0.045310
  3 N s       :     3.546204  s :     3.546204
      pz      :     1.174911  p :     3.940832
      px      :     1.249813
      py      :     1.516108
      dz2     :    -0.003792  d :     0.023081
      dxz     :     0.008819
      dyz     :    -0.003757
      dx2y2   :     0.014912
      dxy     :     0.006897
  4 N s       :     3.440788  s :     3.440788
      pz      :     1.736283  p :     3.906672
      px      :     1.132213
      py      :     1.038175
      dz2     :     0.004359  d :     0.026009
      dxz     :     0.013840
      dyz     :     0.001951
      dx2y2   :     0.007915
      dxy     :    -0.002056
  5 N s       :     3.482353  s :     3.482353
      pz      :     1.180730  p :     3.903274
      px      :     1.190264
      py      :     1.532280
      dz2     :    -0.002467  d :     0.009410
      dxz     :     0.006430
      dyz     :    -0.001808
      dx2y2   :     0.015042
      dxy     :    -0.007788
  6 H s       :     1.061404  s :     1.061404
      pz      :    -0.025238  p :    -0.032116
      px      :     0.006669
      py      :    -0.013548
  7 H s       :     1.189258  s :     1.189258
      pz      :    -0.001420  p :    -0.025908
      px      :    -0.004039
      py      :    -0.020449
  8 H s       :     1.082215  s :     1.082215
      pz      :    -0.000851  p :    -0.021676
      px      :    -0.003037
      py      :    -0.017788
  9 H s       :     1.158053  s :     1.158053
      pz      :    -0.021888  p :    -0.035281
      px      :     0.003925
      py      :    -0.017317
 10 H s       :     1.231190  s :     1.231190
      pz      :    -0.026138  p :    -0.032959
      px      :     0.004632
      py      :    -0.011454
 11 H s       :     0.970724  s :     0.970724
      pz      :     0.006240  p :     0.051065
      px      :     0.005187
      py      :     0.039637
 12 H s       :     0.912752  s :     0.912752
      pz      :     0.034831  p :     0.044724
      px      :    -0.006612
      py      :     0.016505
 13 H s       :     0.981077  s :     0.981077
      pz      :     0.031184  p :     0.053073
      px      :    -0.001282
      py      :     0.023171
 14 H s       :     0.865993  s :     0.865993
      pz      :     0.023028  p :     0.055274
      px      :     0.009514
      py      :     0.022733
 15 H s       :     0.915259  s :     0.915259
      pz      :     0.036748  p :     0.047717
      px      :    -0.007799
      py      :     0.018767
 16 H s       :     0.985931  s :     0.985931
      pz      :     0.012962  p :     0.058932
      px      :     0.009185
      py      :     0.036786


                     *******************************
                     * LOEWDIN POPULATION ANALYSIS *
                     *******************************

----------------------
LOEWDIN ATOMIC CHARGES
----------------------
   0 C :   -0.037267
   1 C :   -0.044612
   2 C :   -0.245766
   3 N :    0.192939
   4 N :    0.184343
   5 N :    0.200849
   6 H :    0.009787
   7 H :    0.013327
   8 H :    0.012106
   9 H :    0.006413
  10 H :    0.039946
  11 H :   -0.050202
  12 H :   -0.039841
  13 H :   -0.056017
  14 H :   -0.090808
  15 H :   -0.046847
  16 H :   -0.048351

-------------------------------
LOEWDIN REDUCED ORBITAL CHARGES
-------------------------------
  0 C s       :     2.561587  s :     2.561587
      pz      :     0.902055  p :     2.621887
      px      :     0.809927
      py      :     0.909905
      dz2     :     0.176639  d :     0.853793
      dxz     :     0.143218
      dyz     :     0.095971
      dx2y2   :     0.203926
      dxy     :     0.234039
  1 C s       :     2.563649  s :     2.563649
      pz      :     0.892880  p :     2.622736
      px      :     0.826926
      py      :     0.902931
      dz2     :     0.229168  d :     0.858226
      dxz     :     0.158198
      dyz     :     0.095825
      dx2y2   :     0.158101
      dxy     :     0.216935
  2 C s       :     2.547951  s :     2.547951
      pz      :     0.895627  p :     2.606732
      px      :     0.806753
      py      :     0.904351
      dz2     :     0.235480  d :     1.091084
      dxz     :     0.157290
      dyz     :     0.156043
      dx2y2   :     0.276159
      dxy     :     0.266112
  3 N s       :     2.881290  s :     2.881290
      pz      :     1.138011  p :     3.597481
      px      :     1.152795
      py      :     1.306675
      dz2     :     0.071381  d :     0.328289
      dxz     :     0.086902
      dyz     :     0.014830
      dx2y2   :     0.071115
      dxy     :     0.084062
  4 N s       :     2.882488  s :     2.882488
      pz      :     1.424458  p :     3.607833
      px      :     1.085576
      py      :     1.097799
      dz2     :     0.045064  d :     0.325336
      dxz     :     0.066558
      dyz     :     0.027826
      dx2y2   :     0.076120
      dxy     :     0.109768
  5 N s       :     2.880012  s :     2.880012
      pz      :     1.139619  p :     3.592074
      px      :     1.120071
      py      :     1.332384
      dz2     :     0.071857  d :     0.327066
      dxz     :     0.086718
      dyz     :     0.012515
      dx2y2   :     0.062227
      dxy     :     0.093748
  6 H s       :     0.736034  s :     0.736034
      pz      :     0.079502  p :     0.254179
      px      :     0.070126
      py      :     0.104550
  7 H s       :     0.733006  s :     0.733006
      pz      :     0.136976  p :     0.253667
      px      :     0.052064
      py      :     0.064628
  8 H s       :     0.737740  s :     0.737740
      pz      :     0.136357  p :     0.250154
      px      :     0.049909
      py      :     0.063887
  9 H s       :     0.737004  s :     0.737004
      pz      :     0.071058  p :     0.256583
      px      :     0.084086
      py      :     0.101439
 10 H s       :     0.720068  s :     0.720068
      pz      :     0.130536  p :     0.239987
      px      :     0.052745
      py      :     0.056705
 11 H s       :     0.674762  s :     0.674762
      pz      :     0.103037  p :     0.375440
      px      :     0.095929
      py      :     0.176475
 12 H s       :     0.670265  s :     0.670265
      pz      :     0.181432  p :     0.369575
      px      :     0.083565
      py      :     0.104579
 13 H s       :     0.678555  s :     0.678555
      pz      :     0.143796  p :     0.377462
      px      :     0.082924
      py      :     0.150742
 14 H s       :     0.659612  s :     0.659612
      pz      :     0.135009  p :     0.431197
      px      :     0.120736
      py      :     0.175452
 15 H s       :     0.669442  s :     0.669442
      pz      :     0.183447  p :     0.377405
      px      :     0.081508
      py      :     0.112450
 16 H s       :     0.671404  s :     0.671404
      pz      :     0.102168  p :     0.376947
      px      :     0.100007
      py      :     0.174771


                      *****************************
                      * MAYER POPULATION ANALYSIS *
                      *****************************

  NA   - Mulliken gross atomic population
  ZA   - Total nuclear charge
  QA   - Mulliken gross atomic charge
  VA   - Mayer's total valence
  BVA  - Mayer's bonded valence
  FA   - Mayer's free valence

  ATOM       NA         ZA         QA         VA         BVA        FA
  0 C      4.9474     6.0000     1.0526     3.3160     3.3160    -0.0000
  1 C      5.0143     6.0000     0.9857     3.5037     3.5037     0.0000
  2 C      6.2430     6.0000    -0.2430     4.9298     4.9298     0.0000
  3 N      7.5101     7.0000    -0.5101     3.0360     3.0360     0.0000
  4 N      7.3735     7.0000    -0.3735     2.9137     2.9137     0.0000
  5 N      7.3950     7.0000    -0.3950     2.8605     2.8605    -0.0000
  6 H      1.0293     1.0000    -0.0293     0.7388     0.7388     0.0000
  7 H      1.1634     1.0000    -0.1634     0.7762     0.7762     0.0000
  8 H      1.0605     1.0000    -0.0605     0.8017     0.8017     0.0000
  9 H      1.1228     1.0000    -0.1228     0.7226     0.7226    -0.0000
 10 H      1.1982     1.0000    -0.1982     0.7360     0.7360     0.0000
 11 H      1.0218     1.0000    -0.0218     1.0101     1.0101     0.0000
 12 H      0.9575     1.0000     0.0425     0.9732     0.9732     0.0000
 13 H      1.0341     1.0000    -0.0341     1.0130     1.0130    -0.0000
 14 H      0.9213     1.0000     0.0787     0.9645     0.9645    -0.0000
 15 H      0.9630     1.0000     0.0370     0.9716     0.9716    -0.0000
 16 H      1.0449     1.0000    -0.0449     1.0258     1.0258    -0.0000

  Mayer bond orders larger than 0.100000
B(  0-C ,  1-C ) :  -0.1150 B(  0-C ,  2-C ) :   1.3674 B(  0-C ,  3-N ) :   0.7988 
B(  0-C ,  5-N ) :  -0.1190 B(  0-C ,  6-H ) :   0.8060 B(  0-C ,  7-H ) :   0.8109 
B(  1-C ,  2-C ) :   1.2961 B(  1-C ,  4-N ) :   0.8945 B(  1-C ,  8-H ) :   0.7993 
B(  1-C ,  9-H ) :   0.8089 B(  2-C ,  5-N ) :   0.9875 B(  2-C ,  6-H ) :   0.1242 
B(  2-C ,  7-H ) :   0.1756 B(  2-C ,  8-H ) :   0.1237 B(  2-C , 10-H ) :   0.6766 
B(  3-N , 11-H ) :   1.0734 B(  3-N , 12-H ) :   1.0756 B(  4-N , 13-H ) :   1.0633 
B(  4-N , 14-H ) :   1.0132 B(  5-N , 15-H ) :   1.0367 B(  5-N , 16-H ) :   1.0526 
B(  6-H ,  7-H ) :  -0.1223 B(  8-H ,  9-H ) :  -0.1246 

-------
TIMINGS
-------

Total SCF time: 0 days 0 hours 0 min 21 sec 

Total time                  ....      21.625 sec
Sum of individual times     ....      21.138 sec  ( 97.8%)

Fock matrix formation       ....      20.616 sec  ( 95.3%)
Diagonalization             ....       0.120 sec  (  0.6%)
Density matrix formation    ....       0.015 sec  (  0.1%)
Population analysis         ....       0.106 sec  (  0.5%)
Initial guess               ....       0.088 sec  (  0.4%)
Orbital Transformation      ....       0.000 sec  (  0.0%)
Orbital Orthonormalization  ....       0.000 sec  (  0.0%)
DIIS solution               ....       0.068 sec  (  0.3%)
SOSCF solution              ....       0.060 sec  (  0.3%)

Maximum memory used throughout the entire SCF-calculation: 233.9 MB


           ************************************************************
           *        Program running with 16 parallel MPI-processes    *
           *              working on a common directory               *
           ************************************************************

------------------------------------------------------------------------------
                                ORCA  MP2 
------------------------------------------------------------------------------

Freezing NCore=12 chemical core electrons

-------------
RI-MP2 ENERGY
-------------
Dimension of the basis                    ...  237
Memory devoted to MP2                     ...  256 MB   
Data format for buffers                   ... DOUBLE
Compression type for matrix containers    ... UNCOMPRESSED
Overall scaling of the MP2 energy         ...   1.000e+00
Calculating two index integrals           ... done (    0.003 sec)
Cholesky decomposition of V**-1           ... done (    0.048 sec)

-----------------
RI-TRANSFORMATION (AUX index driven)
-----------------

Dimension of the orbital-basis         ... 237
Dimension of the aux-basis             ... 685
Transformation of internal/external MOs...    6-  24 to   25- 236
Number Format for Storage              ... Double (8 Byte)
Integral mode                          ... Direct

First Phase: integral generation and transformation of MO indices
  Aux angular momentum 0               ... done (    0.015 sec)
  Aux angular momentum 1               ... done (    0.024 sec)
  Aux angular momentum 2               ... done (    0.031 sec)
  Aux angular momentum 3               ... done (    0.019 sec)
Closing buffer VIA ( 0.02 GB; CompressionRatio= 1.00)
  Phase 1 completed in     0.189 sec
Second Phase: sorting and transformation of aux index

IA-Transformation
Memory available                       ... 209 MB 
Max. # MO pairs treated in a batch     ... 2    
# of internal orbitals                 ... 19
# batches for internal orbitals        ... 1
Closing buffer IAV ( 0.02 GB; CompressionRatio= 1.00)
(ia|v) transformation done in     0.028 sec

  Phase 2 completed in     0.065 sec
RI-Integral transformation completed in     0.261 sec
Opening buffers                              ... done

Starting loop over batches of integrals:

Operator 0  - window                       ... (  6- 24)x( 25-236)
Operator 0  - Memory available             ...   256 MB
Operator 0  - Memory needed per MO         ...   1.1 MB
Operator 0  - Number of orbitals per batch ... 2
Operator 0  - Number of batches            ... 1

OPERATOR  0   PASS   0:  MOs     6 ...    7 +    8 ...    9 +   10 ...   11 +   12 ...   13
                            +   14 ...   15 +   16 ...   17 +   18 ...   19 +   20 ...   21
                            +   22 ...   23 +   24 ...   24
  Reading integrals       ... ok
Time spent in pair loops =     0.009 sec
Deleting buffer (Ka|jb)[aa] ...done

-----------------------------------------------
 RI-MP2 CORRELATION ENERGY:     -0.998624766 Eh
-----------------------------------------------


-------
TIMINGS
-------

Total time                :    0.404 sec
Integral trafo            :    0.269 sec ( 66.6%)
I/O of integrals          :    0.001 sec (  0.2%)
K(i,j) Operators          :    0.005 sec (  1.3%)
T(i,j) pair energies      :    0.001 sec (  0.1%)
V-calculation             :    0.003 sec (  0.7%)
V**(-1/2)                 :    0.048 sec ( 11.8%)
Gamma(ia|P)               :    0.000 sec (  0.0%)
Gamma-Trafo               :    0.000 sec (  0.0%)
D(virtual)                :    0.000 sec (  0.0%)
D(internal)               :    0.000 sec (  0.0%)
W(virtual)                :    0.000 sec (  0.0%)
W(internal)               :    0.000 sec (  0.0%)
L(virtual)                :    0.000 sec (  0.0%)
L(internal)               :    0.000 sec (  0.0%)
G(D)                      :    0.000 sec (  0.0%)
G(Z)                      :    0.000 sec (  0.0%)
Z-Vector Solution         :    0.000 sec (  0.0%)
3-Index Derivative        :    0.000 sec (  0.0%)
2-Index Derivative        :    0.000 sec (  0.0%)
Separable Gradient        :    0.000 sec (  0.0%)


---------------------------------------
MP2 TOTAL ENERGY:     -284.380989622 Eh
---------------------------------------

Maximum memory used throughout the entire MP2-calculation: 92.2 MB

-------------------------   --------------------
FINAL SINGLE POINT ENERGY      -284.380989621945
-------------------------   --------------------


                            ***************************************
                            *     ORCA property calculations      *
                            ***************************************


  WARNING: The energy has been calculated at the MP2 level but the densities
           used in the property calculations are still SCF densities
           MP2 response densities have not been calculated 
           use %mp2 Density relaxed end
           or  %mp2 Density unrelaxed end

                                    ---------------------
                                    Active property flags
                                    ---------------------
   (+) Dipole Moment


------------------------------------------------------------------------------
                       ORCA ELECTRIC PROPERTIES CALCULATION
------------------------------------------------------------------------------

Dipole Moment Calculation                       ... on
Quadrupole Moment Calculation                   ... off
Polarizability Calculation                      ... off
GBWName                                         ... DZ_propane-1,2,3-triamine.gbw
Electron density                                ... DZ_propane-1,2,3-triamine.scfp
The origin for moment calculation is the CENTER OF MASS  = ( 0.001339,  0.001148 -0.023152)

-------------
DIPOLE MOMENT
-------------
                                X             Y             Z
Electronic contribution:      0.00936      -0.04690      -0.67491
Nuclear contribution   :     -0.06696      -0.05741       1.15757
                        -----------------------------------------
Total Dipole Moment    :     -0.05761      -0.10431       0.48265
                        -----------------------------------------
Magnitude (a.u.)       :      0.49715
Magnitude (Debye)      :      1.26364



--------------------
Rotational spectrum 
--------------------
 
Rotational constants in cm-1:     0.120876     0.108304     0.062014 
Rotational constants in MHz :  3623.779238  3246.869086  1859.139616 

 Dipole components along the rotational axes: 
x,y,z [a.u.] :    -0.044844    -0.116038     0.481330 
x,y,z [Debye]:    -0.113984    -0.294945     1.223443 

 

Timings for individual modules:

Sum of individual times         ...       53.501 sec (=   0.892 min)
GTO integral calculation        ...       17.628 sec (=   0.294 min)  32.9 %
SCF iterations                  ...       30.249 sec (=   0.504 min)  56.5 %
MP2 module                      ...        5.623 sec (=   0.094 min)  10.5 %
                             ****ORCA TERMINATED NORMALLY****
TOTAL RUN TIME: 0 days 0 hours 1 minutes 2 seconds 787 msec
