
                                 *****************
                                 * O   R   C   A *
                                 *****************

                                            #,                                       
                                            ###                                      
                                            ####                                     
                                            #####                                    
                                            ######                                   
                                           ########,                                 
                                     ,,################,,,,,                         
                               ,,#################################,,                 
                          ,,##########################################,,             
                       ,#########################################, ''#####,          
                    ,#############################################,,   '####,        
                  ,##################################################,,,,####,       
                ,###########''''           ''''###############################       
              ,#####''   ,,,,##########,,,,          '''####'''          '####       
            ,##' ,,,,###########################,,,                        '##       
           ' ,,###''''                  '''############,,,                           
         ,,##''                                '''############,,,,        ,,,,,,###''
      ,#''                                            '''#######################'''  
     '                                                          ''''####''''         
             ,#######,   #######,   ,#######,      ##                                
            ,#'     '#,  ##    ##  ,#'     '#,    #''#        ######   ,####,        
            ##       ##  ##   ,#'  ##            #'  '#       #        #'  '#        
            ##       ##  #######   ##           ,######,      #####,   #    #        
            '#,     ,#'  ##    ##  '#,     ,#' ,#      #,         ##   #,  ,#        
             '#######'   ##     ##  '#######'  #'      '#     #####' # '####'        



                  #######################################################
                  #                        -***-                        #
                  #          Department of theory and spectroscopy      #
                  #    Directorship and core code : Frank Neese         #
                  #        Max Planck Institute fuer Kohlenforschung    #
                  #                Kaiser Wilhelm Platz 1               #
                  #                 D-45470 Muelheim/Ruhr               #
                  #                      Germany                        #
                  #                                                     #
                  #                  All rights reserved                #
                  #                        -***-                        #
                  #######################################################


                         Program Version 5.0.3 -  RELEASE  -


 With contributions from (in alphabetic order):
   Daniel Aravena         : Magnetic Suceptibility
   Michael Atanasov       : Ab Initio Ligand Field Theory (pilot matlab implementation)
   Alexander A. Auer      : GIAO ZORA, VPT2 properties, NMR spectrum
   Ute Becker             : Parallelization
   Giovanni Bistoni       : ED, misc. LED, open-shell LED, HFLD
   Martin Brehm           : Molecular dynamics
   Dmytro Bykov           : SCF Hessian
   Vijay G. Chilkuri      : MRCI spin determinant printing, contributions to CSF-ICE
   Dipayan Datta          : RHF DLPNO-CCSD density
   Achintya Kumar Dutta   : EOM-CC, STEOM-CC
   Dmitry Ganyushin       : Spin-Orbit,Spin-Spin,Magnetic field MRCI
   Miquel Garcia          : C-PCM and meta-GGA Hessian, CC/C-PCM, Gaussian charge scheme
   Yang Guo               : DLPNO-NEVPT2, F12-NEVPT2, CIM, IAO-localization
   Andreas Hansen         : Spin unrestricted coupled pair/coupled cluster methods
   Benjamin Helmich-Paris : MC-RPA, TRAH-SCF, COSX integrals
   Lee Huntington         : MR-EOM, pCC
   Robert Izsak           : Overlap fitted RIJCOSX, COSX-SCS-MP3, EOM
   Marcus Kettner         : VPT2
   Christian Kollmar      : KDIIS, OOCD, Brueckner-CCSD(T), CCSD density, CASPT2, CASPT2-K
   Simone Kossmann        : Meta GGA functionals, TD-DFT gradient, OOMP2, MP2 Hessian
   Martin Krupicka        : Initial AUTO-CI
   Lucas Lang             : DCDCAS
   Marvin Lechner         : AUTO-CI (C++ implementation), FIC-MRCC
   Dagmar Lenk            : GEPOL surface, SMD
   Dimitrios Liakos       : Extrapolation schemes; Compound Job, initial MDCI parallelization
   Dimitrios Manganas     : Further ROCIS development; embedding schemes
   Dimitrios Pantazis     : SARC Basis sets
   Anastasios Papadopoulos: AUTO-CI, single reference methods and gradients
   Taras Petrenko         : DFT Hessian,TD-DFT gradient, ASA, ECA, R-Raman, ABS, FL, XAS/XES, NRVS
   Peter Pinski           : DLPNO-MP2, DLPNO-MP2 Gradient
   Christoph Reimann      : Effective Core Potentials
   Marius Retegan         : Local ZFS, SOC
   Christoph Riplinger    : Optimizer, TS searches, QM/MM, DLPNO-CCSD(T), (RO)-DLPNO pert. Triples
   Tobias Risthaus        : Range-separated hybrids, TD-DFT gradient, RPA, STAB
   Michael Roemelt        : Original ROCIS implementation
   Masaaki Saitow         : Open-shell DLPNO-CCSD energy and density
   Barbara Sandhoefer     : DKH picture change effects
   Avijit Sen             : IP-ROCIS
   Kantharuban Sivalingam : CASSCF convergence, NEVPT2, FIC-MRCI
   Bernardo de Souza      : ESD, SOC TD-DFT
   Georgi Stoychev        : AutoAux, RI-MP2 NMR, DLPNO-MP2 response
   Willem Van den Heuvel  : Paramagnetic NMR
   Boris Wezisla          : Elementary symmetry handling
   Frank Wennmohs         : Technical directorship


 We gratefully acknowledge several colleagues who have allowed us to
 interface, adapt or use parts of their codes:
   Stefan Grimme, W. Hujo, H. Kruse, P. Pracht,  : VdW corrections, initial TS optimization,
                  C. Bannwarth, S. Ehlert          DFT functionals, gCP, sTDA/sTD-DF
   Ed Valeev, F. Pavosevic, A. Kumar             : LibInt (2-el integral package), F12 methods
   Garnet Chan, S. Sharma, J. Yang, R. Olivares  : DMRG
   Ulf Ekstrom                                   : XCFun DFT Library
   Mihaly Kallay                                 : mrcc  (arbitrary order and MRCC methods)
   Jiri Pittner, Ondrej Demel                    : Mk-CCSD
   Frank Weinhold                                : gennbo (NPA and NBO analysis)
   Christopher J. Cramer and Donald G. Truhlar   : smd solvation model
   Lars Goerigk                                  : TD-DFT with DH, B97 family of functionals
   V. Asgeirsson, H. Jonsson                     : NEB implementation
   FAccTs GmbH                                   : IRC, NEB, NEB-TS, DLPNO-Multilevel, CI-OPT
                                                   MM, QMMM, 2- and 3-layer-ONIOM, Crystal-QMMM,
                                                   LR-CPCM, SF, NACMEs, symmetry and pop. for TD-DFT,
                                                   nearIR, NL-DFT gradient (VV10), updates on ESD,
                                                   ML-optimized integration grids
   S Lehtola, MJT Oliveira, MAL Marques          : LibXC Library
   Liviu Ungur et al                             : ANISO software


 Your calculation uses the libint2 library for the computation of 2-el integrals
 For citations please refer to: http://libint.valeyev.net

 Your ORCA version has been built with support for libXC version: 5.1.0
 For citations please refer to: https://tddft.org/programs/libxc/

 This ORCA versions uses:
   CBLAS   interface :  Fast vector & matrix operations
   LAPACKE interface :  Fast linear algebra routines
   SCALAPACK package :  Parallel linear algebra routines
   Shared memory     :  Shared parallel matrices
   BLAS/LAPACK       :  OpenBLAS 0.3.15  USE64BITINT DYNAMIC_ARCH NO_AFFINITY SkylakeX SINGLE_THREADED
        Core in use  :  SkylakeX
   Copyright (c) 2011-2014, The OpenBLAS Project


================================================================================

----- Orbital basis set information -----
Your calculation utilizes the basis: aug-cc-pVDZ 
    H, B-Ne : Obtained from the ccRepo (grant-hill.group.shef.ac.uk/ccrepo) Feb. 2017
              R. A. Kendall, T. H. Dunning, Jr., R. J. Harrison, J. Chem. Phys. 96, 6796 (1992)
         He : Obtained from the ccRepo (grant-hill.group.shef.ac.uk/ccrepo) Feb. 2017
              D. E. Woon, T. H. Dunning, Jr., J. Chem. Phys. 100, 2975 (1994)
  Li-Be, Na : Obtained from the ccRepo (grant-hill.group.shef.ac.uk/ccrepo) Feb. 2017
              B. P. Prascher, D. E. Woon, K. A. Peterson, T. H. Dunning, Jr., A. K. Wilson, Theor. Chem. Acc. 128, 69 (2011)
         Mg : Obtained from the Peterson Research Group Website (tyr0.chem.wsu.edu/~kipeters) Feb. 2017
              B. P. Prascher, D. E. Woon, K. A. Peterson, T. H. Dunning, Jr., A. K. Wilson, Theor. Chem. Acc. 128, 69 (2011)
      Al-Ar : Obtained from the ccRepo (grant-hill.group.shef.ac.uk/ccrepo) Feb. 2017
              D. E. Woon, T. H. Dunning, Jr., J. Chem. Phys. 98, 1358 (1993)
      Sc-Zn : Obtained from the ccRepo (grant-hill.group.shef.ac.uk/ccrepo) Feb. 2017
              N. B. Balabanov, K. A. Peterson, J. Chem. Phys. 123, 064107 (2005)
              N. B. Balabanov, K. A. Peterson, J. Chem. Phys. 125, 074110 (2006)
      Ga-Kr : Obtained from the ccRepo (grant-hill.group.shef.ac.uk/ccrepo) Feb. 2017
              A. K. Wilson, D. E. Woon, K. A. Peterson, T. H. Dunning, Jr., J. Chem. Phys. 110, 7667 (1999)

----- AuxC basis set information -----
Your calculation utilizes the auxiliary basis: aug-cc-pVDZ/C 
  H-He, B, Ne, Al-Ar, Ga-Ge, Se-Br : Obtained from the EMSL Basis Set Exchange (bse.pnl.gov) Feb. 2017
                                     F. Weigend, A. Kohn, C. Hattig, J. Chem. Phys. 116, 3175 (2002)
                            Be, Mg : Obtained from the TURBOMOLE 7.0 basis set library
                                     C. Haettig, Phys. Chem. Chem. Phys. 7, 59 (2005)
                               C-F : Obtained from the EMSL Basis Set Exchange (bse.pnl.gov) Feb. 2017
                                     C. Haettig, Phys. Chem. Chem. Phys. 7, 59 (2005)
                                     F. Weigend, A. Kohn, C. Hattig, J. Chem. Phys. 116, 3175 (2002)
                                As : Obtained from the EMSL Basis Set Exchange (bse.pnl.gov) Feb. 2017
                                     C. Haettig, G. Schmitz, J. Kossmann, Phys. Chem. Chem. Phys. 14, 6549 (2012)
                                Kr : Obtained from the TURBOMOLE 7.0 basis set library
                                     F. Weigend, A. Kohn, C. Hattig, J. Chem. Phys. 116, 3175 (2002)
                                     S function revised in Sep. 2009

================================================================================
                                        WARNINGS
                       Please study these warnings very carefully!
================================================================================


WARNING: No MP2 level density has been requested!
         To caclulate MP2 level properties use
         %mp2 Density relaxed end
         or
         %mp2 Density unrelaxed end

WARNING: Post HF methods need fully converged wavefunctions
  ===> : Setting SCFConvForced true
         You can overwrite this default with %scf ConvForced false 


INFO   : the flag for use of the SHARK integral package has been found!

================================================================================
                                       INPUT FILE
================================================================================
NAME = DZ_trans-dithiocyanatoethene.inp
|  1> !ri-mp2 aug-cc-pvdz aug-cc-pvdz/c tightscf
|  2> %pal nprocs 16 end
|  3> 
|  4> * xyz 0 1
|  5> S      2.050341    0.742508   -0.499891
|  6> S     -2.050342   -0.742503   -0.499907
|  7> N      3.923970   -0.715598    1.081612
|  8> N     -3.923966    0.715581    1.081626
|  9> C      0.603325   -0.276815   -0.332055
| 10> C     -0.603328    0.276827   -0.332072
| 11> C      3.140682   -0.141456    0.456341
| 12> C     -3.140681    0.141447    0.456343
| 13> H      0.769347   -1.345261   -0.318590
| 14> H     -0.769353    1.345273   -0.318638
| 15> *
| 16> 
| 17>                          ****END OF INPUT****
================================================================================

                       ****************************
                       * Single Point Calculation *
                       ****************************

---------------------------------
CARTESIAN COORDINATES (ANGSTROEM)
---------------------------------
  S      2.050341    0.742508   -0.499891
  S     -2.050342   -0.742503   -0.499907
  N      3.923970   -0.715598    1.081612
  N     -3.923966    0.715581    1.081626
  C      0.603325   -0.276815   -0.332055
  C     -0.603328    0.276827   -0.332072
  C      3.140682   -0.141456    0.456341
  C     -3.140681    0.141447    0.456343
  H      0.769347   -1.345261   -0.318590
  H     -0.769353    1.345273   -0.318638

----------------------------
CARTESIAN COORDINATES (A.U.)
----------------------------
  NO LB      ZA    FRAG     MASS         X           Y           Z
   0 S    16.0000    0    32.060    3.874583    1.403137   -0.944657
   1 S    16.0000    0    32.060   -3.874585   -1.403127   -0.944687
   2 N     7.0000    0    14.007    7.415229   -1.352284    2.043950
   3 N     7.0000    0    14.007   -7.415221    1.352252    2.043977
   4 C     6.0000    0    12.011    1.140119   -0.523105   -0.627493
   5 C     6.0000    0    12.011   -1.140125    0.523127   -0.627525
   6 C     6.0000    0    12.011    5.935029   -0.267313    0.862360
   7 C     6.0000    0    12.011   -5.935027    0.267296    0.862363
   8 H     1.0000    0     1.008    1.453855   -2.542175   -0.602048
   9 H     1.0000    0     1.008   -1.453866    2.542198   -0.602139

--------------------------------
INTERNAL COORDINATES (ANGSTROEM)
--------------------------------
 S      0   0   0     0.000000000000     0.00000000     0.00000000
 S      1   0   0     4.361290948431     0.00000000     0.00000000
 N      1   2   0     2.852667256426   116.32822412     0.00000000
 N      2   1   3     2.852669359481   116.32800569   103.57733120
 C      1   2   3     1.777932396207    16.16652665    18.39153043
 C      5   1   2     1.327603452414   120.04229718   344.05108718
 C      3   1   2     1.155051059715     1.64465647   346.75827405
 C      4   2   1     1.155051544854     1.64460079   346.75779697
 H      5   1   2     1.081351684525   116.27605239   159.02317096
 H      6   5   1     1.081351759557   123.47639282   352.88515074

---------------------------
INTERNAL COORDINATES (A.U.)
---------------------------
 S      0   0   0     0.000000000000     0.00000000     0.00000000
 S      1   0   0     8.241645482884     0.00000000     0.00000000
 N      1   2   0     5.390759865850   116.32822412     0.00000000
 N      2   1   3     5.390763840047   116.32800569   103.57733120
 C      1   2   3     3.359805313457    16.16652665    18.39153043
 C      5   1   2     2.508806939511   120.04229718   344.05108718
 C      3   1   2     2.182730173557     1.64465647   346.75827405
 C      4   2   1     2.182731090337     1.64460079   346.75779697
 H      5   1   2     2.043458538207   116.27605239   159.02317096
 H      6   5   1     2.043458679997   123.47639282   352.88515074

---------------------
BASIS SET INFORMATION
---------------------
There are 4 groups of distinct atoms

 Group   1 Type S   : 35s16p2d contracted to 5s4p2d pattern {11111111/7711/11}
 Group   2 Type N   : 18s5p2d contracted to 4s3p2d pattern {8811/311/11}
 Group   3 Type C   : 18s5p2d contracted to 4s3p2d pattern {8811/311/11}
 Group   4 Type H   : 5s2p contracted to 3s2p pattern {311/11}

Atom   0S    basis set group =>   1
Atom   1S    basis set group =>   1
Atom   2N    basis set group =>   2
Atom   3N    basis set group =>   2
Atom   4C    basis set group =>   3
Atom   5C    basis set group =>   3
Atom   6C    basis set group =>   3
Atom   7C    basis set group =>   3
Atom   8H    basis set group =>   4
Atom   9H    basis set group =>   4
---------------------------------
AUXILIARY/C BASIS SET INFORMATION
---------------------------------
There are 4 groups of distinct atoms

 Group   1 Type S   : 10s8p6d4f contracted to 10s8p6d4f pattern {1111111111/11111111/111111/1111}
 Group   2 Type N   : 8s6p5d3f contracted to 8s6p5d3f pattern {11111111/111111/11111/111}
 Group   3 Type C   : 8s6p5d3f contracted to 8s6p5d3f pattern {11111111/111111/11111/111}
 Group   4 Type H   : 4s3p2d contracted to 4s3p2d pattern {1111/111/11}

Atom   0S    basis set group =>   1
Atom   1S    basis set group =>   1
Atom   2N    basis set group =>   2
Atom   3N    basis set group =>   2
Atom   4C    basis set group =>   3
Atom   5C    basis set group =>   3
Atom   6C    basis set group =>   3
Atom   7C    basis set group =>   3
Atom   8H    basis set group =>   4
Atom   9H    basis set group =>   4


           ************************************************************
           *        Program running with 16 parallel MPI-processes    *
           *              working on a common directory               *
           ************************************************************
------------------------------------------------------------------------------
                           ORCA GTO INTEGRAL CALCULATION
------------------------------------------------------------------------------
------------------------------------------------------------------------------
                   ___                                                        
                  /   \      - P O W E R E D   B Y -                         
                 /     \                                                     
                 |  |  |   _    _      __       _____    __    __             
                 |  |  |  | |  | |    /  \     |  _  \  |  |  /  |          
                  \  \/   | |  | |   /    \    | | | |  |  | /  /          
                 / \  \   | |__| |  /  /\  \   | |_| |  |  |/  /          
                |  |  |   |  __  | /  /__\  \  |    /   |      \           
                |  |  |   | |  | | |   __   |  |    \   |  |\   \          
                \     /   | |  | | |  |  |  |  | |\  \  |  | \   \       
                 \___/    |_|  |_| |__|  |__|  |_| \__\ |__|  \__/        
                                                                              
                      - O R C A' S   B I G   F R I E N D -                    
                                      &                                       
                       - I N T E G R A L  F E E D E R -                       
                                                                              
 v1 FN, 2020, v2 2021                                                         
------------------------------------------------------------------------------


Reading SHARK input file DZ_trans-dithiocyanatoethene.SHARKINP.tmp ... ok
----------------------
SHARK INTEGRAL PACKAGE
----------------------

Number of atoms                             ...     10
Number of basis functions                   ...    292
Number of shells                            ...    148
Maximum angular momentum                    ...      2
Integral batch strategy                     ... SHARK/LIBINT Hybrid
RI-J (if used) integral strategy            ... SPLIT-RIJ (Revised 2003 algorithm where possible)
Printlevel                                  ...      1
Contraction scheme used                     ... PARTIAL GENERAL contraction
Coulomb Range Separation                    ... NOT USED
Exchange Range Separation                   ... NOT USED
Finite Nucleus Model                        ... NOT USED
Auxiliary Coulomb fitting basis             ... NOT available
Auxiliary J/K fitting basis                 ... NOT available
Auxiliary Correlation fitting basis         ... AVAILABLE
   # of basis functions in Aux-C            ...    662
   # of shells in Aux-C                     ...    206
   Maximum angular momentum in Aux-C        ...      3
Auxiliary 'external' fitting basis          ... NOT available
Integral threshold                          ...     2.500000e-11
Primitive cut-off                           ...     2.500000e-12
Primitive pair pre-selection threshold      ...     2.500000e-12

Calculating pre-screening integrals         ... done (  0.0 sec) Dimension = 148
Calculating pre-screening integrals (ORCA)  ... done (  0.1 sec) Dimension = 86
Organizing shell pair data                  ... done (  0.0 sec)
Shell pair information
Total number of shell pairs                 ...     11026
Shell pairs after pre-screening             ...      7747
Total number of primitive shell pairs       ...     13554
Primitive shell pairs kept                  ...      9081
          la=0 lb=0:   2363 shell pairs
          la=1 lb=0:   2730 shell pairs
          la=1 lb=1:    734 shell pairs
          la=2 lb=0:   1210 shell pairs
          la=2 lb=1:    582 shell pairs
          la=2 lb=2:    128 shell pairs

Calculating one electron integrals          ... done (  0.0 sec)
Calculating RI/C V-Matrix + Cholesky decomp.... done (  0.0 sec)
Calculating Nuclear repulsion               ... done (  0.0 sec) ENN=    405.559522777567 Eh

SHARK setup successfully completed in   0.3 seconds

Maximum memory used throughout the entire GTOINT-calculation: 30.7 MB


           ************************************************************
           *        Program running with 16 parallel MPI-processes    *
           *              working on a common directory               *
           ************************************************************
-------------------------------------------------------------------------------
                                 ORCA SCF
-------------------------------------------------------------------------------

------------
SCF SETTINGS
------------
Hamiltonian:
 Ab initio Hamiltonian  Method          .... Hartree-Fock(GTOs)


General Settings:
 Integral files         IntName         .... DZ_trans-dithiocyanatoethene
 Hartree-Fock type      HFTyp           .... RHF
 Total Charge           Charge          ....    0
 Multiplicity           Mult            ....    1
 Number of Electrons    NEL             ....   72
 Basis Dimension        Dim             ....  210
 Nuclear Repulsion      ENuc            ....    405.5595227776 Eh

Convergence Acceleration:
 DIIS                   CNVDIIS         .... on
   Start iteration      DIISMaxIt       ....    12
   Startup error        DIISStart       ....  0.200000
   # of expansion vecs  DIISMaxEq       ....     5
   Bias factor          DIISBfac        ....   1.050
   Max. coefficient     DIISMaxC        ....  10.000
 Trust-Rad. Augm. Hess. CNVTRAH         .... auto
   Auto Start mean grad. ratio tolernc. ....  1.125000
   Auto Start start iteration           ....    20
   Auto Start num. interpolation iter.  ....    10
   Max. Number of Micro iterations      ....    16
   Max. Number of Macro iterations      .... Maxiter - #DIIS iter
   Number of Davidson start vectors     ....     2
   Converg. threshold I  (grad. norm)   ....   1.000e-05
   Converg. threshold II (energy diff.) ....   1.000e-08
   Grad. Scal. Fac. for Micro threshold ....   0.100
   Minimum threshold for Micro iter.    ....   0.010
   NR start threshold (gradient norm)   ....   0.001
   Initial trust radius                 ....   0.400
   Minimum AH scaling param. (alpha)    ....   1.000
   Maximum AH scaling param. (alpha)    .... 1000.000
   Orbital update algorithm             .... Taylor
   White noise on init. David. guess    .... on
   Maximum white noise                  ....   0.010
   Quad. conv. algorithm                .... NR
 SOSCF                  CNVSOSCF        .... on
   Start iteration      SOSCFMaxIt      ....   150
   Startup grad/error   SOSCFStart      ....  0.003300
 Level Shifting         CNVShift        .... on
   Level shift para.    LevelShift      ....    0.2500
   Turn off err/grad.   ShiftErr        ....    0.0010
 Zerner damping         CNVZerner       .... off
 Static damping         CNVDamp         .... on
   Fraction old density DampFac         ....    0.7000
   Max. Damping (<1)    DampMax         ....    0.9800
   Min. Damping (>=0)   DampMin         ....    0.0000
   Turn off err/grad.   DampErr         ....    0.1000
 Fernandez-Rico         CNVRico         .... off

SCF Procedure:
 Maximum # iterations   MaxIter         ....   125
 SCF integral mode      SCFMode         .... Direct
   Integral package                     .... SHARK and LIBINT hybrid scheme
 Reset frequency        DirectResetFreq ....    20
 Integral Threshold     Thresh          ....  2.500e-11 Eh
 Primitive CutOff       TCut            ....  2.500e-12 Eh

Convergence Tolerance:
 Convergence Check Mode ConvCheckMode   .... Total+1el-Energy
 Convergence forced     ConvForced      .... 1
 Energy Change          TolE            ....  1.000e-08 Eh
 1-El. energy change                    ....  1.000e-05 Eh
 Orbital Gradient       TolG            ....  1.000e-05
 Orbital Rotation angle TolX            ....  1.000e-05
 DIIS Error             TolErr          ....  5.000e-07


Diagonalization of the overlap matrix:
Smallest eigenvalue                        ... 2.173e-05
Time for diagonalization                   ...    0.006 sec
Threshold for overlap eigenvalues          ... 1.000e-08
Number of eigenvalues below threshold      ... 0
Time for construction of square roots      ...    0.007 sec
Total time needed                          ...    0.014 sec

Time for model grid setup =    0.064 sec

------------------------------
INITIAL GUESS: MODEL POTENTIAL
------------------------------
Loading Hartree-Fock densities                     ... done
Calculating cut-offs                               ... done
Initializing the effective Hamiltonian             ... done
Setting up the integral package (SHARK)            ... done
Starting the Coulomb interaction                   ... done (   0.0 sec)
Reading the grid                                   ... done
Mapping shells                                     ... done
Starting the XC term evaluation                    ... done (   0.0 sec)
Transforming the Hamiltonian                       ... done (   0.0 sec)
Diagonalizing the Hamiltonian                      ... done (   0.0 sec)
Back transforming the eigenvectors                 ... done (   0.0 sec)
Now organizing SCF variables                       ... done
                      ------------------
                      INITIAL GUESS DONE (   0.1 sec)
                      ------------------
--------------
SCF ITERATIONS
--------------
ITER       Energy         Delta-E        Max-DP      RMS-DP      [F,P]     Damp
               ***  Starting incremental Fock matrix formation  ***
  0  -1056.1923547641   0.000000000000 0.18836346  0.00382867  0.2393490 0.7000
  1  -1056.3289499914  -0.136595227311 0.15773374  0.00300929  0.1379702 0.7000
                               ***Turning on DIIS***
  2  -1056.4031599310  -0.074209939639 0.37872539  0.00717564  0.0692579 0.0000
  3  -1056.2868569257   0.116303005272 0.04167781  0.00115515  0.0514828 0.0000
  4  -1056.5741200428  -0.287263117066 0.01668008  0.00047662  0.0087204 0.0000
  5  -1056.5886721217  -0.014552078840 0.00748079  0.00025570  0.0036590 0.0000
                      *** Initiating the SOSCF procedure ***
                           *** Shutting down DIIS ***
                      *** Re-Reading the Fockian *** 
                      *** Removing any level shift *** 
ITER      Energy       Delta-E        Grad      Rot      Max-DP    RMS-DP
  6  -1056.54893897   0.0397331480  0.001765  0.001765  0.002863  0.000112
               *** Restarting incremental Fock matrix formation ***
  7  -1056.55807745  -0.0091384783  0.000712  0.001459  0.001066  0.000043
  8  -1056.55809627  -0.0000188196  0.000276  0.001260  0.001402  0.000046
  9  -1056.55810273  -0.0000064582  0.000111  0.000163  0.000324  0.000009
 10  -1056.55810328  -0.0000005525  0.000074  0.000104  0.000103  0.000004
 11  -1056.55810354  -0.0000002542  0.000028  0.000101  0.000118  0.000004
 12  -1056.55810362  -0.0000000812  0.000009  0.000023  0.000034  0.000001
 13  -1056.55810363  -0.0000000085  0.000004  0.000005  0.000013  0.000000
                 **** Energy Check signals convergence ****
              ***Rediagonalizing the Fockian in SOSCF/NRSCF***

               *****************************************************
               *                     SUCCESS                       *
               *           SCF CONVERGED AFTER  14 CYCLES          *
               *****************************************************


----------------
TOTAL SCF ENERGY
----------------

Total Energy       :        -1056.55810363 Eh          -28750.40764 eV

Components:
Nuclear Repulsion  :          405.55952278 Eh           11035.83567 eV
Electronic Energy  :        -1462.11762640 Eh          -39786.24331 eV
One Electron Energy:        -2256.88153729 Eh          -61412.86880 eV
Two Electron Energy:          794.76391089 Eh           21626.62549 eV

Virial components:
Potential Energy   :        -2112.71588047 Eh          -57489.92184 eV
Kinetic Energy     :         1056.15777684 Eh           28739.51420 eV
Virial Ratio       :            2.00037904


---------------
SCF CONVERGENCE
---------------

  Last Energy change         ...   -1.0607e-09  Tolerance :   1.0000e-08
  Last MAX-Density change    ...    4.1927e-06  Tolerance :   1.0000e-07
  Last RMS-Density change    ...    1.6319e-07  Tolerance :   5.0000e-09
  Last Orbital Gradient      ...    8.1278e-07  Tolerance :   1.0000e-05
  Last Orbital Rotation      ...    2.0950e-06  Tolerance :   1.0000e-05

             **** THE GBW FILE WAS UPDATED (DZ_trans-dithiocyanatoethene.gbw) ****
             **** DENSITY DZ_trans-dithiocyanatoethene.scfp WAS UPDATED ****
             **** ENERGY FILE WAS UPDATED (DZ_trans-dithiocyanatoethene.en.tmp) ****
             **** THE GBW FILE WAS UPDATED (DZ_trans-dithiocyanatoethene.gbw) ****
             **** DENSITY DZ_trans-dithiocyanatoethene.scfp WAS UPDATED ****
----------------
ORBITAL ENERGIES
----------------

  NO   OCC          E(Eh)            E(eV) 
   0   2.0000     -92.055363     -2504.9538 
   1   2.0000     -92.055362     -2504.9538 
   2   2.0000     -15.615792      -424.9273 
   3   2.0000     -15.615792      -424.9273 
   4   2.0000     -11.340952      -308.6030 
   5   2.0000     -11.339224      -308.5560 
   6   2.0000     -11.326288      -308.2040 
   7   2.0000     -11.326288      -308.2040 
   8   2.0000      -9.055863      -246.4226 
   9   2.0000      -9.055860      -246.4225 
  10   2.0000      -6.738093      -183.3528 
  11   2.0000      -6.738092      -183.3528 
  12   2.0000      -6.736215      -183.3017 
  13   2.0000      -6.736214      -183.3017 
  14   2.0000      -6.734029      -183.2423 
  15   2.0000      -6.734029      -183.2422 
  16   2.0000      -1.257281       -34.2124 
  17   2.0000      -1.256230       -34.1838 
  18   2.0000      -1.179421       -32.0937 
  19   2.0000      -1.105310       -30.0770 
  20   2.0000      -1.015302       -27.6278 
  21   2.0000      -0.839049       -22.8317 
  22   2.0000      -0.758107       -20.6291 
  23   2.0000      -0.693509       -18.8714 
  24   2.0000      -0.680151       -18.5078 
  25   2.0000      -0.608103       -16.5473 
  26   2.0000      -0.583784       -15.8856 
  27   2.0000      -0.571460       -15.5502 
  28   2.0000      -0.569946       -15.5090 
  29   2.0000      -0.549154       -14.9433 
  30   2.0000      -0.548955       -14.9378 
  31   2.0000      -0.493760       -13.4359 
  32   2.0000      -0.488676       -13.2975 
  33   2.0000      -0.475807       -12.9474 
  34   2.0000      -0.425963       -11.5910 
  35   2.0000      -0.373435       -10.1617 
  36   0.0000       0.029100         0.7919 
  37   0.0000       0.038525         1.0483 
  38   0.0000       0.052511         1.4289 
  39   0.0000       0.062575         1.7028 
  40   0.0000       0.068329         1.8593 
  41   0.0000       0.071196         1.9373 
  42   0.0000       0.089988         2.4487 
  43   0.0000       0.092516         2.5175 
  44   0.0000       0.099124         2.6973 
  45   0.0000       0.101602         2.7647 
  46   0.0000       0.102947         2.8013 
  47   0.0000       0.105136         2.8609 
  48   0.0000       0.120829         3.2879 
  49   0.0000       0.130544         3.5523 
  50   0.0000       0.134282         3.6540 
  51   0.0000       0.139501         3.7960 
  52   0.0000       0.142147         3.8680 
  53   0.0000       0.142527         3.8784 
  54   0.0000       0.157176         4.2770 
  55   0.0000       0.161365         4.3910 
  56   0.0000       0.164219         4.4686 
  57   0.0000       0.167464         4.5569 
  58   0.0000       0.177128         4.8199 
  59   0.0000       0.184314         5.0154 
  60   0.0000       0.190902         5.1947 
  61   0.0000       0.202736         5.5167 
  62   0.0000       0.209599         5.7035 
  63   0.0000       0.219189         5.9644 
  64   0.0000       0.221719         6.0333 
  65   0.0000       0.232207         6.3187 
  66   0.0000       0.248057         6.7500 
  67   0.0000       0.255232         6.9452 
  68   0.0000       0.262095         7.1320 
  69   0.0000       0.263681         7.1751 
  70   0.0000       0.271747         7.3946 
  71   0.0000       0.276750         7.5307 
  72   0.0000       0.282831         7.6962 
  73   0.0000       0.286579         7.7982 
  74   0.0000       0.290794         7.9129 
  75   0.0000       0.293719         7.9925 
  76   0.0000       0.307770         8.3749 
  77   0.0000       0.317167         8.6306 
  78   0.0000       0.355149         9.6641 
  79   0.0000       0.361529         9.8377 
  80   0.0000       0.367085         9.9889 
  81   0.0000       0.378776        10.3070 
  82   0.0000       0.397787        10.8243 
  83   0.0000       0.408474        11.1151 
  84   0.0000       0.424965        11.5639 
  85   0.0000       0.450967        12.2714 
  86   0.0000       0.460942        12.5429 
  87   0.0000       0.470334        12.7984 
  88   0.0000       0.477516        12.9939 
  89   0.0000       0.492805        13.4099 
  90   0.0000       0.503365        13.6973 
  91   0.0000       0.511047        13.9063 
  92   0.0000       0.522331        14.2133 
  93   0.0000       0.540672        14.7124 
  94   0.0000       0.541498        14.7349 
  95   0.0000       0.564924        15.3724 
  96   0.0000       0.566836        15.4244 
  97   0.0000       0.583749        15.8846 
  98   0.0000       0.593438        16.1483 
  99   0.0000       0.602588        16.3973 
 100   0.0000       0.604591        16.4517 
 101   0.0000       0.609633        16.5890 
 102   0.0000       0.633737        17.2449 
 103   0.0000       0.638680        17.3794 
 104   0.0000       0.639300        17.3962 
 105   0.0000       0.669130        18.2080 
 106   0.0000       0.673805        18.3352 
 107   0.0000       0.687626        18.7113 
 108   0.0000       0.693926        18.8827 
 109   0.0000       0.695716        18.9314 
 110   0.0000       0.721989        19.6463 
 111   0.0000       0.729478        19.8501 
 112   0.0000       0.750197        20.4139 
 113   0.0000       0.754055        20.5189 
 114   0.0000       0.771738        21.0001 
 115   0.0000       0.782992        21.3063 
 116   0.0000       0.791529        21.5386 
 117   0.0000       0.812971        22.1221 
 118   0.0000       0.827411        22.5150 
 119   0.0000       0.853825        23.2338 
 120   0.0000       0.855915        23.2906 
 121   0.0000       0.869938        23.6722 
 122   0.0000       0.870273        23.6813 
 123   0.0000       0.902025        24.5453 
 124   0.0000       0.903395        24.5826 
 125   0.0000       0.912073        24.8188 
 126   0.0000       0.941579        25.6217 
 127   0.0000       0.954809        25.9817 
 128   0.0000       0.956481        26.0272 
 129   0.0000       0.970188        26.4001 
 130   0.0000       0.982791        26.7431 
 131   0.0000       0.992161        26.9981 
 132   0.0000       0.998708        27.1762 
 133   0.0000       1.029919        28.0255 
 134   0.0000       1.039536        28.2872 
 135   0.0000       1.051880        28.6231 
 136   0.0000       1.075058        29.2538 
 137   0.0000       1.105302        30.0768 
 138   0.0000       1.107259        30.1301 
 139   0.0000       1.116839        30.3907 
 140   0.0000       1.118068        30.4242 
 141   0.0000       1.131282        30.7837 
 142   0.0000       1.173065        31.9207 
 143   0.0000       1.173568        31.9344 
 144   0.0000       1.181679        32.1551 
 145   0.0000       1.189967        32.3807 
 146   0.0000       1.202116        32.7113 
 147   0.0000       1.207409        32.8553 
 148   0.0000       1.224230        33.3130 
 149   0.0000       1.236097        33.6359 
 150   0.0000       1.300443        35.3869 
 151   0.0000       1.331300        36.2265 
 152   0.0000       1.335313        36.3357 
 153   0.0000       1.365743        37.1637 
 154   0.0000       1.415301        38.5123 
 155   0.0000       1.432697        38.9857 
 156   0.0000       1.455537        39.6072 
 157   0.0000       1.463651        39.8280 
 158   0.0000       1.542730        41.9798 
 159   0.0000       1.572490        42.7896 
 160   0.0000       1.609269        43.7904 
 161   0.0000       1.610291        43.8182 
 162   0.0000       1.645369        44.7728 
 163   0.0000       1.647936        44.8426 
 164   0.0000       1.664751        45.3002 
 165   0.0000       1.682954        45.7955 
 166   0.0000       1.701714        46.3060 
 167   0.0000       1.707670        46.4681 
 168   0.0000       1.726171        46.9715 
 169   0.0000       1.728447        47.0334 
 170   0.0000       1.746376        47.5213 
 171   0.0000       1.756836        47.8059 
 172   0.0000       1.779945        48.4348 
 173   0.0000       1.841682        50.1147 
 174   0.0000       1.891282        51.4644 
 175   0.0000       1.900048        51.7029 
 176   0.0000       1.914509        52.0964 
 177   0.0000       1.930990        52.5449 
 178   0.0000       1.946022        52.9540 
 179   0.0000       1.981204        53.9113 
 180   0.0000       2.006816        54.6082 
 181   0.0000       2.008498        54.6540 
 182   0.0000       2.027212        55.1632 
 183   0.0000       2.065430        56.2032 
 184   0.0000       2.068276        56.2807 
 185   0.0000       2.108101        57.3643 
 186   0.0000       2.123764        57.7906 
 187   0.0000       2.215421        60.2847 
 188   0.0000       2.253943        61.3329 
 189   0.0000       2.321475        63.1705 
 190   0.0000       2.402869        65.3854 
 191   0.0000       2.424802        65.9822 
 192   0.0000       2.475197        67.3535 
 193   0.0000       2.608698        70.9863 
 194   0.0000       2.614071        71.1325 
 195   0.0000       2.616971        71.2114 
 196   0.0000       2.624322        71.4114 
 197   0.0000       2.629309        71.5471 
 198   0.0000       2.731183        74.3193 
 199   0.0000       2.781860        75.6983 
 200   0.0000       2.871263        78.1310 
 201   0.0000       2.872719        78.1707 
 202   0.0000       2.888916        78.6114 
 203   0.0000       2.924884        79.5901 
 204   0.0000       3.095123        84.2226 
 205   0.0000       3.237481        88.0963 
 206   0.0000       3.244953        88.2997 
 207   0.0000       3.292458        89.5923 
 208   0.0000       3.478868        94.6648 
 209   0.0000       3.488560        94.9285 

                    ********************************
                    * MULLIKEN POPULATION ANALYSIS *
                    ********************************

-----------------------
MULLIKEN ATOMIC CHARGES
-----------------------
   0 S :    0.701511
   1 S :    0.701503
   2 N :   -0.292064
   3 N :   -0.292065
   4 C :    0.327559
   5 C :    0.327556
   6 C :   -0.333696
   7 C :   -0.333689
   8 H :   -0.403313
   9 H :   -0.403302
Sum of atomic charges:    0.0000000

--------------------------------
MULLIKEN REDUCED ORBITAL CHARGES
--------------------------------
  0 S s       :     5.706910  s :     5.706910
      pz      :     3.475547  p :     9.566088
      px      :     2.766410
      py      :     3.324130
      dz2     :     0.003022  d :     0.025491
      dxz     :     0.018305
      dyz     :     0.011957
      dx2y2   :    -0.023716
      dxy     :     0.015923
  1 S s       :     5.706908  s :     5.706908
      pz      :     3.475538  p :     9.566096
      px      :     2.766423
      py      :     3.324135
      dz2     :     0.003022  d :     0.025492
      dxz     :     0.018305
      dyz     :     0.011957
      dx2y2   :    -0.023715
      dxy     :     0.015923
  2 N s       :     3.748210  s :     3.748210
      pz      :     1.188239  p :     3.450789
      px      :     1.129175
      py      :     1.133375
      dz2     :     0.023841  d :     0.093064
      dxz     :     0.013982
      dyz     :     0.012819
      dx2y2   :     0.027560
      dxy     :     0.014863
  3 N s       :     3.748211  s :     3.748211
      pz      :     1.188238  p :     3.450789
      px      :     1.129176
      py      :     1.133375
      dz2     :     0.023842  d :     0.093064
      dxz     :     0.013982
      dyz     :     0.012819
      dx2y2   :     0.027559
      dxy     :     0.014863
  4 C s       :     3.136241  s :     3.136241
      pz      :     0.979835  p :     2.641770
      px      :     0.683609
      py      :     0.978326
      dz2     :     0.004265  d :    -0.105569
      dxz     :     0.025615
      dyz     :     0.010031
      dx2y2   :    -0.076149
      dxy     :    -0.069332
  5 C s       :     3.136227  s :     3.136227
      pz      :     0.979840  p :     2.641789
      px      :     0.683621
      py      :     0.978328
      dz2     :     0.004264  d :    -0.105572
      dxz     :     0.025615
      dyz     :     0.010032
      dx2y2   :    -0.076149
      dxy     :    -0.069335
  6 C s       :     3.742252  s :     3.742252
      pz      :     0.837254  p :     2.540571
      px      :     0.833385
      py      :     0.869932
      dz2     :     0.037993  d :     0.050873
      dxz     :     0.013855
      dyz     :    -0.004049
      dx2y2   :    -0.012875
      dxy     :     0.015949
  7 C s       :     3.742248  s :     3.742248
      pz      :     0.837252  p :     2.540569
      px      :     0.833385
      py      :     0.869931
      dz2     :     0.037993  d :     0.050873
      dxz     :     0.013855
      dyz     :    -0.004050
      dx2y2   :    -0.012875
      dxy     :     0.015949
  8 H s       :     1.350938  s :     1.350938
      pz      :     0.014667  p :     0.052375
      px      :    -0.007229
      py      :     0.044936
  9 H s       :     1.350929  s :     1.350929
      pz      :     0.014667  p :     0.052374
      px      :    -0.007229
      py      :     0.044935


                     *******************************
                     * LOEWDIN POPULATION ANALYSIS *
                     *******************************

----------------------
LOEWDIN ATOMIC CHARGES
----------------------
   0 S :    0.919714
   1 S :    0.919711
   2 N :    0.000410
   3 N :    0.000409
   4 C :   -0.352900
   5 C :   -0.352900
   6 C :   -0.524816
   7 C :   -0.524815
   8 H :   -0.042407
   9 H :   -0.042407

-------------------------------
LOEWDIN REDUCED ORBITAL CHARGES
-------------------------------
  0 S s       :     5.096322  s :     5.096322
      pz      :     3.332318  p :     9.501816
      px      :     2.896921
      py      :     3.272577
      dz2     :     0.066540  d :     0.482148
      dxz     :     0.116746
      dyz     :     0.057663
      dx2y2   :     0.099620
      dxy     :     0.141579
  1 S s       :     5.096324  s :     5.096324
      pz      :     3.332315  p :     9.501818
      px      :     2.896924
      py      :     3.272579
      dz2     :     0.066541  d :     0.482148
      dxz     :     0.116747
      dyz     :     0.057663
      dx2y2   :     0.099619
      dxy     :     0.141578
  2 N s       :     3.279435  s :     3.279435
      pz      :     1.177060  p :     3.480271
      px      :     1.193482
      py      :     1.109728
      dz2     :     0.037830  d :     0.239884
      dxz     :     0.058556
      dyz     :     0.041253
      dx2y2   :     0.048447
      dxy     :     0.053798
  3 N s       :     3.279436  s :     3.279436
      pz      :     1.177065  p :     3.480271
      px      :     1.193482
      py      :     1.109725
      dz2     :     0.037830  d :     0.239884
      dxz     :     0.058557
      dyz     :     0.041254
      dx2y2   :     0.048447
      dxy     :     0.053797
  4 C s       :     2.697673  s :     2.697673
      pz      :     0.819216  p :     2.808576
      px      :     1.007926
      py      :     0.981434
      dz2     :     0.074752  d :     0.846650
      dxz     :     0.184386
      dyz     :     0.041350
      dx2y2   :     0.269742
      dxy     :     0.276420
  5 C s       :     2.697673  s :     2.697673
      pz      :     0.819219  p :     2.808578
      px      :     1.007925
      py      :     0.981434
      dz2     :     0.074752  d :     0.846648
      dxz     :     0.184384
      dyz     :     0.041350
      dx2y2   :     0.269743
      dxy     :     0.276419
  6 C s       :     2.802788  s :     2.802788
      pz      :     0.920941  p :     2.834456
      px      :     0.986603
      py      :     0.926911
      dz2     :     0.209379  d :     0.887573
      dxz     :     0.190215
      dyz     :     0.144881
      dx2y2   :     0.143074
      dxy     :     0.200024
  7 C s       :     2.802788  s :     2.802788
      pz      :     0.920946  p :     2.834455
      px      :     0.986602
      py      :     0.926908
      dz2     :     0.209382  d :     0.887571
      dxz     :     0.190216
      dyz     :     0.144881
      dx2y2   :     0.143071
      dxy     :     0.200021
  8 H s       :     0.754052  s :     0.754052
      pz      :     0.073637  p :     0.288354
      px      :     0.065044
      py      :     0.149674
  9 H s       :     0.754053  s :     0.754053
      pz      :     0.073637  p :     0.288354
      px      :     0.065044
      py      :     0.149674


                      *****************************
                      * MAYER POPULATION ANALYSIS *
                      *****************************

  NA   - Mulliken gross atomic population
  ZA   - Total nuclear charge
  QA   - Mulliken gross atomic charge
  VA   - Mayer's total valence
  BVA  - Mayer's bonded valence
  FA   - Mayer's free valence

  ATOM       NA         ZA         QA         VA         BVA        FA
  0 S     15.2985    16.0000     0.7015     1.6428     1.6428    -0.0000
  1 S     15.2985    16.0000     0.7015     1.6428     1.6428    -0.0000
  2 N      7.2921     7.0000    -0.2921     2.4625     2.4625     0.0000
  3 N      7.2921     7.0000    -0.2921     2.4625     2.4625     0.0000
  4 C      5.6724     6.0000     0.3276     3.5130     3.5130     0.0000
  5 C      5.6724     6.0000     0.3276     3.5130     3.5130     0.0000
  6 C      6.3337     6.0000    -0.3337     3.2880     3.2880     0.0000
  7 C      6.3337     6.0000    -0.3337     3.2880     3.2880    -0.0000
  8 H      1.4033     1.0000    -0.4033     0.8275     0.8275     0.0000
  9 H      1.4033     1.0000    -0.4033     0.8275     0.8275     0.0000

  Mayer bond orders larger than 0.100000
B(  0-S ,  4-C ) :   0.9320 B(  0-S ,  6-C ) :   0.8783 B(  1-S ,  5-C ) :   0.9320 
B(  1-S ,  7-C ) :   0.8783 B(  2-N ,  6-C ) :   2.4495 B(  3-N ,  7-C ) :   2.4495 
B(  4-C ,  5-C ) :   1.7255 B(  4-C ,  8-H ) :   0.9354 B(  5-C ,  9-H ) :   0.9354 


-------
TIMINGS
-------

Total SCF time: 0 days 0 hours 0 min 14 sec 

Total time                  ....      14.273 sec
Sum of individual times     ....      13.930 sec  ( 97.6%)

Fock matrix formation       ....      13.437 sec  ( 94.1%)
Diagonalization             ....       0.092 sec  (  0.6%)
Density matrix formation    ....       0.011 sec  (  0.1%)
Population analysis         ....       0.022 sec  (  0.2%)
Initial guess               ....       0.070 sec  (  0.5%)
Orbital Transformation      ....       0.000 sec  (  0.0%)
Orbital Orthonormalization  ....       0.000 sec  (  0.0%)
DIIS solution               ....       0.164 sec  (  1.1%)
SOSCF solution              ....       0.071 sec  (  0.5%)

Maximum memory used throughout the entire SCF-calculation: 232.2 MB


           ************************************************************
           *        Program running with 16 parallel MPI-processes    *
           *              working on a common directory               *
           ************************************************************

------------------------------------------------------------------------------
                                ORCA  MP2 
------------------------------------------------------------------------------

Freezing NCore=32 chemical core electrons

-------------
RI-MP2 ENERGY
-------------
Dimension of the basis                    ...  210
Memory devoted to MP2                     ...  256 MB   
Data format for buffers                   ... DOUBLE
Compression type for matrix containers    ... UNCOMPRESSED
Overall scaling of the MP2 energy         ...   1.000e+00
Calculating two index integrals           ... done (    0.002 sec)
Cholesky decomposition of V**-1           ... done (    0.039 sec)

-----------------
RI-TRANSFORMATION (AUX index driven)
-----------------

Dimension of the orbital-basis         ... 210
Dimension of the aux-basis             ... 662
Transformation of internal/external MOs...   16-  35 to   36- 209
Number Format for Storage              ... Double (8 Byte)
Integral mode                          ... Direct

First Phase: integral generation and transformation of MO indices
  Aux angular momentum 0               ... done (    0.012 sec)
  Aux angular momentum 1               ... done (    0.014 sec)
  Aux angular momentum 2               ... done (    0.012 sec)
  Aux angular momentum 3               ... done (    0.013 sec)
Closing buffer VIA ( 0.02 GB; CompressionRatio= 1.00)
  Phase 1 completed in     0.148 sec
Second Phase: sorting and transformation of aux index

IA-Transformation
Memory available                       ... 209 MB 
Max. # MO pairs treated in a batch     ... 2    
# of internal orbitals                 ... 20
# batches for internal orbitals        ... 1
Closing buffer IAV ( 0.02 GB; CompressionRatio= 1.00)
(ia|v) transformation done in     0.026 sec

  Phase 2 completed in     0.057 sec
RI-Integral transformation completed in     0.210 sec
Opening buffers                              ... done

Starting loop over batches of integrals:

Operator 0  - window                       ... ( 16- 35)x( 36-209)
Operator 0  - Memory available             ...   256 MB
Operator 0  - Memory needed per MO         ...   0.9 MB
Operator 0  - Number of orbitals per batch ... 2
Operator 0  - Number of batches            ... 1

OPERATOR  0   PASS   0:  MOs    16 ...   17 +   18 ...   19 +   20 ...   21 +   22 ...   23
                            +   24 ...   25 +   26 ...   27 +   28 ...   29 +   30 ...   31
                            +   32 ...   33 +   34 ...   35
  Reading integrals       ... ok
Time spent in pair loops =     0.008 sec
Deleting buffer (Ka|jb)[aa] ...done

-----------------------------------------------
 RI-MP2 CORRELATION ENERGY:     -1.121720797 Eh
-----------------------------------------------


-------
TIMINGS
-------

Total time                :    0.327 sec
Integral trafo            :    0.217 sec ( 66.3%)
I/O of integrals          :    0.000 sec (  0.1%)
K(i,j) Operators          :    0.004 sec (  1.1%)
T(i,j) pair energies      :    0.000 sec (  0.1%)
V-calculation             :    0.002 sec (  0.7%)
V**(-1/2)                 :    0.039 sec ( 11.9%)
Gamma(ia|P)               :    0.000 sec (  0.0%)
Gamma-Trafo               :    0.000 sec (  0.0%)
D(virtual)                :    0.000 sec (  0.0%)
D(internal)               :    0.000 sec (  0.0%)
W(virtual)                :    0.000 sec (  0.0%)
W(internal)               :    0.000 sec (  0.0%)
L(virtual)                :    0.000 sec (  0.0%)
L(internal)               :    0.000 sec (  0.0%)
G(D)                      :    0.000 sec (  0.0%)
G(Z)                      :    0.000 sec (  0.0%)
Z-Vector Solution         :    0.000 sec (  0.0%)
3-Index Derivative        :    0.000 sec (  0.0%)
2-Index Derivative        :    0.000 sec (  0.0%)
Separable Gradient        :    0.000 sec (  0.0%)


---------------------------------------
MP2 TOTAL ENERGY:    -1057.679824425 Eh
---------------------------------------

Maximum memory used throughout the entire MP2-calculation: 92.1 MB

-------------------------   --------------------
FINAL SINGLE POINT ENERGY     -1057.679824424535
-------------------------   --------------------


                            ***************************************
                            *     ORCA property calculations      *
                            ***************************************


  WARNING: The energy has been calculated at the MP2 level but the densities
           used in the property calculations are still SCF densities
           MP2 response densities have not been calculated 
           use %mp2 Density relaxed end
           or  %mp2 Density unrelaxed end

                                    ---------------------
                                    Active property flags
                                    ---------------------
   (+) Dipole Moment


------------------------------------------------------------------------------
                       ORCA ELECTRIC PROPERTIES CALCULATION
------------------------------------------------------------------------------

Dipole Moment Calculation                       ... on
Quadrupole Moment Calculation                   ... off
Polarizability Calculation                      ... off
GBWName                                         ... DZ_trans-dithiocyanatoethene.gbw
Electron density                                ... DZ_trans-dithiocyanatoethene.scfp
The origin for moment calculation is the CENTER OF MASS  = (-0.000000, -0.000000  0.007842)

-------------
DIPOLE MOMENT
-------------
                                X             Y             Z
Electronic contribution:      0.00002      -0.00000      -0.72168
Nuclear contribution   :     -0.00001       0.00001      -0.56457
                        -----------------------------------------
Total Dipole Moment    :      0.00001       0.00001      -1.28625
                        -----------------------------------------
Magnitude (a.u.)       :      1.28625
Magnitude (Debye)      :      3.26938



--------------------
Rotational spectrum 
--------------------
 
Rotational constants in cm-1:     0.150098     0.016800     0.016783 
Rotational constants in MHz :  4499.839513   503.640370   503.143602 

 Dipole components along the rotational axes: 
x,y,z [a.u.] :    -0.000011    -1.286246    -0.000036 
x,y,z [Debye]:    -0.000027    -3.269376    -0.000093 

 

Timings for individual modules:

Sum of individual times         ...       49.367 sec (=   0.823 min)
GTO integral calculation        ...       20.622 sec (=   0.344 min)  41.8 %
SCF iterations                  ...       22.796 sec (=   0.380 min)  46.2 %
MP2 module                      ...        5.950 sec (=   0.099 min)  12.1 %
                             ****ORCA TERMINATED NORMALLY****
TOTAL RUN TIME: 0 days 0 hours 0 minutes 54 seconds 893 msec
