
                                 *****************
                                 * O   R   C   A *
                                 *****************

                                            #,                                       
                                            ###                                      
                                            ####                                     
                                            #####                                    
                                            ######                                   
                                           ########,                                 
                                     ,,################,,,,,                         
                               ,,#################################,,                 
                          ,,##########################################,,             
                       ,#########################################, ''#####,          
                    ,#############################################,,   '####,        
                  ,##################################################,,,,####,       
                ,###########''''           ''''###############################       
              ,#####''   ,,,,##########,,,,          '''####'''          '####       
            ,##' ,,,,###########################,,,                        '##       
           ' ,,###''''                  '''############,,,                           
         ,,##''                                '''############,,,,        ,,,,,,###''
      ,#''                                            '''#######################'''  
     '                                                          ''''####''''         
             ,#######,   #######,   ,#######,      ##                                
            ,#'     '#,  ##    ##  ,#'     '#,    #''#        ######   ,####,        
            ##       ##  ##   ,#'  ##            #'  '#       #        #'  '#        
            ##       ##  #######   ##           ,######,      #####,   #    #        
            '#,     ,#'  ##    ##  '#,     ,#' ,#      #,         ##   #,  ,#        
             '#######'   ##     ##  '#######'  #'      '#     #####' # '####'        



                  #######################################################
                  #                        -***-                        #
                  #          Department of theory and spectroscopy      #
                  #    Directorship and core code : Frank Neese         #
                  #        Max Planck Institute fuer Kohlenforschung    #
                  #                Kaiser Wilhelm Platz 1               #
                  #                 D-45470 Muelheim/Ruhr               #
                  #                      Germany                        #
                  #                                                     #
                  #                  All rights reserved                #
                  #                        -***-                        #
                  #######################################################


                         Program Version 5.0.4 -  RELEASE  -


 With contributions from (in alphabetic order):
   Daniel Aravena         : Magnetic Suceptibility
   Michael Atanasov       : Ab Initio Ligand Field Theory (pilot matlab implementation)
   Alexander A. Auer      : GIAO ZORA, VPT2 properties, NMR spectrum
   Ute Becker             : Parallelization
   Giovanni Bistoni       : ED, misc. LED, open-shell LED, HFLD
   Martin Brehm           : Molecular dynamics
   Dmytro Bykov           : SCF Hessian
   Vijay G. Chilkuri      : MRCI spin determinant printing, contributions to CSF-ICE
   Dipayan Datta          : RHF DLPNO-CCSD density
   Achintya Kumar Dutta   : EOM-CC, STEOM-CC
   Dmitry Ganyushin       : Spin-Orbit,Spin-Spin,Magnetic field MRCI
   Miquel Garcia          : C-PCM and meta-GGA Hessian, CC/C-PCM, Gaussian charge scheme
   Yang Guo               : DLPNO-NEVPT2, F12-NEVPT2, CIM, IAO-localization
   Andreas Hansen         : Spin unrestricted coupled pair/coupled cluster methods
   Benjamin Helmich-Paris : MC-RPA, TRAH-SCF, COSX integrals
   Lee Huntington         : MR-EOM, pCC
   Robert Izsak           : Overlap fitted RIJCOSX, COSX-SCS-MP3, EOM
   Marcus Kettner         : VPT2
   Christian Kollmar      : KDIIS, OOCD, Brueckner-CCSD(T), CCSD density, CASPT2, CASPT2-K
   Simone Kossmann        : Meta GGA functionals, TD-DFT gradient, OOMP2, MP2 Hessian
   Martin Krupicka        : Initial AUTO-CI
   Lucas Lang             : DCDCAS
   Marvin Lechner         : AUTO-CI (C++ implementation), FIC-MRCC
   Dagmar Lenk            : GEPOL surface, SMD
   Dimitrios Liakos       : Extrapolation schemes; Compound Job, initial MDCI parallelization
   Dimitrios Manganas     : Further ROCIS development; embedding schemes
   Dimitrios Pantazis     : SARC Basis sets
   Anastasios Papadopoulos: AUTO-CI, single reference methods and gradients
   Taras Petrenko         : DFT Hessian,TD-DFT gradient, ASA, ECA, R-Raman, ABS, FL, XAS/XES, NRVS
   Peter Pinski           : DLPNO-MP2, DLPNO-MP2 Gradient
   Christoph Reimann      : Effective Core Potentials
   Marius Retegan         : Local ZFS, SOC
   Christoph Riplinger    : Optimizer, TS searches, QM/MM, DLPNO-CCSD(T), (RO)-DLPNO pert. Triples
   Tobias Risthaus        : Range-separated hybrids, TD-DFT gradient, RPA, STAB
   Michael Roemelt        : Original ROCIS implementation
   Masaaki Saitow         : Open-shell DLPNO-CCSD energy and density
   Barbara Sandhoefer     : DKH picture change effects
   Avijit Sen             : IP-ROCIS
   Kantharuban Sivalingam : CASSCF convergence, NEVPT2, FIC-MRCI
   Bernardo de Souza      : ESD, SOC TD-DFT
   Georgi Stoychev        : AutoAux, RI-MP2 NMR, DLPNO-MP2 response
   Willem Van den Heuvel  : Paramagnetic NMR
   Boris Wezisla          : Elementary symmetry handling
   Frank Wennmohs         : Technical directorship


 We gratefully acknowledge several colleagues who have allowed us to
 interface, adapt or use parts of their codes:
   Stefan Grimme, W. Hujo, H. Kruse, P. Pracht,  : VdW corrections, initial TS optimization,
                  C. Bannwarth, S. Ehlert          DFT functionals, gCP, sTDA/sTD-DF
   Ed Valeev, F. Pavosevic, A. Kumar             : LibInt (2-el integral package), F12 methods
   Garnet Chan, S. Sharma, J. Yang, R. Olivares  : DMRG
   Ulf Ekstrom                                   : XCFun DFT Library
   Mihaly Kallay                                 : mrcc  (arbitrary order and MRCC methods)
   Jiri Pittner, Ondrej Demel                    : Mk-CCSD
   Frank Weinhold                                : gennbo (NPA and NBO analysis)
   Christopher J. Cramer and Donald G. Truhlar   : smd solvation model
   Lars Goerigk                                  : TD-DFT with DH, B97 family of functionals
   V. Asgeirsson, H. Jonsson                     : NEB implementation
   FAccTs GmbH                                   : IRC, NEB, NEB-TS, DLPNO-Multilevel, CI-OPT
                                                   MM, QMMM, 2- and 3-layer-ONIOM, Crystal-QMMM,
                                                   LR-CPCM, SF, NACMEs, symmetry and pop. for TD-DFT,
                                                   nearIR, NL-DFT gradient (VV10), updates on ESD,
                                                   ML-optimized integration grids
   S Lehtola, MJT Oliveira, MAL Marques          : LibXC Library
   Liviu Ungur et al                             : ANISO software


 Your calculation uses the libint2 library for the computation of 2-el integrals
 For citations please refer to: http://libint.valeyev.net

 Your ORCA version has been built with support for libXC version: 5.1.0
 For citations please refer to: https://tddft.org/programs/libxc/

 This ORCA versions uses:
   CBLAS   interface :  Fast vector & matrix operations
   LAPACKE interface :  Fast linear algebra routines
   SCALAPACK package :  Parallel linear algebra routines
   Shared memory     :  Shared parallel matrices
   BLAS/LAPACK       :  OpenBLAS 0.3.15  USE64BITINT DYNAMIC_ARCH NO_AFFINITY Zen SINGLE_THREADED
        Core in use  :  Zen
   Copyright (c) 2011-2014, The OpenBLAS Project


================================================================================

----- Orbital basis set information -----
Your calculation utilizes the basis: aug-cc-pVDZ 
    H, B-Ne : Obtained from the ccRepo (grant-hill.group.shef.ac.uk/ccrepo) Feb. 2017
              R. A. Kendall, T. H. Dunning, Jr., R. J. Harrison, J. Chem. Phys. 96, 6796 (1992)
         He : Obtained from the ccRepo (grant-hill.group.shef.ac.uk/ccrepo) Feb. 2017
              D. E. Woon, T. H. Dunning, Jr., J. Chem. Phys. 100, 2975 (1994)
  Li-Be, Na : Obtained from the ccRepo (grant-hill.group.shef.ac.uk/ccrepo) Feb. 2017
              B. P. Prascher, D. E. Woon, K. A. Peterson, T. H. Dunning, Jr., A. K. Wilson, Theor. Chem. Acc. 128, 69 (2011)
         Mg : Obtained from the Peterson Research Group Website (tyr0.chem.wsu.edu/~kipeters) Feb. 2017
              B. P. Prascher, D. E. Woon, K. A. Peterson, T. H. Dunning, Jr., A. K. Wilson, Theor. Chem. Acc. 128, 69 (2011)
      Al-Ar : Obtained from the ccRepo (grant-hill.group.shef.ac.uk/ccrepo) Feb. 2017
              D. E. Woon, T. H. Dunning, Jr., J. Chem. Phys. 98, 1358 (1993)
      Sc-Zn : Obtained from the ccRepo (grant-hill.group.shef.ac.uk/ccrepo) Feb. 2017
              N. B. Balabanov, K. A. Peterson, J. Chem. Phys. 123, 064107 (2005)
              N. B. Balabanov, K. A. Peterson, J. Chem. Phys. 125, 074110 (2006)
      Ga-Kr : Obtained from the ccRepo (grant-hill.group.shef.ac.uk/ccrepo) Feb. 2017
              A. K. Wilson, D. E. Woon, K. A. Peterson, T. H. Dunning, Jr., J. Chem. Phys. 110, 7667 (1999)

----- AuxC basis set information -----
Your calculation utilizes the auxiliary basis: aug-cc-pVDZ/C 
  H-He, B, Ne, Al-Ar, Ga-Ge, Se-Br : Obtained from the EMSL Basis Set Exchange (bse.pnl.gov) Feb. 2017
                                     F. Weigend, A. Kohn, C. Hattig, J. Chem. Phys. 116, 3175 (2002)
                            Be, Mg : Obtained from the TURBOMOLE 7.0 basis set library
                                     C. Haettig, Phys. Chem. Chem. Phys. 7, 59 (2005)
                               C-F : Obtained from the EMSL Basis Set Exchange (bse.pnl.gov) Feb. 2017
                                     C. Haettig, Phys. Chem. Chem. Phys. 7, 59 (2005)
                                     F. Weigend, A. Kohn, C. Hattig, J. Chem. Phys. 116, 3175 (2002)
                                As : Obtained from the EMSL Basis Set Exchange (bse.pnl.gov) Feb. 2017
                                     C. Haettig, G. Schmitz, J. Kossmann, Phys. Chem. Chem. Phys. 14, 6549 (2012)
                                Kr : Obtained from the TURBOMOLE 7.0 basis set library
                                     F. Weigend, A. Kohn, C. Hattig, J. Chem. Phys. 116, 3175 (2002)
                                     S function revised in Sep. 2009

================================================================================
                                        WARNINGS
                       Please study these warnings very carefully!
================================================================================


WARNING: No MP2 level density has been requested!
         To caclulate MP2 level properties use
         %mp2 Density relaxed end
         or
         %mp2 Density unrelaxed end

WARNING: Post HF methods need fully converged wavefunctions
  ===> : Setting SCFConvForced true
         You can overwrite this default with %scf ConvForced false 


INFO   : the flag for use of the SHARK integral package has been found!

================================================================================

----- Orbital basis set information -----
Your calculation utilizes the basis: aug-cc-pVTZ 
    H, B-Ne : Obtained from the ccRepo (grant-hill.group.shef.ac.uk/ccrepo) Feb. 2017
              R. A. Kendall, T. H. Dunning, Jr., R. J. Harrison, J. Chem. Phys. 96, 6796 (1992)
         He : Obtained from the ccRepo (grant-hill.group.shef.ac.uk/ccrepo) Feb. 2017
              D. E. Woon, T. H. Dunning, Jr., J. Chem. Phys. 100, 2975 (1994)
  Li-Be, Na : Obtained from the ccRepo (grant-hill.group.shef.ac.uk/ccrepo) Feb. 2017
              B. P. Prascher, D. E. Woon, K. A. Peterson, T. H. Dunning, Jr., A. K. Wilson, Theor. Chem. Acc. 128, 69 (2011)
         Mg : Obtained from the Peterson Research Group Website (tyr0.chem.wsu.edu/~kipeters) Feb. 2017
              B. P. Prascher, D. E. Woon, K. A. Peterson, T. H. Dunning, Jr., A. K. Wilson, Theor. Chem. Acc. 128, 69 (2011)
      Al-Ar : Obtained from the ccRepo (grant-hill.group.shef.ac.uk/ccrepo) Feb. 2017
              D. E. Woon, T. H. Dunning, Jr., J. Chem. Phys. 98, 1358 (1993)
      Sc-Zn : Obtained from the ccRepo (grant-hill.group.shef.ac.uk/ccrepo) Feb. 2017
              N. B. Balabanov, K. A. Peterson, J. Chem. Phys. 123, 064107 (2005)
              N. B. Balabanov, K. A. Peterson, J. Chem. Phys. 125, 074110 (2006)
      Ga-Kr : Obtained from the ccRepo (grant-hill.group.shef.ac.uk/ccrepo) Feb. 2017
              A. K. Wilson, D. E. Woon, K. A. Peterson, T. H. Dunning, Jr., J. Chem. Phys. 110, 7667 (1999)
     Ag, Au : Obtained from the Peterson Research Group Website (tyr0.chem.wsu.edu/~kipeters) Feb. 2017
              K. A. Peterson, C. Puzzarini, Theor. Chem. Acc. 114, 283 (2005)

----- AuxC basis set information -----
Your calculation utilizes the auxiliary basis: aug-cc-pVTZ/C 
  H-He, B-F, Al-Ar, Ga-Kr : Obtained from the EMSL Basis Set Exchange (bse.pnl.gov) Feb. 2017
                            F. Weigend, A. Kohn, C. Hattig, J. Chem. Phys. 116, 3175 (2002)
                   Be, Mg : Obtained from the TURBOMOLE 7.0 basis set library
                            C. Haettig, Phys. Chem. Chem. Phys. 7, 59 (2005)
                       Ne : Obtained from the EMSL Basis Set Exchange (bse.pnl.gov) Feb. 2017
                            C. Haettig, Phys. Chem. Chem. Phys. 7, 59 (2005)
                            F. Weigend, A. Kohn, C. Hattig, J. Chem. Phys. 116, 3175 (2002)
                    Sc-Zn : Obtained from the EMSL Basis Set Exchange (bse.pnl.gov) Feb. 2017
                            J. G. Hill, J. A. Platts, J. Chem. Phys. 128, 044104 (2008)

================================================================================
                                        WARNINGS
                       Please study these warnings very carefully!
================================================================================


WARNING: No MP2 level density has been requested!
         To caclulate MP2 level properties use
         %mp2 Density relaxed end
         or
         %mp2 Density unrelaxed end

INFO   : the flag for use of the SHARK integral package has been found!

================================================================================

----- Orbital basis set information -----
Your calculation utilizes the basis: aug-cc-pVQZ 
    H, B-Ne : Obtained from the ccRepo (grant-hill.group.shef.ac.uk/ccrepo) Feb. 2017
              R. A. Kendall, T. H. Dunning, Jr., R. J. Harrison, J. Chem. Phys. 96, 6796 (1992)
         He : Obtained from the ccRepo (grant-hill.group.shef.ac.uk/ccrepo) Feb. 2017
              D. E. Woon, T. H. Dunning, Jr., J. Chem. Phys. 100, 2975 (1994)
  Li-Be, Na : Obtained from the ccRepo (grant-hill.group.shef.ac.uk/ccrepo) Feb. 2017
              B. P. Prascher, D. E. Woon, K. A. Peterson, T. H. Dunning, Jr., A. K. Wilson, Theor. Chem. Acc. 128, 69 (2011)
         Mg : Obtained from the Peterson Research Group Website (tyr0.chem.wsu.edu/~kipeters) Feb. 2017
              B. P. Prascher, D. E. Woon, K. A. Peterson, T. H. Dunning, Jr., A. K. Wilson, Theor. Chem. Acc. 128, 69 (2011)
      Al-Ar : Obtained from the ccRepo (grant-hill.group.shef.ac.uk/ccrepo) Feb. 2017
              D. E. Woon, T. H. Dunning, Jr., J. Chem. Phys. 98, 1358 (1993)
      Sc-Zn : Obtained from the ccRepo (grant-hill.group.shef.ac.uk/ccrepo) Feb. 2017
              N. B. Balabanov, K. A. Peterson, J. Chem. Phys. 123, 064107 (2005)
              N. B. Balabanov, K. A. Peterson, J. Chem. Phys. 125, 074110 (2006)
      Ga-Kr : Obtained from the ccRepo (grant-hill.group.shef.ac.uk/ccrepo) Feb. 2017
              A. K. Wilson, D. E. Woon, K. A. Peterson, T. H. Dunning, Jr., J. Chem. Phys. 110, 7667 (1999)

----- AuxC basis set information -----
Your calculation utilizes the auxiliary basis: aug-cc-pVQZ/C 
  H-He, B-F, Al-Ar, Ga-Kr : Obtained from the EMSL Basis Set Exchange (bse.pnl.gov) Feb. 2017
                            F. Weigend, A. Kohn, C. Hattig, J. Chem. Phys. 116, 3175 (2002)
                   Be, Mg : Obtained from the TURBOMOLE 7.0 basis set library
                            C. Haettig, Phys. Chem. Chem. Phys. 7, 59 (2005)
                       Ne : Obtained from the EMSL Basis Set Exchange (bse.pnl.gov) Feb. 2017
                            C. Haettig, Phys. Chem. Chem. Phys. 7, 59 (2005)
                            F. Weigend, A. Kohn, C. Hattig, J. Chem. Phys. 116, 3175 (2002)
                    Sc-Zn : Obtained from the EMSL Basis Set Exchange (bse.pnl.gov) Feb. 2017
                            D. H. Bross, J. G. Hill, H. J. Werner, K. A. Peterson, J. Chem. Phys. 139, 094302 (2013)

================================================================================
                                        WARNINGS
                       Please study these warnings very carefully!
================================================================================


WARNING: No MP2 level density has been requested!
         To caclulate MP2 level properties use
         %mp2 Density relaxed end
         or
         %mp2 Density unrelaxed end

INFO   : the flag for use of the SHARK integral package has been found!

================================================================================
                                       INPUT FILE
================================================================================
NAME = P-O_16_AB.inp
|  1> ! ri-mp2 aug-cc-pvdz aug-cc-pvdz/c tightscf
|  2> %pal nprocs 16 end
|  3> %maxcore 3800
|  4> %base "DZ_P-O_16_AB"
|  5> %scf
|  6> STABPerform true 
|  7> STABRestartUHFifUnstable true
|  8> end
|  9> 
| 10> *xyz 0 1
| 11> O         0.907592   -0.757333   -0.496631
| 12> P        -0.359634    0.034045    0.112958
| 13> O        -0.261851    0.283258    1.545107
| 14> O        -1.508101   -0.908414   -0.403258
| 15> O         2.081505   -0.012016   -0.144054
| 16> H         2.205624   -0.265634    0.785066
| 17> O        -0.542328    1.300448   -0.799726
| 18> H        -0.495721    2.124344   -0.302262
| 19> H        -1.729922   -1.616943    0.211329
| 20> *
| 21> 
| 22> $new_job
| 23> ! ri-mp2 aug-cc-pvtz aug-cc-pvtz/c tightscf
| 24> %pal nprocs 16 end
| 25> %maxcore 3800
| 26> %base "TZ_P-O_16_AB"
| 27> 
| 28> *xyz 0 1
| 29> O         0.907592   -0.757333   -0.496631
| 30> P        -0.359634    0.034045    0.112958
| 31> O        -0.261851    0.283258    1.545107
| 32> O        -1.508101   -0.908414   -0.403258
| 33> O         2.081505   -0.012016   -0.144054
| 34> H         2.205624   -0.265634    0.785066
| 35> O        -0.542328    1.300448   -0.799726
| 36> H        -0.495721    2.124344   -0.302262
| 37> H        -1.729922   -1.616943    0.211329
| 38> *
| 39> 
| 40> $new_job
| 41> ! ri-mp2 aug-cc-pvqz aug-cc-pvqz/c tightscf
| 42> %pal nprocs 16 end
| 43> %maxcore 3800
| 44> %base "QZ_P-O_16_AB"
| 45> 
| 46> *xyz 0 1
| 47> O         0.907592   -0.757333   -0.496631
| 48> P        -0.359634    0.034045    0.112958
| 49> O        -0.261851    0.283258    1.545107
| 50> O        -1.508101   -0.908414   -0.403258
| 51> O         2.081505   -0.012016   -0.144054
| 52> H         2.205624   -0.265634    0.785066
| 53> O        -0.542328    1.300448   -0.799726
| 54> H        -0.495721    2.124344   -0.302262
| 55> H        -1.729922   -1.616943    0.211329
| 56> *
| 57> 
| 58> 
| 59> 
| 60> 
| 61>                          ****END OF INPUT****
================================================================================


                 $$$$$$$$$$$$$$$$$$$$$$$$$$$$$$$$$$$$$$$$$$$$$$ 
                 $ THERE ARE  3 JOBS TO BE PROCESSED THIS RUN $
                 $$$$$$$$$$$$$$$$$$$$$$$$$$$$$$$$$$$$$$$$$$$$$$ 




                 $$$$$$$$$$$$$$$$  JOB NUMBER  1 $$$$$$$$$$$$$$


                       ****************************
                       * Single Point Calculation *
                       ****************************

---------------------------------
CARTESIAN COORDINATES (ANGSTROEM)
---------------------------------
  O      0.907592   -0.757333   -0.496631
  P     -0.359634    0.034045    0.112958
  O     -0.261851    0.283258    1.545107
  O     -1.508101   -0.908414   -0.403258
  O      2.081505   -0.012016   -0.144054
  H      2.205624   -0.265634    0.785066
  O     -0.542328    1.300448   -0.799726
  H     -0.495721    2.124344   -0.302262
  H     -1.729922   -1.616943    0.211329

----------------------------
CARTESIAN COORDINATES (A.U.)
----------------------------
  NO LB      ZA    FRAG     MASS         X           Y           Z
   0 O     8.0000    0    15.999    1.715100   -1.431152   -0.938497
   1 P    15.0000    0    30.974   -0.679610    0.064336    0.213460
   2 O     8.0000    0    15.999   -0.494827    0.535280    2.919829
   3 O     8.0000    0    15.999   -2.849898   -1.716654   -0.762047
   4 O     8.0000    0    15.999    3.933474   -0.022707   -0.272223
   5 H     1.0000    0     1.008    4.168025   -0.501976    1.483560
   6 O     8.0000    0    15.999   -1.024851    2.457491   -1.511263
   7 H     1.0000    0     1.008   -0.936777    4.014428   -0.571192
   8 H     1.0000    0     1.008   -3.269079   -3.055579    0.399354

--------------------------------
INTERNAL COORDINATES (ANGSTROEM)
--------------------------------
 O      0   0   0     0.000000000000     0.00000000     0.00000000
 P      1   0   0     1.613610740817     0.00000000     0.00000000
 O      2   1   0     1.456955521853   113.73641644     0.00000000
 O      2   1   3     1.572795083737    98.95050692   233.58788741
 O      1   2   3     1.434531178813   107.15753573   305.19553978
 H      5   1   2     0.971077540923   101.77454068    78.08085351
 O      2   1   3     1.571669729905   105.49115045   128.42997591
 H      7   2   1     0.963559682926   112.55354380   237.82139061
 H      4   2   1     0.963812782884   113.53290423    89.93567477

---------------------------
INTERNAL COORDINATES (A.U.)
---------------------------
 O      0   0   0     0.000000000000     0.00000000     0.00000000
 P      1   0   0     3.049282386899     0.00000000     0.00000000
 O      2   1   0     2.753246925607   113.73641644     0.00000000
 O      2   1   3     2.972151973040    98.95050692   233.58788741
 O      1   2   3     2.710871058528   107.15753573   305.19553978
 H      5   1   2     1.835070607146   101.77454068    78.08085351
 O      2   1   3     2.970025362495   105.49115045   128.42997591
 H      7   2   1     1.820863914419   112.55354380   237.82139061
 H      4   2   1     1.821342204024   113.53290423    89.93567477

---------------------
BASIS SET INFORMATION
---------------------
There are 3 groups of distinct atoms

 Group   1 Type O   : 18s5p2d contracted to 4s3p2d pattern {8811/311/11}
 Group   2 Type P   : 35s16p2d contracted to 5s4p2d pattern {11111111/7711/11}
 Group   3 Type H   : 5s2p contracted to 3s2p pattern {311/11}

Atom   0O    basis set group =>   1
Atom   1P    basis set group =>   2
Atom   2O    basis set group =>   1
Atom   3O    basis set group =>   1
Atom   4O    basis set group =>   1
Atom   5H    basis set group =>   3
Atom   6O    basis set group =>   1
Atom   7H    basis set group =>   3
Atom   8H    basis set group =>   3
---------------------------------
AUXILIARY/C BASIS SET INFORMATION
---------------------------------
There are 3 groups of distinct atoms

 Group   1 Type O   : 8s6p5d3f contracted to 8s6p5d3f pattern {11111111/111111/11111/111}
 Group   2 Type P   : 10s8p6d4f contracted to 10s8p6d4f pattern {1111111111/11111111/111111/1111}
 Group   3 Type H   : 4s3p2d contracted to 4s3p2d pattern {1111/111/11}

Atom   0O    basis set group =>   1
Atom   1P    basis set group =>   2
Atom   2O    basis set group =>   1
Atom   3O    basis set group =>   1
Atom   4O    basis set group =>   1
Atom   5H    basis set group =>   3
Atom   6O    basis set group =>   1
Atom   7H    basis set group =>   3
Atom   8H    basis set group =>   3


           ************************************************************
           *        Program running with 16 parallel MPI-processes    *
           *              working on a common directory               *
           ************************************************************
------------------------------------------------------------------------------
                           ORCA GTO INTEGRAL CALCULATION
------------------------------------------------------------------------------
------------------------------------------------------------------------------
                   ___                                                        
                  /   \      - P O W E R E D   B Y -                         
                 /     \                                                     
                 |  |  |   _    _      __       _____    __    __             
                 |  |  |  | |  | |    /  \     |  _  \  |  |  /  |          
                  \  \/   | |  | |   /    \    | | | |  |  | /  /          
                 / \  \   | |__| |  /  /\  \   | |_| |  |  |/  /          
                |  |  |   |  __  | /  /__\  \  |    /   |      \           
                |  |  |   | |  | | |   __   |  |    \   |  |\   \          
                \     /   | |  | | |  |  |  |  | |\  \  |  | \   \       
                 \___/    |_|  |_| |__|  |__|  |_| \__\ |__|  \__/        
                                                                              
                      - O R C A' S   B I G   F R I E N D -                    
                                      &                                       
                       - I N T E G R A L  F E E D E R -                       
                                                                              
 v1 FN, 2020, v2 2021                                                         
------------------------------------------------------------------------------


Reading SHARK input file DZ_P-O_16_AB.SHARKINP.tmp ... ok
----------------------
SHARK INTEGRAL PACKAGE
----------------------

Number of atoms                             ...      9
Number of basis functions                   ...    222
Number of shells                            ...    114
Maximum angular momentum                    ...      2
Integral batch strategy                     ... SHARK/LIBINT Hybrid
RI-J (if used) integral strategy            ... SPLIT-RIJ (Revised 2003 algorithm where possible)
Printlevel                                  ...      1
Contraction scheme used                     ... PARTIAL GENERAL contraction
Coulomb Range Separation                    ... NOT USED
Exchange Range Separation                   ... NOT USED
Finite Nucleus Model                        ... NOT USED
Auxiliary Coulomb fitting basis             ... NOT available
Auxiliary J/K fitting basis                 ... NOT available
Auxiliary Correlation fitting basis         ... AVAILABLE
   # of basis functions in Aux-C            ...    521
   # of shells in Aux-C                     ...    165
   Maximum angular momentum in Aux-C        ...      3
Auxiliary 'external' fitting basis          ... NOT available
Integral threshold                          ...     2.500000e-11
Primitive cut-off                           ...     2.500000e-12
Primitive pair pre-selection threshold      ...     2.500000e-12

Calculating pre-screening integrals         ... done (  0.0 sec) Dimension = 114
Calculating pre-screening integrals (ORCA)  ... done (  0.2 sec) Dimension = 71
Organizing shell pair data                  ... done (  0.1 sec)
Shell pair information
Total number of shell pairs                 ...      6555
Shell pairs after pre-screening             ...      5388
Total number of primitive shell pairs       ...      8539
Primitive shell pairs kept                  ...      6618
          la=0 lb=0:   1762 shell pairs
          la=1 lb=0:   1915 shell pairs
          la=1 lb=1:    465 shell pairs
          la=2 lb=0:    808 shell pairs
          la=2 lb=1:    360 shell pairs
          la=2 lb=2:     78 shell pairs

Calculating one electron integrals          ... done (  0.0 sec)
Calculating RI/C V-Matrix + Cholesky decomp.... done (  1.7 sec)
Calculating Nuclear repulsion               ... done (  0.1 sec) ENN=    366.690947608981 Eh

SHARK setup successfully completed in   3.5 seconds

Maximum memory used throughout the entire GTOINT-calculation: 29.0 MB


           ************************************************************
           *        Program running with 16 parallel MPI-processes    *
           *              working on a common directory               *
           ************************************************************
-------------------------------------------------------------------------------
                                 ORCA SCF
-------------------------------------------------------------------------------

------------
SCF SETTINGS
------------
Hamiltonian:
 Ab initio Hamiltonian  Method          .... Hartree-Fock(GTOs)


General Settings:
 Integral files         IntName         .... DZ_P-O_16_AB
 Hartree-Fock type      HFTyp           .... RHF
 Total Charge           Charge          ....    0
 Multiplicity           Mult            ....    1
 Number of Electrons    NEL             ....   58
 Basis Dimension        Dim             ....  169
 Nuclear Repulsion      ENuc            ....    366.6909476090 Eh

Convergence Acceleration:
 DIIS                   CNVDIIS         .... on
   Start iteration      DIISMaxIt       ....    12
   Startup error        DIISStart       ....  0.200000
   # of expansion vecs  DIISMaxEq       ....     5
   Bias factor          DIISBfac        ....   1.050
   Max. coefficient     DIISMaxC        ....  10.000
 Trust-Rad. Augm. Hess. CNVTRAH         .... auto
   Auto Start mean grad. ratio tolernc. ....  1.125000
   Auto Start start iteration           ....    20
   Auto Start num. interpolation iter.  ....    10
   Max. Number of Micro iterations      ....    16
   Max. Number of Macro iterations      .... Maxiter - #DIIS iter
   Number of Davidson start vectors     ....     2
   Converg. threshold I  (grad. norm)   ....   1.000e-05
   Converg. threshold II (energy diff.) ....   1.000e-08
   Grad. Scal. Fac. for Micro threshold ....   0.100
   Minimum threshold for Micro iter.    ....   0.010
   NR start threshold (gradient norm)   ....   0.001
   Initial trust radius                 ....   0.400
   Minimum AH scaling param. (alpha)    ....   1.000
   Maximum AH scaling param. (alpha)    .... 1000.000
   Orbital update algorithm             .... Taylor
   White noise on init. David. guess    .... on
   Maximum white noise                  ....   0.010
   Quad. conv. algorithm                .... NR
 SOSCF                  CNVSOSCF        .... on
   Start iteration      SOSCFMaxIt      ....   150
   Startup grad/error   SOSCFStart      ....  0.003300
 Level Shifting         CNVShift        .... on
   Level shift para.    LevelShift      ....    0.2500
   Turn off err/grad.   ShiftErr        ....    0.0010
 Zerner damping         CNVZerner       .... off
 Static damping         CNVDamp         .... on
   Fraction old density DampFac         ....    0.7000
   Max. Damping (<1)    DampMax         ....    0.9800
   Min. Damping (>=0)   DampMin         ....    0.0000
   Turn off err/grad.   DampErr         ....    0.1000
 Fernandez-Rico         CNVRico         .... off

SCF Procedure:
 Maximum # iterations   MaxIter         ....   125
 SCF integral mode      SCFMode         .... Direct
   Integral package                     .... SHARK and LIBINT hybrid scheme
 Reset frequency        DirectResetFreq ....    20
 Integral Threshold     Thresh          ....  2.500e-11 Eh
 Primitive CutOff       TCut            ....  2.500e-12 Eh

Convergence Tolerance:
 Convergence Check Mode ConvCheckMode   .... Total+1el-Energy
 Convergence forced     ConvForced      .... 1
 Energy Change          TolE            ....  1.000e-08 Eh
 1-El. energy change                    ....  1.000e-05 Eh
 Orbital Gradient       TolG            ....  1.000e-05
 Orbital Rotation angle TolX            ....  1.000e-05
 DIIS Error             TolErr          ....  5.000e-07


Diagonalization of the overlap matrix:
Smallest eigenvalue                        ... 4.591e-04
Time for diagonalization                   ...    0.047 sec
Threshold for overlap eigenvalues          ... 1.000e-08
Number of eigenvalues below threshold      ... 0
Time for construction of square roots      ...    0.056 sec
Total time needed                          ...    0.103 sec

Time for model grid setup =    2.305 sec

------------------------------
INITIAL GUESS: MODEL POTENTIAL
------------------------------
Loading Hartree-Fock densities                     ... done
Calculating cut-offs                               ... done
Initializing the effective Hamiltonian             ... done
Setting up the integral package (SHARK)            ... done
Starting the Coulomb interaction                   ... done (   0.6 sec)
Reading the grid                                   ... done
Mapping shells                                     ... done
Starting the XC term evaluation                    ... done (   0.0 sec)
Transforming the Hamiltonian                       ... done (   0.1 sec)
Diagonalizing the Hamiltonian                      ... done (   0.0 sec)
Back transforming the eigenvectors                 ... done (   0.0 sec)
Now organizing SCF variables                       ... done
                      ------------------
                      INITIAL GUESS DONE (   3.0 sec)
                      ------------------
--------------
SCF ITERATIONS
--------------
ITER       Energy         Delta-E        Max-DP      RMS-DP      [F,P]     Damp
               ***  Starting incremental Fock matrix formation  ***
  0   -716.5661343485   0.000000000000 0.07595560  0.00180270  0.3260468 0.7000
  1   -716.6718489794  -0.105714630889 0.05120753  0.00126766  0.1869665 0.7000
                               ***Turning on DIIS***
  2   -716.7293387835  -0.057489804165 0.09199112  0.00271011  0.0942107 0.0000
  3   -716.4118428932   0.317495890294 0.03398592  0.00076566  0.0671294 0.0000
  4   -716.8296810754  -0.417838182156 0.01218019  0.00026662  0.0055941 0.0000
                      *** Initiating the SOSCF procedure ***
                           *** Shutting down DIIS ***
                      *** Re-Reading the Fockian *** 
                      *** Removing any level shift *** 
ITER      Energy       Delta-E        Grad      Rot      Max-DP    RMS-DP
  5   -716.83493186  -0.0052507890  0.000799  0.000799  0.003078  0.000083
               *** Restarting incremental Fock matrix formation ***
  6   -716.84498447  -0.0100526044  0.000354  0.000407  0.001069  0.000037
  7   -716.84499693  -0.0000124639  0.000146  0.000220  0.000633  0.000024
  8   -716.84499991  -0.0000029726  0.000038  0.000041  0.000153  0.000005
  9   -716.84500007  -0.0000001606  0.000021  0.000013  0.000059  0.000002
 10   -716.84500009  -0.0000000279  0.000005  0.000010  0.000022  0.000001
 11   -716.84500010  -0.0000000036  0.000003  0.000007  0.000014  0.000000
                  ***Gradient check signals convergence***
              ***Rediagonalizing the Fockian in SOSCF/NRSCF***

               *****************************************************
               *                     SUCCESS                       *
               *           SCF CONVERGED AFTER  12 CYCLES          *
               *****************************************************


------------------------------------------------------------------------------
                          SCF STABILITY ANALYSIS                              
------------------------------------------------------------------------------


                       ****Iteration    0****

   Memory handling for direct AO based CIS:
   Memory per vector needed      ...     1 MB
   Memory needed                 ...     3 MB
   Memory available              ...  3800 MB
   Number of vectors per batch   ...  3800
   Number of batches             ...     1
   Time for densities:     0.003
   Using LibInt in JK Direct
   Time for K (Direct):     1.223
   Time for Sigma-Completion:     0.098
   Lowest Energy          :     0.387527422435
   Maximum Energy change  :     0.410958974030 (vector 2)
   Maximum residual norm  :     0.003897474386

                       ****Iteration    1****
   Time for densities:     0.001
   Using LibInt in JK Direct
   Time for K (Direct):     0.873
   Time for Sigma-Completion:     0.053
   Lowest Energy          :     0.337427840940
   Maximum Energy change  :     0.050099581494 (vector 0)
   Maximum residual norm  :     0.008857832215

                       ****Iteration    2****
   Time for densities:     0.001
   Using LibInt in JK Direct
   Time for K (Direct):     0.884
   Time for Sigma-Completion:     0.057
   Lowest Energy          :     0.301253610960
   Maximum Energy change  :     0.041742173480 (vector 2)
   Maximum residual norm  :     0.007740487164

                       ****Iteration    3****
   Time for densities:     0.001
   Using LibInt in JK Direct
   Time for K (Direct):     0.880
   Time for Sigma-Completion:     0.076
   Lowest Energy          :     0.273421152276
   Maximum Energy change  :     0.027832458684 (vector 0)
   Maximum residual norm  :     0.004503259129

                       ****Iteration    4****
   Time for densities:     0.001
   Using LibInt in JK Direct
   Time for K (Direct):     0.885
   Time for Sigma-Completion:     0.150
   Lowest Energy          :     0.253312036016
   Maximum Energy change  :     0.031714169553 (vector 1)
   Maximum residual norm  :     0.011506868564

                       ****Iteration    5****
   Time for densities:     0.001
   Using LibInt in JK Direct
   Time for K (Direct):     1.217
   Time for Sigma-Completion:     0.057
   Lowest Energy          :     0.189865169488
   Maximum Energy change  :     0.063446866528 (vector 0)
   Maximum residual norm  :     0.015583353125

                       ****Iteration    6****
   Time for densities:     0.001
   Using LibInt in JK Direct
   Time for K (Direct):     0.881
   Time for Sigma-Completion:     0.076
   Lowest Energy          :     0.157300033368
   Maximum Energy change  :     0.046188700930 (vector 1)
   Maximum residual norm  :     0.017081880029

                       ****Iteration    7****
   Time for densities:     0.001
   Using LibInt in JK Direct
   Time for K (Direct):     0.885
   Time for Sigma-Completion:     0.077
   Lowest Energy          :     0.111349407108
   Maximum Energy change  :     0.045950626260 (vector 0)
   Maximum residual norm  :     0.013998666228

                       ****Iteration    8****
   Time for densities:     0.001
   Using LibInt in JK Direct
   Time for K (Direct):     0.881
   Time for Sigma-Completion:     0.102
   Lowest Energy          :     0.090169668756
   Maximum Energy change  :     0.021179738352 (vector 0)
   Maximum residual norm  :     0.002193220742

                       ****Iteration    9****
   Time for densities:     0.001
   Using LibInt in JK Direct
   Time for K (Direct):     0.882
   Time for Sigma-Completion:     0.048
   Lowest Energy          :     0.087482354286
   Maximum Energy change  :     0.002687314470 (vector 0)
   Maximum residual norm  :     0.000255456065

                       ****Iteration   10****
   Time for densities:     0.001
   Using LibInt in JK Direct
   Time for K (Direct):     0.880
   Time for Sigma-Completion:     0.059
   Lowest Energy          :     0.087237360093
   Maximum Energy change  :     0.000244994193 (vector 0)
   Maximum residual norm  :     0.000022026388

      *** CONVERGENCE OF RESIDUAL NORM REACHED ***

----------------------------- 
SCF STABILITY ANALYSIS RESULT 
----------------------------- 

RHF/RKS->UHF/UKS - triplet - external

   Root    Eigenvalue (au) 
     0       0.087237 
     1       0.161108 
     2       0.200225 

Stability Analysis indicates a stable HF/KS wave function.


Total time for performing the stability analysis:    14.113sec


----------------
TOTAL SCF ENERGY
----------------

Total Energy       :         -716.84500010 Eh          -19506.34414 eV

Components:
Nuclear Repulsion  :          366.69094761 Eh            9978.16796 eV
Electronic Energy  :        -1083.53594771 Eh          -29484.51210 eV
One Electron Energy:        -1719.78100457 Eh          -46797.62028 eV
Two Electron Energy:          636.24505686 Eh           17313.10818 eV

Virial components:
Potential Energy   :        -1433.16840889 Eh          -38998.49505 eV
Kinetic Energy     :          716.32340879 Eh           19492.15092 eV
Virial Ratio       :            2.00072815


---------------
SCF CONVERGENCE
---------------

  Last Energy change         ...   -1.0846e-09  Tolerance :   1.0000e-08
  Last MAX-Density change    ...    6.0892e-06  Tolerance :   1.0000e-07
  Last RMS-Density change    ...    1.3172e-07  Tolerance :   5.0000e-09
  Last Orbital Gradient      ...    1.0814e-06  Tolerance :   1.0000e-05
  Last Orbital Rotation      ...    3.0849e-06  Tolerance :   1.0000e-05

             **** THE GBW FILE WAS UPDATED (DZ_P-O_16_AB.gbw) ****
             **** DENSITY DZ_P-O_16_AB.scfp WAS UPDATED ****
             **** ENERGY FILE WAS UPDATED (DZ_P-O_16_AB.en.tmp) ****
             **** THE GBW FILE WAS UPDATED (DZ_P-O_16_AB.gbw) ****
             **** DENSITY DZ_P-O_16_AB.scfp WAS UPDATED ****
----------------
ORBITAL ENERGIES
----------------

  NO   OCC          E(Eh)            E(eV) 
   0   2.0000     -80.153245     -2181.0807 
   1   2.0000     -20.673049      -562.5423 
   2   2.0000     -20.665592      -562.3394 
   3   2.0000     -20.633360      -561.4623 
   4   2.0000     -20.629764      -561.3644 
   5   2.0000     -20.542160      -558.9806 
   6   2.0000      -7.672180      -208.7706 
   7   2.0000      -5.570639      -151.5848 
   8   2.0000      -5.570249      -151.5742 
   9   2.0000      -5.569872      -151.5639 
  10   2.0000      -1.536494       -41.8101 
  11   2.0000      -1.464406       -39.8485 
  12   2.0000      -1.416223       -38.5374 
  13   2.0000      -1.333496       -36.2863 
  14   2.0000      -1.252398       -34.0795 
  15   2.0000      -0.888620       -24.1806 
  16   2.0000      -0.783673       -21.3248 
  17   2.0000      -0.763698       -20.7813 
  18   2.0000      -0.718956       -19.5638 
  19   2.0000      -0.696163       -18.9436 
  20   2.0000      -0.669594       -18.2206 
  21   2.0000      -0.650684       -17.7060 
  22   2.0000      -0.594416       -16.1749 
  23   2.0000      -0.586580       -15.9617 
  24   2.0000      -0.573063       -15.5938 
  25   2.0000      -0.540964       -14.7204 
  26   2.0000      -0.517155       -14.0725 
  27   2.0000      -0.491533       -13.3753 
  28   2.0000      -0.487235       -13.2583 
  29   0.0000       0.030877         0.8402 
  30   0.0000       0.042382         1.1533 
  31   0.0000       0.050861         1.3840 
  32   0.0000       0.086090         2.3426 
  33   0.0000       0.097190         2.6447 
  34   0.0000       0.106205         2.8900 
  35   0.0000       0.128503         3.4968 
  36   0.0000       0.162013         4.4086 
  37   0.0000       0.175238         4.7685 
  38   0.0000       0.176835         4.8119 
  39   0.0000       0.187341         5.0978 
  40   0.0000       0.187871         5.1122 
  41   0.0000       0.220197         5.9919 
  42   0.0000       0.226169         6.1544 
  43   0.0000       0.238955         6.5023 
  44   0.0000       0.250789         6.8243 
  45   0.0000       0.251526         6.8444 
  46   0.0000       0.266121         7.2415 
  47   0.0000       0.266932         7.2636 
  48   0.0000       0.275219         7.4891 
  49   0.0000       0.296105         8.0574 
  50   0.0000       0.302599         8.2341 
  51   0.0000       0.304224         8.2783 
  52   0.0000       0.316657         8.6167 
  53   0.0000       0.323851         8.8124 
  54   0.0000       0.339501         9.2383 
  55   0.0000       0.348910         9.4943 
  56   0.0000       0.350330         9.5330 
  57   0.0000       0.363752         9.8982 
  58   0.0000       0.385834        10.4991 
  59   0.0000       0.399160        10.8617 
  60   0.0000       0.429074        11.6757 
  61   0.0000       0.433876        11.8064 
  62   0.0000       0.452587        12.3155 
  63   0.0000       0.470282        12.7970 
  64   0.0000       0.479969        13.0606 
  65   0.0000       0.491560        13.3760 
  66   0.0000       0.511696        13.9240 
  67   0.0000       0.517607        14.0848 
  68   0.0000       0.538965        14.6660 
  69   0.0000       0.586835        15.9686 
  70   0.0000       0.598623        16.2894 
  71   0.0000       0.600402        16.3378 
  72   0.0000       0.629691        17.1348 
  73   0.0000       0.636223        17.3125 
  74   0.0000       0.642129        17.4732 
  75   0.0000       0.665361        18.1054 
  76   0.0000       0.682045        18.5594 
  77   0.0000       0.701542        19.0899 
  78   0.0000       0.822869        22.3914 
  79   0.0000       0.829029        22.5590 
  80   0.0000       0.848364        23.0852 
  81   0.0000       0.874097        23.7854 
  82   0.0000       0.887376        24.1467 
  83   0.0000       0.906176        24.6583 
  84   0.0000       0.939248        25.5582 
  85   0.0000       0.943748        25.6807 
  86   0.0000       0.970405        26.4061 
  87   0.0000       1.037192        28.2234 
  88   0.0000       1.057284        28.7702 
  89   0.0000       1.078878        29.3578 
  90   0.0000       1.091756        29.7082 
  91   0.0000       1.125047        30.6141 
  92   0.0000       1.159262        31.5451 
  93   0.0000       1.174854        31.9694 
  94   0.0000       1.201203        32.6864 
  95   0.0000       1.210113        32.9288 
  96   0.0000       1.236875        33.6571 
  97   0.0000       1.242868        33.8201 
  98   0.0000       1.248149        33.9639 
  99   0.0000       1.266716        34.4691 
 100   0.0000       1.299072        35.3495 
 101   0.0000       1.309021        35.6203 
 102   0.0000       1.335027        36.3279 
 103   0.0000       1.352007        36.7900 
 104   0.0000       1.386051        37.7164 
 105   0.0000       1.423878        38.7457 
 106   0.0000       1.442654        39.2566 
 107   0.0000       1.465784        39.8860 
 108   0.0000       1.476995        40.1911 
 109   0.0000       1.504067        40.9277 
 110   0.0000       1.524832        41.4928 
 111   0.0000       1.551716        42.2243 
 112   0.0000       1.616135        43.9773 
 113   0.0000       1.633076        44.4383 
 114   0.0000       1.650528        44.9132 
 115   0.0000       1.658199        45.1219 
 116   0.0000       1.693662        46.0869 
 117   0.0000       1.700626        46.2764 
 118   0.0000       1.752236        47.6808 
 119   0.0000       1.843167        50.1551 
 120   0.0000       1.872405        50.9507 
 121   0.0000       1.891759        51.4774 
 122   0.0000       1.975479        53.7555 
 123   0.0000       1.987964        54.0953 
 124   0.0000       2.036408        55.4135 
 125   0.0000       2.103299        57.2337 
 126   0.0000       2.129826        57.9555 
 127   0.0000       2.148290        58.4579 
 128   0.0000       2.164489        58.8987 
 129   0.0000       2.252312        61.2885 
 130   0.0000       2.297341        62.5138 
 131   0.0000       2.331793        63.4513 
 132   0.0000       2.382397        64.8283 
 133   0.0000       2.448156        66.6177 
 134   0.0000       2.470672        67.2304 
 135   0.0000       2.492273        67.8182 
 136   0.0000       2.705037        73.6078 
 137   0.0000       2.770602        75.3919 
 138   0.0000       2.832996        77.0898 
 139   0.0000       2.906749        79.0967 
 140   0.0000       3.008690        81.8706 
 141   0.0000       3.033004        82.5322 
 142   0.0000       3.123021        84.9817 
 143   0.0000       3.404641        92.6450 
 144   0.0000       3.539068        96.3029 
 145   0.0000       3.572635        97.2163 
 146   0.0000       3.589958        97.6877 
 147   0.0000       3.613074        98.3168 
 148   0.0000       3.629152        98.7542 
 149   0.0000       3.638519        99.0091 
 150   0.0000       3.646049        99.2140 
 151   0.0000       3.659786        99.5878 
 152   0.0000       3.664961        99.7287 
 153   0.0000       3.692823       100.4868 
 154   0.0000       3.722357       101.2905 
 155   0.0000       3.738951       101.7420 
 156   0.0000       3.754598       102.1678 
 157   0.0000       3.764037       102.4247 
 158   0.0000       3.786962       103.0485 
 159   0.0000       3.813508       103.7708 
 160   0.0000       3.824272       104.0637 
 161   0.0000       3.856684       104.9457 
 162   0.0000       3.876622       105.4882 
 163   0.0000       3.894874       105.9849 
 164   0.0000       3.957282       107.6831 
 165   0.0000       4.167748       113.4102 
 166   0.0000       4.190951       114.0416 
 167   0.0000       4.252036       115.7038 
 168   0.0000       4.349656       118.3602 

                    ********************************
                    * MULLIKEN POPULATION ANALYSIS *
                    ********************************

-----------------------
MULLIKEN ATOMIC CHARGES
-----------------------
   0 O :   -0.718297
   1 P :    2.881700
   2 O :   -0.955030
   3 O :   -0.741198
   4 O :   -0.251780
   5 H :    0.233366
   6 O :   -0.758479
   7 H :    0.148314
   8 H :    0.161404
Sum of atomic charges:   -0.0000000

--------------------------------
MULLIKEN REDUCED ORBITAL CHARGES
--------------------------------
  0 O s       :     4.079503  s :     4.079503
      pz      :     1.830444  p :     4.599563
      px      :     1.141731
      py      :     1.627387
      dz2     :     0.001335  d :     0.039231
      dxz     :     0.017342
      dyz     :     0.006607
      dx2y2   :    -0.001492
      dxy     :     0.015438
  1 P s       :     4.203820  s :     4.203820
      pz      :     2.446975  p :     7.082540
      px      :     2.285311
      py      :     2.350254
      dz2     :     0.157412  d :     0.831940
      dxz     :     0.218960
      dyz     :     0.274854
      dx2y2   :     0.046410
      dxy     :     0.134303
  2 O s       :     4.063238  s :     4.063238
      pz      :     1.342957  p :     4.848099
      px      :     1.760748
      py      :     1.744394
      dz2     :     0.010960  d :     0.043693
      dxz     :     0.017244
      dyz     :     0.014912
      dx2y2   :     0.000949
      dxy     :    -0.000371
  3 O s       :     3.924385  s :     3.924385
      pz      :     1.663411  p :     4.809109
      px      :     1.655961
      py      :     1.489738
      dz2     :     0.001454  d :     0.007704
      dxz     :     0.006546
      dyz     :    -0.000126
      dx2y2   :    -0.003720
      dxy     :     0.003550
  4 O s       :     3.886793  s :     3.886793
      pz      :     1.376576  p :     4.338509
      px      :     1.285626
      py      :     1.676307
      dz2     :     0.003695  d :     0.026479
      dxz     :     0.004568
      dyz     :     0.002435
      dx2y2   :     0.006687
      dxy     :     0.009093
  5 H s       :     0.681612  s :     0.681612
      pz      :     0.042994  p :     0.085023
      px      :     0.021964
      py      :     0.020065
  6 O s       :     3.926983  s :     3.926983
      pz      :     1.653184  p :     4.822368
      px      :     1.896986
      py      :     1.272198
      dz2     :     0.002031  d :     0.009128
      dxz     :     0.007771
      dyz     :     0.004392
      dx2y2   :    -0.001890
      dxy     :    -0.003176
  7 H s       :     0.725700  s :     0.725700
      pz      :     0.026434  p :     0.125986
      px      :     0.031919
      py      :     0.067633
  8 H s       :     0.722798  s :     0.722798
      pz      :     0.032852  p :     0.115798
      px      :     0.032975
      py      :     0.049971


                     *******************************
                     * LOEWDIN POPULATION ANALYSIS *
                     *******************************

----------------------
LOEWDIN ATOMIC CHARGES
----------------------
   0 O :   -0.197248
   1 P :    0.790895
   2 O :   -0.436815
   3 O :   -0.038189
   4 O :    0.104637
   5 H :   -0.066345
   6 O :   -0.039164
   7 H :   -0.059484
   8 H :   -0.058287

-------------------------------
LOEWDIN REDUCED ORBITAL CHARGES
-------------------------------
  0 O s       :     3.379346  s :     3.379346
      pz      :     1.700281  p :     4.466624
      px      :     1.194888
      py      :     1.571455
      dz2     :     0.044746  d :     0.351277
      dxz     :     0.070508
      dyz     :     0.030937
      dx2y2   :     0.090313
      dxy     :     0.114773
  1 P s       :     4.387733  s :     4.387733
      pz      :     2.672647  p :     7.797358
      px      :     2.559296
      py      :     2.565415
      dz2     :     0.440261  d :     2.024014
      dxz     :     0.427327
      dyz     :     0.492565
      dx2y2   :     0.283189
      dxy     :     0.380672
  2 O s       :     3.494633  s :     3.494633
      pz      :     1.532666  p :     4.800062
      px      :     1.631844
      py      :     1.635552
      dz2     :     0.081084  d :     0.142120
      dxz     :     0.026116
      dyz     :     0.030971
      dx2y2   :     0.002037
      dxy     :     0.001912
  3 O s       :     3.293159  s :     3.293159
      pz      :     1.584669  p :     4.610561
      px      :     1.569291
      py      :     1.456602
      dz2     :     0.016239  d :     0.134469
      dxz     :     0.021975
      dyz     :     0.032880
      dx2y2   :     0.023388
      dxy     :     0.039988
  4 O s       :     3.331988  s :     3.331988
      pz      :     1.410260  p :     4.288775
      px      :     1.285749
      py      :     1.592766
      dz2     :     0.057191  d :     0.274601
      dxz     :     0.057789
      dyz     :     0.026142
      dx2y2   :     0.058240
      dxy     :     0.075238
  5 H s       :     0.626258  s :     0.626258
      pz      :     0.224125  p :     0.440087
      px      :     0.100199
      py      :     0.115763
  6 O s       :     3.292077  s :     3.292077
      pz      :     1.588170  p :     4.613286
      px      :     1.697012
      py      :     1.328104
      dz2     :     0.014956  d :     0.133801
      dxz     :     0.007811
      dyz     :     0.067179
      dx2y2   :     0.027918
      dxy     :     0.015938
  7 H s       :     0.613693  s :     0.613693
      pz      :     0.146480  p :     0.445791
      px      :     0.119133
      py      :     0.180178
  8 H s       :     0.615295  s :     0.615295
      pz      :     0.162921  p :     0.442992
      px      :     0.112282
      py      :     0.167789


                      *****************************
                      * MAYER POPULATION ANALYSIS *
                      *****************************

  NA   - Mulliken gross atomic population
  ZA   - Total nuclear charge
  QA   - Mulliken gross atomic charge
  VA   - Mayer's total valence
  BVA  - Mayer's bonded valence
  FA   - Mayer's free valence

  ATOM       NA         ZA         QA         VA         BVA        FA
  0 O      8.7183     8.0000    -0.7183     1.4730     1.4730    -0.0000
  1 P     12.1183    15.0000     2.8817     2.7386     2.7386    -0.0000
  2 O      8.9550     8.0000    -0.9550     1.4831     1.4831    -0.0000
  3 O      8.7412     8.0000    -0.7412     1.7231     1.7231    -0.0000
  4 O      8.2518     8.0000    -0.2518     1.7625     1.7625    -0.0000
  5 H      0.7666     1.0000     0.2334     0.9907     0.9907     0.0000
  6 O      8.7585     8.0000    -0.7585     1.8779     1.8779     0.0000
  7 H      0.8517     1.0000     0.1483     1.1439     1.1439    -0.0000
  8 H      0.8386     1.0000     0.1614     1.1165     1.1165    -0.0000

  Mayer bond orders larger than 0.100000
B(  0-O ,  1-P ) :   0.4243 B(  0-O ,  4-O ) :   0.8566 B(  0-O ,  6-O ) :   0.1268 
B(  1-P ,  2-O ) :   1.2321 B(  1-P ,  3-O ) :   0.5783 B(  1-P ,  6-O ) :   0.5611 
B(  3-O ,  8-H ) :   1.0469 B(  4-O ,  5-H ) :   0.9473 B(  6-O ,  7-H ) :   1.0899 


-------
TIMINGS
-------

Total SCF time: 0 days 0 hours 0 min 26 sec 

Total time                  ....      26.635 sec
Sum of individual times     ....      23.762 sec  ( 89.2%)

Fock matrix formation       ....       5.202 sec  ( 19.5%)
Diagonalization             ....       0.729 sec  (  2.7%)
Density matrix formation    ....       0.066 sec  (  0.2%)
Population analysis         ....       0.180 sec  (  0.7%)
Initial guess               ....       0.740 sec  (  2.8%)
Orbital Transformation      ....       0.000 sec  (  0.0%)
Orbital Orthonormalization  ....       0.000 sec  (  0.0%)
DIIS solution               ....       0.325 sec  (  1.2%)
SOSCF solution              ....       0.102 sec  (  0.4%)
SCF Stability Analysis      ....      14.113 sec  ( 53.0%)

Maximum memory used throughout the entire SCF-calculation: 230.0 MB


           ************************************************************
           *        Program running with 16 parallel MPI-processes    *
           *              working on a common directory               *
           ************************************************************

------------------------------------------------------------------------------
                                ORCA  MP2 
------------------------------------------------------------------------------

Freezing NCore=20 chemical core electrons

-------------
RI-MP2 ENERGY
-------------
Dimension of the basis                    ...  169
Memory devoted to MP2                     ... 3800 MB   
Data format for buffers                   ... DOUBLE
Compression type for matrix containers    ... UNCOMPRESSED
Overall scaling of the MP2 energy         ...   1.000e+00
Calculating two index integrals           ... done (    0.006 sec)
Cholesky decomposition of V**-1           ... done (    0.055 sec)

-----------------
RI-TRANSFORMATION (AUX index driven)
-----------------

Dimension of the orbital-basis         ... 169
Dimension of the aux-basis             ... 521
Transformation of internal/external MOs...   10-  28 to   29- 168
Number Format for Storage              ... Double (8 Byte)
Integral mode                          ... Direct

First Phase: integral generation and transformation of MO indices
  Aux angular momentum 0               ... done (    0.020 sec)
  Aux angular momentum 1               ... done (    0.006 sec)
  Aux angular momentum 2               ... done (    0.008 sec)
  Aux angular momentum 3               ... done (    0.007 sec)
Closing buffer VIA ( 0.01 GB; CompressionRatio= 1.00)
  Phase 1 completed in     1.197 sec
Second Phase: sorting and transformation of aux index

IA-Transformation
Memory available                       ... 3756 MB 
Max. # MO pairs treated in a batch     ... 2    
# of internal orbitals                 ... 19
# batches for internal orbitals        ... 1
Closing buffer IAV ( 0.01 GB; CompressionRatio= 1.00)
(ia|v) transformation done in     1.820 sec

  Phase 2 completed in     2.668 sec
RI-Integral transformation completed in     4.066 sec
Opening buffers                              ... done

Starting loop over batches of integrals:

Operator 0  - window                       ... ( 10- 28)x( 29-168)
Operator 0  - Memory available             ...  3800 MB
Operator 0  - Memory needed per MO         ...   0.6 MB
Operator 0  - Number of orbitals per batch ... 2
Operator 0  - Number of batches            ... 1

OPERATOR  0   PASS   0:  MOs    10 ...   11 +   12 ...   13 +   14 ...   15 +   16 ...   17
                            +   18 ...   19 +   20 ...   21 +   22 ...   23 +   24 ...   25
                            +   26 ...   27 +   28 ...   28
  Reading integrals       ... ok
Time spent in pair loops =     0.003 sec
Deleting buffer (Ka|jb)[aa] ...done

-----------------------------------------------
 RI-MP2 CORRELATION ENERGY:     -1.120577346 Eh
-----------------------------------------------


-------
TIMINGS
-------

Total time                :    4.695 sec
Integral trafo            :    4.078 sec ( 86.9%)
I/O of integrals          :    0.001 sec (  0.0%)
K(i,j) Operators          :    0.002 sec (  0.0%)
T(i,j) pair energies      :    0.000 sec (  0.0%)
V-calculation             :    0.006 sec (  0.1%)
V**(-1/2)                 :    0.055 sec (  1.2%)
Gamma(ia|P)               :    0.000 sec (  0.0%)
Gamma-Trafo               :    0.000 sec (  0.0%)
D(virtual)                :    0.000 sec (  0.0%)
D(internal)               :    0.000 sec (  0.0%)
W(virtual)                :    0.000 sec (  0.0%)
W(internal)               :    0.000 sec (  0.0%)
L(virtual)                :    0.000 sec (  0.0%)
L(internal)               :    0.000 sec (  0.0%)
G(D)                      :    0.000 sec (  0.0%)
G(Z)                      :    0.000 sec (  0.0%)
Z-Vector Solution         :    0.000 sec (  0.0%)
3-Index Derivative        :    0.000 sec (  0.0%)
2-Index Derivative        :    0.000 sec (  0.0%)
Separable Gradient        :    0.000 sec (  0.0%)


---------------------------------------
MP2 TOTAL ENERGY:     -717.965577444 Eh
---------------------------------------

Maximum memory used throughout the entire MP2-calculation: 87.0 MB

-------------------------   --------------------
FINAL SINGLE POINT ENERGY      -717.965577444254
-------------------------   --------------------


                            ***************************************
                            *     ORCA property calculations      *
                            ***************************************


  WARNING: The energy has been calculated at the MP2 level but the densities
           used in the property calculations are still SCF densities
           MP2 response densities have not been calculated 
           use %mp2 Density relaxed end
           or  %mp2 Density unrelaxed end

                                    ---------------------
                                    Active property flags
                                    ---------------------
   (+) Dipole Moment


------------------------------------------------------------------------------
                       ORCA ELECTRIC PROPERTIES CALCULATION
------------------------------------------------------------------------------

Dipole Moment Calculation                       ... on
Quadrupole Moment Calculation                   ... off
Polarizability Calculation                      ... off
GBWName                                         ... DZ_P-O_16_AB.gbw
Electron density                                ... DZ_P-O_16_AB.scfp
The origin for moment calculation is the CENTER OF MASS  = (-0.005489, -0.003425 -0.009586)

-------------
DIPOLE MOMENT
-------------
                                X             Y             Z
Electronic contribution:     -0.50695      -0.28692      -0.29210
Nuclear contribution   :      0.31835       0.19863       0.55600
                        -----------------------------------------
Total Dipole Moment    :     -0.18860      -0.08829       0.26390
                        -----------------------------------------
Magnitude (a.u.)       :      0.33617
Magnitude (Debye)      :      0.85447



--------------------
Rotational spectrum 
--------------------
 
Rotational constants in cm-1:     0.147327     0.087473     0.086219 
Rotational constants in MHz :  4416.746814  2622.384565  2584.777126 

 Dipole components along the rotational axes: 
x,y,z [a.u.] :    -0.192343    -0.041708     0.272531 
x,y,z [Debye]:    -0.488897    -0.106013     0.692720 

 

Timings for individual modules:

Sum of individual times         ...       39.090 sec (=   0.651 min)
GTO integral calculation        ...        4.612 sec (=   0.077 min)  11.8 %
SCF iterations                  ...       27.655 sec (=   0.461 min)  70.7 %
MP2 module                      ...        6.823 sec (=   0.114 min)  17.5 %


                 $$$$$$$$$$$$$$$$  JOB NUMBER  2 $$$$$$$$$$$$$$


                       ****************************
                       * Single Point Calculation *
                       ****************************

---------------------------------
CARTESIAN COORDINATES (ANGSTROEM)
---------------------------------
  O      0.907592   -0.757333   -0.496631
  P     -0.359634    0.034045    0.112958
  O     -0.261851    0.283258    1.545107
  O     -1.508101   -0.908414   -0.403258
  O      2.081505   -0.012016   -0.144054
  H      2.205624   -0.265634    0.785066
  O     -0.542328    1.300448   -0.799726
  H     -0.495721    2.124344   -0.302262
  H     -1.729922   -1.616943    0.211329

----------------------------
CARTESIAN COORDINATES (A.U.)
----------------------------
  NO LB      ZA    FRAG     MASS         X           Y           Z
   0 O     8.0000    0    15.999    1.715100   -1.431152   -0.938497
   1 P    15.0000    0    30.974   -0.679610    0.064336    0.213460
   2 O     8.0000    0    15.999   -0.494827    0.535280    2.919829
   3 O     8.0000    0    15.999   -2.849898   -1.716654   -0.762047
   4 O     8.0000    0    15.999    3.933474   -0.022707   -0.272223
   5 H     1.0000    0     1.008    4.168025   -0.501976    1.483560
   6 O     8.0000    0    15.999   -1.024851    2.457491   -1.511263
   7 H     1.0000    0     1.008   -0.936777    4.014428   -0.571192
   8 H     1.0000    0     1.008   -3.269079   -3.055579    0.399354

--------------------------------
INTERNAL COORDINATES (ANGSTROEM)
--------------------------------
 O      0   0   0     0.000000000000     0.00000000     0.00000000
 P      1   0   0     1.613610740817     0.00000000     0.00000000
 O      2   1   0     1.456955521853   113.73641644     0.00000000
 O      2   1   3     1.572795083737    98.95050692   233.58788741
 O      1   2   3     1.434531178813   107.15753573   305.19553978
 H      5   1   2     0.971077540923   101.77454068    78.08085351
 O      2   1   3     1.571669729905   105.49115045   128.42997591
 H      7   2   1     0.963559682926   112.55354380   237.82139061
 H      4   2   1     0.963812782884   113.53290423    89.93567477

---------------------------
INTERNAL COORDINATES (A.U.)
---------------------------
 O      0   0   0     0.000000000000     0.00000000     0.00000000
 P      1   0   0     3.049282386899     0.00000000     0.00000000
 O      2   1   0     2.753246925607   113.73641644     0.00000000
 O      2   1   3     2.972151973040    98.95050692   233.58788741
 O      1   2   3     2.710871058528   107.15753573   305.19553978
 H      5   1   2     1.835070607146   101.77454068    78.08085351
 O      2   1   3     2.970025362495   105.49115045   128.42997591
 H      7   2   1     1.820863914419   112.55354380   237.82139061
 H      4   2   1     1.821342204024   113.53290423    89.93567477

---------------------
BASIS SET INFORMATION
---------------------
There are 3 groups of distinct atoms

 Group   1 Type O   : 19s6p3d2f contracted to 5s4p3d2f pattern {88111/3111/111/11}
 Group   2 Type P   : 42s17p3d2f contracted to 6s5p3d2f pattern {131313111/77111/111/11}
 Group   3 Type H   : 6s3p2d contracted to 4s3p2d pattern {3111/111/11}

Atom   0O    basis set group =>   1
Atom   1P    basis set group =>   2
Atom   2O    basis set group =>   1
Atom   3O    basis set group =>   1
Atom   4O    basis set group =>   1
Atom   5H    basis set group =>   3
Atom   6O    basis set group =>   1
Atom   7H    basis set group =>   3
Atom   8H    basis set group =>   3
---------------------------------
AUXILIARY/C BASIS SET INFORMATION
---------------------------------
There are 3 groups of distinct atoms

 Group   1 Type O   : 9s7p6d4f2g contracted to 9s7p6d4f2g pattern {111111111/1111111/111111/1111/11}
 Group   2 Type P   : 11s9p8d6f3g contracted to 11s9p8d6f3g pattern {11111111111/111111111/11111111/111111/111}
 Group   3 Type H   : 5s4p3d2f contracted to 5s4p3d2f pattern {11111/1111/111/11}

Atom   0O    basis set group =>   1
Atom   1P    basis set group =>   2
Atom   2O    basis set group =>   1
Atom   3O    basis set group =>   1
Atom   4O    basis set group =>   1
Atom   5H    basis set group =>   3
Atom   6O    basis set group =>   1
Atom   7H    basis set group =>   3
Atom   8H    basis set group =>   3


           ************************************************************
           *        Program running with 16 parallel MPI-processes    *
           *              working on a common directory               *
           ************************************************************
------------------------------------------------------------------------------
                           ORCA GTO INTEGRAL CALCULATION
------------------------------------------------------------------------------
------------------------------------------------------------------------------
                   ___                                                        
                  /   \      - P O W E R E D   B Y -                         
                 /     \                                                     
                 |  |  |   _    _      __       _____    __    __             
                 |  |  |  | |  | |    /  \     |  _  \  |  |  /  |          
                  \  \/   | |  | |   /    \    | | | |  |  | /  /          
                 / \  \   | |__| |  /  /\  \   | |_| |  |  |/  /          
                |  |  |   |  __  | /  /__\  \  |    /   |      \           
                |  |  |   | |  | | |   __   |  |    \   |  |\   \          
                \     /   | |  | | |  |  |  |  | |\  \  |  | \   \       
                 \___/    |_|  |_| |__|  |__|  |_| \__\ |__|  \__/        
                                                                              
                      - O R C A' S   B I G   F R I E N D -                    
                                      &                                       
                       - I N T E G R A L  F E E D E R -                       
                                                                              
 v1 FN, 2020, v2 2021                                                         
------------------------------------------------------------------------------


Reading SHARK input file TZ_P-O_16_AB.SHARKINP.tmp ... ok
----------------------
SHARK INTEGRAL PACKAGE
----------------------

Number of atoms                             ...      9
Number of basis functions                   ...    404
Number of shells                            ...    158
Maximum angular momentum                    ...      3
Integral batch strategy                     ... SHARK/LIBINT Hybrid
RI-J (if used) integral strategy            ... SPLIT-RIJ (Revised 2003 algorithm where possible)
Printlevel                                  ...      1
Contraction scheme used                     ... PARTIAL GENERAL contraction
Coulomb Range Separation                    ... NOT USED
Exchange Range Separation                   ... NOT USED
Finite Nucleus Model                        ... NOT USED
Auxiliary Coulomb fitting basis             ... NOT available
Auxiliary J/K fitting basis                 ... NOT available
Auxiliary Correlation fitting basis         ... AVAILABLE
   # of basis functions in Aux-C            ...    815
   # of shells in Aux-C                     ...    219
   Maximum angular momentum in Aux-C        ...      4
Auxiliary 'external' fitting basis          ... NOT available
Integral threshold                          ...     2.500000e-11
Primitive cut-off                           ...     2.500000e-12
Primitive pair pre-selection threshold      ...     2.500000e-12

Calculating pre-screening integrals         ... done (  0.0 sec) Dimension = 158
Calculating pre-screening integrals (ORCA)  ... done (  0.1 sec) Dimension = 113
Organizing shell pair data                  ... done (  0.1 sec)
Shell pair information
Total number of shell pairs                 ...     12561
Shell pairs after pre-screening             ...     10603
Total number of primitive shell pairs       ...     15249
Primitive shell pairs kept                  ...     12152
          la=0 lb=0:   2365 shell pairs
          la=1 lb=0:   2790 shell pairs
          la=1 lb=1:    758 shell pairs
          la=2 lb=0:   1769 shell pairs
          la=2 lb=1:    911 shell pairs
          la=2 lb=2:    294 shell pairs
          la=3 lb=0:    890 shell pairs
          la=3 lb=1:    463 shell pairs
          la=3 lb=2:    285 shell pairs
          la=3 lb=3:     78 shell pairs

Calculating one electron integrals          ... done (  0.0 sec)
Calculating RI/C V-Matrix + Cholesky decomp.... done (  1.7 sec)
Calculating Nuclear repulsion               ... done (  0.0 sec) ENN=    366.690947608981 Eh

SHARK setup successfully completed in   3.0 seconds

Maximum memory used throughout the entire GTOINT-calculation: 56.0 MB


           ************************************************************
           *        Program running with 16 parallel MPI-processes    *
           *              working on a common directory               *
           ************************************************************
-------------------------------------------------------------------------------
                                 ORCA SCF
-------------------------------------------------------------------------------

------------
SCF SETTINGS
------------
Hamiltonian:
 Ab initio Hamiltonian  Method          .... Hartree-Fock(GTOs)


General Settings:
 Integral files         IntName         .... TZ_P-O_16_AB
 Hartree-Fock type      HFTyp           .... RHF
 Total Charge           Charge          ....    0
 Multiplicity           Mult            ....    1
 Number of Electrons    NEL             ....   58
 Basis Dimension        Dim             ....  349
 Nuclear Repulsion      ENuc            ....    366.6909476090 Eh

Convergence Acceleration:
 DIIS                   CNVDIIS         .... on
   Start iteration      DIISMaxIt       ....    12
   Startup error        DIISStart       ....  0.200000
   # of expansion vecs  DIISMaxEq       ....     5
   Bias factor          DIISBfac        ....   1.050
   Max. coefficient     DIISMaxC        ....  10.000
 Trust-Rad. Augm. Hess. CNVTRAH         .... auto
   Auto Start mean grad. ratio tolernc. ....  1.125000
   Auto Start start iteration           ....     1
   Auto Start num. interpolation iter.  ....    10
   Max. Number of Micro iterations      ....    16
   Max. Number of Macro iterations      .... Maxiter - #DIIS iter
   Number of Davidson start vectors     ....     2
   Converg. threshold I  (grad. norm)   ....   1.000e-05
   Converg. threshold II (energy diff.) ....   1.000e-08
   Grad. Scal. Fac. for Micro threshold ....   0.100
   Minimum threshold for Micro iter.    ....   0.010
   NR start threshold (gradient norm)   ....   0.001
   Initial trust radius                 ....   0.400
   Minimum AH scaling param. (alpha)    ....   1.000
   Maximum AH scaling param. (alpha)    .... 1000.000
   Orbital update algorithm             .... Taylor
   White noise on init. David. guess    .... on
   Maximum white noise                  ....   0.010
   Quad. conv. algorithm                .... NR
 SOSCF                  CNVSOSCF        .... on
   Start iteration      SOSCFMaxIt      ....   150
   Startup grad/error   SOSCFStart      ....  0.003300
 Level Shifting         CNVShift        .... on
   Level shift para.    LevelShift      ....    0.2500
   Turn off err/grad.   ShiftErr        ....    0.0010
 Zerner damping         CNVZerner       .... off
 Static damping         CNVDamp         .... on
   Fraction old density DampFac         ....    0.7000
   Max. Damping (<1)    DampMax         ....    0.9800
   Min. Damping (>=0)   DampMin         ....    0.0000
   Turn off err/grad.   DampErr         ....    0.1000
 Fernandez-Rico         CNVRico         .... off

SCF Procedure:
 Maximum # iterations   MaxIter         ....   125
 SCF integral mode      SCFMode         .... Direct
   Integral package                     .... SHARK and LIBINT hybrid scheme
 Reset frequency        DirectResetFreq ....    20
 Integral Threshold     Thresh          ....  2.500e-11 Eh
 Primitive CutOff       TCut            ....  2.500e-12 Eh

Convergence Tolerance:
 Convergence Check Mode ConvCheckMode   .... Total+1el-Energy
 Convergence forced     ConvForced      .... 1
 Energy Change          TolE            ....  1.000e-08 Eh
 1-El. energy change                    ....  1.000e-05 Eh
 Orbital Gradient       TolG            ....  1.000e-05
 Orbital Rotation angle TolX            ....  1.000e-05
 DIIS Error             TolErr          ....  5.000e-07


Diagonalization of the overlap matrix:
Smallest eigenvalue                        ... 8.299e-05
Time for diagonalization                   ...    0.014 sec
Threshold for overlap eigenvalues          ... 1.000e-08
Number of eigenvalues below threshold      ... 0
Time for construction of square roots      ...    0.047 sec
Total time needed                          ...    0.062 sec

---------------------
INITIAL GUESS: MOREAD
---------------------
Guess MOs are being read from file: DZ_P-O_16_AB.gbw
Input Geometry matches current geometry (good)
Atom 0: N(Shells)= 14 and 9 - projection required
Input basis set needs projection
NBasis(read)= 169
NBasis(calc)= 349
Basis set overlap was calculated
Using GuessMode=FMatrix for the initial guess
C*T matrix was formed
Effective Fockian was calculated
Effective Fockian was diagonalized
Initial density was built
                      ------------------
                      INITIAL GUESS DONE (   0.1 sec)
                      ------------------
--------------
SCF ITERATIONS
--------------
ITER       Energy         Delta-E        Max-DP      RMS-DP      [F,P]     Damp
               ***  Starting incremental Fock matrix formation  ***
  0   -716.9223539776   0.000000000000 0.12065802  0.00144690  0.0843112 0.7000
                      *** Initiating the SOSCF procedure ***
                      *** Re-Reading the Fockian *** 
                      *** Removing any level shift *** 
ITER      Energy       Delta-E        Grad      Rot      Max-DP    RMS-DP
  1   -716.94333227  -0.0209782909  0.001029  0.001029  0.291131  0.003539
               *** Restarting incremental Fock matrix formation ***
  2   -716.99685823  -0.0535259653  0.002316  0.001340  0.023573  0.000399
  3   -716.99750040  -0.0006421656  0.000564  0.000532  0.005037  0.000086
  4   -716.99753713  -0.0000367267  0.000254  0.000173  0.001558  0.000020
  5   -716.99754156  -0.0000044325  0.000098  0.000094  0.000497  0.000009
  6   -716.99754204  -0.0000004849  0.000028  0.000029  0.000070  0.000001
  7   -716.99754212  -0.0000000794  0.000007  0.000014  0.000027  0.000001
[...]
      g0      :     0.000152  g :     0.001099
      g+1     :     0.000036
      g-1     :     0.000017
      g+2     :     0.000113
      g-2     :     0.000190
      g+3     :     0.000107
      g-3     :     0.000117
      g+4     :     0.000105
      g-4     :     0.000261
  4 O s       :     3.908857  s :     3.908857
      pz      :     1.444237  p :     4.399531
      px      :     1.272994
      py      :     1.682299
      dz2     :     0.022285  d :     0.044723
      dxz     :    -0.003107
      dyz     :     0.006122
      dx2y2   :     0.007587
      dxy     :     0.011836
      f0      :     0.002174  f :     0.014251
      f+1     :     0.002331
      f-1     :     0.001701
      f+2     :     0.000907
      f-2     :     0.001358
      f+3     :     0.003110
      f-3     :     0.002670
      g0      :     0.000173  g :     0.002023
      g+1     :     0.000331
      g-1     :     0.000183
      g+2     :     0.000048
      g-2     :     0.000273
      g+3     :     0.000035
      g-3     :     0.000290
      g+4     :     0.000363
      g-4     :     0.000328
  5 H s       :     0.538571  s :     0.538571
      pz      :     0.013502  p :     0.065838
      px      :     0.022650
      py      :     0.029686
      dz2     :     0.000580  d :     0.010555
      dxz     :     0.004049
      dyz     :     0.006034
      dx2y2   :     0.000584
      dxy     :    -0.000691
      f0      :     0.000121  f :    -0.000009
      f+1     :    -0.000588
      f-1     :     0.000209
      f+2     :     0.000250
      f-2     :    -0.000163
      f+3     :     0.000021
      f-3     :     0.000141
  6 O s       :     3.942310  s :     3.942310
      pz      :     1.617369  p :     4.850739
      px      :     1.887946
      py      :     1.345423
      dz2     :     0.002513  d :     0.038461
      dxz     :     0.007474
      dyz     :     0.020531
      dx2y2   :     0.004443
      dxy     :     0.003500
      f0      :     0.000457  f :     0.003788
      f+1     :     0.000005
      f-1     :     0.000216
      f+2     :     0.001400
      f-2     :     0.000504
      f+3     :     0.000486
      f-3     :     0.000720
      g0      :     0.000039  g :     0.000935
      g+1     :     0.000025
      g-1     :     0.000229
      g+2     :     0.000094
      g-2     :     0.000047
      g+3     :     0.000126
      g-3     :     0.000153
      g+4     :     0.000056
      g-4     :     0.000167
  7 H s       :     0.540441  s :     0.540441
      pz      :     0.015119  p :     0.074198
      px      :     0.039470
      py      :     0.019610
      dz2     :     0.003524  d :     0.013931
      dxz     :     0.003741
      dyz     :     0.000430
      dx2y2   :     0.000911
      dxy     :     0.005327
      f0      :     0.000039  f :    -0.000675
      f+1     :     0.000014
      f-1     :    -0.000584
      f+2     :     0.000014
      f-2     :     0.000519
      f+3     :    -0.000485
      f-3     :    -0.000191
  8 H s       :     0.518961  s :     0.518961
      pz      :     0.019838  p :     0.077231
      px      :     0.030665
      py      :     0.026728
      dz2     :     0.006051  d :     0.009291
      dxz     :     0.002719
      dyz     :    -0.001107
      dx2y2   :     0.000306
      dxy     :     0.001322
      f0      :    -0.000205  f :    -0.001477
      f+1     :     0.000118
      f-1     :    -0.000076
      f+2     :    -0.000112
      f-2     :    -0.000348
      f+3     :    -0.000398
      f-3     :    -0.000457


                     *******************************
                     * LOEWDIN POPULATION ANALYSIS *
                     *******************************

----------------------
LOEWDIN ATOMIC CHARGES
----------------------
   0 O :    0.315834
   1 P :   -1.064309
   2 O :    0.303524
   3 O :    1.082695
   4 O :    0.883639
   5 H :   -0.907531
   6 O :    1.094491
   7 H :   -0.858932
   8 H :   -0.849411

-------------------------------
LOEWDIN REDUCED ORBITAL CHARGES
-------------------------------
  0 O s       :     3.029326  s :     3.029326
      pz      :     1.396117  p :     3.764680
      px      :     1.052949
      py      :     1.315613
      dz2     :     0.078415  d :     0.532130
      dxz     :     0.112638
      dyz     :     0.043441
      dx2y2   :     0.145141
      dxy     :     0.152496
      f0      :     0.020513  f :     0.299258
      f+1     :     0.053902
      f-1     :     0.020968
      f+2     :     0.025205
      f-2     :     0.047206
      f+3     :     0.081778
      f-3     :     0.049685
      g0      :     0.005246  g :     0.058772
      g+1     :     0.004292
      g-1     :     0.002216
      g+2     :     0.002951
      g-2     :     0.008443
      g+3     :     0.005040
      g-3     :     0.008297
      g+4     :     0.011581
      g-4     :     0.010706
  1 P s       :     4.259628  s :     4.259628
      pz      :     2.553116  p :     7.425123
      px      :     2.430517
      py      :     2.441491
      dz2     :     0.463567  d :     1.967893
      dxz     :     0.391231
      dyz     :     0.458604
      dx2y2   :     0.285359
      dxy     :     0.369131
      f0      :     0.234164  f :     1.584492
      f+1     :     0.257797
      f-1     :     0.308016
      f+2     :     0.148673
      f-2     :     0.226148
      f+3     :     0.230602
      f-3     :     0.179092
      g0      :     0.118599  g :     0.827173
      g+1     :     0.094815
      g-1     :     0.103690
      g+2     :     0.071501
      g-2     :     0.093350
      g+3     :     0.095631
      g-3     :     0.081471
      g+4     :     0.086636
      g-4     :     0.081479
  2 O s       :     3.207679  s :     3.207679
      pz      :     1.469324  p :     4.169402
      px      :     1.346220
      py      :     1.353858
      dz2     :     0.069798  d :     0.189325
      dxz     :     0.044011
      dyz     :     0.051559
      dx2y2   :     0.010605
      dxy     :     0.013350
      f0      :     0.034723  f :     0.097965
      f+1     :     0.019593
      f-1     :     0.026021
      f+2     :     0.004912
      f-2     :     0.010089
      f+3     :     0.001598
      f-3     :     0.001028
      g0      :     0.016180  g :     0.032104
      g+1     :     0.004491
      g-1     :     0.008344
      g+2     :     0.000845
      g-2     :     0.001516
      g+3     :     0.000345
      g-3     :     0.000257
      g+4     :     0.000075
      g-4     :     0.000051
  3 O s       :     2.909058  s :     2.909058
      pz      :     1.237639  p :     3.640187
      px      :     1.221703
      py      :     1.180845
      dz2     :     0.037163  d :     0.239783
      dxz     :     0.037030
      dyz     :     0.053239
      dx2y2   :     0.062474
      dxy     :     0.049877
      f0      :     0.008149  f :     0.108417
      f+1     :     0.015211
      f-1     :     0.014384
      f+2     :     0.009306
      f-2     :     0.017291
      f+3     :     0.026251
      f-3     :     0.017824
      g0      :     0.001285  g :     0.019861
      g+1     :     0.002284
      g-1     :     0.001629
      g+2     :     0.001122
      g-2     :     0.001919
      g+3     :     0.001720
      g-3     :     0.003539
      g+4     :     0.003937
      g-4     :     0.002425
  4 O s       :     2.957700  s :     2.957700
      pz      :     1.210531  p :     3.481078
      px      :     1.025599
      py      :     1.244948
      dz2     :     0.075506  d :     0.392992
      dxz     :     0.096905
      dyz     :     0.034659
      dx2y2   :     0.087978
      dxy     :     0.097944
      f0      :     0.028793  f :     0.232595
      f+1     :     0.029299
      f-1     :     0.018321
      f+2     :     0.018130
      f-2     :     0.037917
      f+3     :     0.064601
      f-3     :     0.035535
      g0      :     0.004902  g :     0.051995
      g+1     :     0.004768
      g-1     :     0.002816
      g+2     :     0.002383
      g-2     :     0.006715
      g+3     :     0.003357
      g-3     :     0.007247
      g+4     :     0.012371
      g-4     :     0.007436
  5 H s       :     0.587960  s :     0.587960
      pz      :     0.272049  p :     0.569660
      px      :     0.144643
      py      :     0.152968
      dz2     :     0.149511  d :     0.490044
      dxz     :     0.136439
      dyz     :     0.142998
      dx2y2   :     0.037340
      dxy     :     0.023755
      f0      :     0.072146  f :     0.259867
      f+1     :     0.063119
      f-1     :     0.065413
      f+2     :     0.028331
      f-2     :     0.020284
      f+3     :     0.005193
      f-3     :     0.005382
  6 O s       :     2.909024  s :     2.909024
      pz      :     1.248859  p :     3.639962
      px      :     1.249649
      py      :     1.141455
      dz2     :     0.049624  d :     0.232088
      dxz     :     0.016120
      dyz     :     0.074656
      dx2y2   :     0.043540
      dxy     :     0.048148
      f0      :     0.013740  f :     0.104698
      f+1     :     0.005897
      f-1     :     0.024253
      f+2     :     0.018902
      f-2     :     0.010384
      f+3     :     0.019121
      f-3     :     0.012401
      g0      :     0.002157  g :     0.019736
      g+1     :     0.000410
      g-1     :     0.003100
      g+2     :     0.003556
      g-2     :     0.001025
      g+3     :     0.002116
      g-3     :     0.004615
      g+4     :     0.001350
      g-4     :     0.001408
  7 H s       :     0.575338  s :     0.575338
      pz      :     0.193939  p :     0.570355
      px      :     0.150152
      py      :     0.226264
      dz2     :     0.089343  d :     0.473938
      dxz     :     0.038778
      dyz     :     0.141878
      dx2y2   :     0.091373
      dxy     :     0.112566
      f0      :     0.011392  f :     0.239301
      f+1     :     0.000602
      f-1     :     0.077581
      f+2     :     0.037284
      f-2     :     0.036901
      f+3     :     0.044813
      f-3     :     0.030727
  8 H s       :     0.578125  s :     0.578125
      pz      :     0.206997  p :     0.568327
      px      :     0.151583
      py      :     0.209747
      dz2     :     0.114681  d :     0.466741
      dxz     :     0.062161
      dyz     :     0.111404
      dx2y2   :     0.081785
      dxy     :     0.096710
      f0      :     0.023172  f :     0.236219
      f+1     :     0.011601
      f-1     :     0.064998
      f+2     :     0.037729
      f-2     :     0.042626
      f+3     :     0.027762
      f-3     :     0.028330


                      *****************************
                      * MAYER POPULATION ANALYSIS *
                      *****************************

  NA   - Mulliken gross atomic population
  ZA   - Total nuclear charge
  QA   - Mulliken gross atomic charge
  VA   - Mayer's total valence
  BVA  - Mayer's bonded valence
  FA   - Mayer's free valence

  ATOM       NA         ZA         QA         VA         BVA        FA
  0 O      8.5319     8.0000    -0.5319     1.3610     1.3610    -0.0000
  1 P     12.4549    15.0000     2.5451     3.5475     3.5475     0.0000
  2 O      9.0826     8.0000    -1.0826     1.2189     1.2189    -0.0000
  3 O      8.8781     8.0000    -0.8781     1.3804     1.3804     0.0000
  4 O      8.3694     8.0000    -0.3694     1.6528     1.6528    -0.0000
  5 H      0.6150     1.0000     0.3850     0.8752     0.8752    -0.0000
  6 O      8.8362     8.0000    -0.8362     1.5122     1.5122     0.0000
  7 H      0.6279     1.0000     0.3721     0.8638     0.8638    -0.0000
  8 H      0.6040     1.0000     0.3960     0.8477     0.8477    -0.0000

  Mayer bond orders larger than 0.100000
B(  0-O ,  1-P ) :   0.6718 B(  0-O ,  4-O ) :   0.8211 B(  1-P ,  2-O ) :   1.4680 
B(  1-P ,  3-O ) :   0.6545 B(  1-P ,  6-O ) :   0.7106 B(  3-O ,  8-H ) :   0.8745 
B(  4-O ,  5-H ) :   0.8697 B(  6-O ,  7-H ) :   0.8987 

-------
TIMINGS
-------

Total SCF time: 0 days 0 hours 21 min 5 sec 

Total time                  ....    1265.962 sec
Sum of individual times     ....    1263.199 sec  ( 99.8%)

Fock matrix formation       ....     264.808 sec  ( 20.9%)
Diagonalization             ....       1.428 sec  (  0.1%)
Density matrix formation    ....       0.031 sec  (  0.0%)
Population analysis         ....       1.954 sec  (  0.2%)
Initial guess               ....       0.173 sec  (  0.0%)
Orbital Transformation      ....       0.000 sec  (  0.0%)
Orbital Orthonormalization  ....       0.000 sec  (  0.0%)
DIIS solution               ....       1.554 sec  (  0.1%)
SOSCF solution              ....       0.537 sec  (  0.0%)
SCF Stability Analysis      ....     992.716 sec  ( 78.4%)

Maximum memory used throughout the entire SCF-calculation: 262.0 MB


           ************************************************************
           *        Program running with 16 parallel MPI-processes    *
           *              working on a common directory               *
           ************************************************************

------------------------------------------------------------------------------
                                ORCA  MP2 
------------------------------------------------------------------------------

Freezing NCore=20 chemical core electrons

-------------
RI-MP2 ENERGY
-------------
Dimension of the basis                    ...  622
Memory devoted to MP2                     ... 3800 MB   
Data format for buffers                   ... DOUBLE
Compression type for matrix containers    ... UNCOMPRESSED
Overall scaling of the MP2 energy         ...   1.000e+00
Calculating two index integrals           ... done (    0.014 sec)
Cholesky decomposition of V**-1           ... done (    0.139 sec)

-----------------
RI-TRANSFORMATION (AUX index driven)
-----------------

Dimension of the orbital-basis         ... 622
Dimension of the aux-basis             ... 1274
Transformation of internal/external MOs...   10-  28 to   29- 621
Number Format for Storage              ... Double (8 Byte)
Integral mode                          ... Direct

First Phase: integral generation and transformation of MO indices
  Aux angular momentum 0               ... done (    0.035 sec)
  Aux angular momentum 1               ... done (    0.072 sec)
  Aux angular momentum 2               ... done (    0.109 sec)
  Aux angular momentum 3               ... done (    0.130 sec)
  Aux angular momentum 4               ... done (    0.123 sec)
  Aux angular momentum 5               ... done (    0.094 sec)
Closing buffer VIA ( 0.11 GB; CompressionRatio= 1.00)
  Phase 1 completed in     3.559 sec
Second Phase: sorting and transformation of aux index

IA-Transformation
Memory available                       ... 3740 MB 
Max. # MO pairs treated in a batch     ... 2    
# of internal orbitals                 ... 19
# batches for internal orbitals        ... 1
Closing buffer IAV ( 0.11 GB; CompressionRatio= 1.00)
(ia|v) transformation done in     0.840 sec

  Phase 2 completed in     1.914 sec
RI-Integral transformation completed in     5.677 sec
Opening buffers                              ... done

Starting loop over batches of integrals:

Operator 0  - window                       ... ( 10- 28)x( 29-621)
Operator 0  - Memory available             ...  3800 MB
Operator 0  - Memory needed per MO         ...   5.8 MB
Operator 0  - Number of orbitals per batch ... 2
Operator 0  - Number of batches            ... 1

OPERATOR  0   PASS   0:  MOs    10 ...   11 +   12 ...   13 +   14 ...   15 +   16 ...   17
                            +   18 ...   19 +   20 ...   21 +   22 ...   23 +   24 ...   25
                            +   26 ...   27 +   28 ...   28
  Reading integrals       ... ok
Time spent in pair loops =     0.074 sec
Deleting buffer (Ka|jb)[aa] ...done

-----------------------------------------------
 RI-MP2 CORRELATION ENERGY:     -1.465328544 Eh
-----------------------------------------------


-------
TIMINGS
-------

Total time                :    9.350 sec
Integral trafo            :    5.689 sec ( 60.8%)
I/O of integrals          :    0.003 sec (  0.0%)
K(i,j) Operators          :    0.063 sec (  0.7%)
T(i,j) pair energies      :    0.003 sec (  0.0%)
V-calculation             :    0.014 sec (  0.1%)
V**(-1/2)                 :    0.139 sec (  1.5%)
Gamma(ia|P)               :    0.000 sec (  0.0%)
Gamma-Trafo               :    0.000 sec (  0.0%)
D(virtual)                :    0.000 sec (  0.0%)
D(internal)               :    0.000 sec (  0.0%)
W(virtual)                :    0.000 sec (  0.0%)
W(internal)               :    0.000 sec (  0.0%)
L(virtual)                :    0.000 sec (  0.0%)
L(internal)               :    0.000 sec (  0.0%)
G(D)                      :    0.000 sec (  0.0%)
G(Z)                      :    0.000 sec (  0.0%)
Z-Vector Solution         :    0.000 sec (  0.0%)
3-Index Derivative        :    0.000 sec (  0.0%)
2-Index Derivative        :    0.000 sec (  0.0%)
Separable Gradient        :    0.000 sec (  0.0%)


---------------------------------------
MP2 TOTAL ENERGY:     -718.500849261 Eh
---------------------------------------

Maximum memory used throughout the entire MP2-calculation: 144.6 MB

-------------------------   --------------------
FINAL SINGLE POINT ENERGY      -718.500849261258
-------------------------   --------------------


                            ***************************************
                            *     ORCA property calculations      *
                            ***************************************


  WARNING: The energy has been calculated at the MP2 level but the densities
           used in the property calculations are still SCF densities
           MP2 response densities have not been calculated 
           use %mp2 Density relaxed end
           or  %mp2 Density unrelaxed end

                                    ---------------------
                                    Active property flags
                                    ---------------------
   (+) Dipole Moment


------------------------------------------------------------------------------
                       ORCA ELECTRIC PROPERTIES CALCULATION
------------------------------------------------------------------------------

Dipole Moment Calculation                       ... on
Quadrupole Moment Calculation                   ... off
Polarizability Calculation                      ... off
GBWName                                         ... QZ_P-O_16_AB.gbw
Electron density                                ... QZ_P-O_16_AB.scfp
The origin for moment calculation is the CENTER OF MASS  = (-0.005489, -0.003425 -0.009586)

-------------
DIPOLE MOMENT
-------------
                                X             Y             Z
Electronic contribution:     -0.50478      -0.28818      -0.30474
Nuclear contribution   :      0.31835       0.19863       0.55600
                        -----------------------------------------
Total Dipole Moment    :     -0.18642      -0.08955       0.25125
                        -----------------------------------------
Magnitude (a.u.)       :      0.32542
Magnitude (Debye)      :      0.82716



--------------------
Rotational spectrum 
--------------------
 
Rotational constants in cm-1:     0.147327     0.087473     0.086219 
Rotational constants in MHz :  4416.746814  2622.384565  2584.777126 

 Dipole components along the rotational axes: 
x,y,z [a.u.] :    -0.189903    -0.034708     0.261979 
x,y,z [Debye]:    -0.482696    -0.088221     0.665899 

 

Timings for individual modules:

Sum of individual times         ...     1281.676 sec (=  21.361 min)
GTO integral calculation        ...        3.746 sec (=   0.062 min)   0.3 %
SCF iterations                  ...     1267.177 sec (=  21.120 min)  98.9 %
MP2 module                      ...       10.753 sec (=   0.179 min)   0.8 %



                             ****ORCA TERMINATED NORMALLY****
TOTAL RUN TIME: 0 days 0 hours 25 minutes 4 seconds 273 msec
