
                                 *****************
                                 * O   R   C   A *
                                 *****************

                                            #,                                       
                                            ###                                      
                                            ####                                     
                                            #####                                    
                                            ######                                   
                                           ########,                                 
                                     ,,################,,,,,                         
                               ,,#################################,,                 
                          ,,##########################################,,             
                       ,#########################################, ''#####,          
                    ,#############################################,,   '####,        
                  ,##################################################,,,,####,       
                ,###########''''           ''''###############################       
              ,#####''   ,,,,##########,,,,          '''####'''          '####       
            ,##' ,,,,###########################,,,                        '##       
           ' ,,###''''                  '''############,,,                           
         ,,##''                                '''############,,,,        ,,,,,,###''
      ,#''                                            '''#######################'''  
     '                                                          ''''####''''         
             ,#######,   #######,   ,#######,      ##                                
            ,#'     '#,  ##    ##  ,#'     '#,    #''#        ######   ,####,        
            ##       ##  ##   ,#'  ##            #'  '#       #        #'  '#        
            ##       ##  #######   ##           ,######,      #####,   #    #        
            '#,     ,#'  ##    ##  '#,     ,#' ,#      #,         ##   #,  ,#        
             '#######'   ##     ##  '#######'  #'      '#     #####' # '####'        



                  #######################################################
                  #                        -***-                        #
                  #          Department of theory and spectroscopy      #
                  #    Directorship and core code : Frank Neese         #
                  #        Max Planck Institute fuer Kohlenforschung    #
                  #                Kaiser Wilhelm Platz 1               #
                  #                 D-45470 Muelheim/Ruhr               #
                  #                      Germany                        #
                  #                                                     #
                  #                  All rights reserved                #
                  #                        -***-                        #
                  #######################################################


                         Program Version 5.0.4 -  RELEASE  -


 With contributions from (in alphabetic order):
   Daniel Aravena         : Magnetic Suceptibility
   Michael Atanasov       : Ab Initio Ligand Field Theory (pilot matlab implementation)
   Alexander A. Auer      : GIAO ZORA, VPT2 properties, NMR spectrum
   Ute Becker             : Parallelization
   Giovanni Bistoni       : ED, misc. LED, open-shell LED, HFLD
   Martin Brehm           : Molecular dynamics
   Dmytro Bykov           : SCF Hessian
   Vijay G. Chilkuri      : MRCI spin determinant printing, contributions to CSF-ICE
   Dipayan Datta          : RHF DLPNO-CCSD density
   Achintya Kumar Dutta   : EOM-CC, STEOM-CC
   Dmitry Ganyushin       : Spin-Orbit,Spin-Spin,Magnetic field MRCI
   Miquel Garcia          : C-PCM and meta-GGA Hessian, CC/C-PCM, Gaussian charge scheme
   Yang Guo               : DLPNO-NEVPT2, F12-NEVPT2, CIM, IAO-localization
   Andreas Hansen         : Spin unrestricted coupled pair/coupled cluster methods
   Benjamin Helmich-Paris : MC-RPA, TRAH-SCF, COSX integrals
   Lee Huntington         : MR-EOM, pCC
   Robert Izsak           : Overlap fitted RIJCOSX, COSX-SCS-MP3, EOM
   Marcus Kettner         : VPT2
   Christian Kollmar      : KDIIS, OOCD, Brueckner-CCSD(T), CCSD density, CASPT2, CASPT2-K
   Simone Kossmann        : Meta GGA functionals, TD-DFT gradient, OOMP2, MP2 Hessian
   Martin Krupicka        : Initial AUTO-CI
   Lucas Lang             : DCDCAS
   Marvin Lechner         : AUTO-CI (C++ implementation), FIC-MRCC
   Dagmar Lenk            : GEPOL surface, SMD
   Dimitrios Liakos       : Extrapolation schemes; Compound Job, initial MDCI parallelization
   Dimitrios Manganas     : Further ROCIS development; embedding schemes
   Dimitrios Pantazis     : SARC Basis sets
   Anastasios Papadopoulos: AUTO-CI, single reference methods and gradients
   Taras Petrenko         : DFT Hessian,TD-DFT gradient, ASA, ECA, R-Raman, ABS, FL, XAS/XES, NRVS
   Peter Pinski           : DLPNO-MP2, DLPNO-MP2 Gradient
   Christoph Reimann      : Effective Core Potentials
   Marius Retegan         : Local ZFS, SOC
   Christoph Riplinger    : Optimizer, TS searches, QM/MM, DLPNO-CCSD(T), (RO)-DLPNO pert. Triples
   Tobias Risthaus        : Range-separated hybrids, TD-DFT gradient, RPA, STAB
   Michael Roemelt        : Original ROCIS implementation
   Masaaki Saitow         : Open-shell DLPNO-CCSD energy and density
   Barbara Sandhoefer     : DKH picture change effects
   Avijit Sen             : IP-ROCIS
   Kantharuban Sivalingam : CASSCF convergence, NEVPT2, FIC-MRCI
   Bernardo de Souza      : ESD, SOC TD-DFT
   Georgi Stoychev        : AutoAux, RI-MP2 NMR, DLPNO-MP2 response
   Willem Van den Heuvel  : Paramagnetic NMR
   Boris Wezisla          : Elementary symmetry handling
   Frank Wennmohs         : Technical directorship


 We gratefully acknowledge several colleagues who have allowed us to
 interface, adapt or use parts of their codes:
   Stefan Grimme, W. Hujo, H. Kruse, P. Pracht,  : VdW corrections, initial TS optimization,
                  C. Bannwarth, S. Ehlert          DFT functionals, gCP, sTDA/sTD-DF
   Ed Valeev, F. Pavosevic, A. Kumar             : LibInt (2-el integral package), F12 methods
   Garnet Chan, S. Sharma, J. Yang, R. Olivares  : DMRG
   Ulf Ekstrom                                   : XCFun DFT Library
   Mihaly Kallay                                 : mrcc  (arbitrary order and MRCC methods)
   Jiri Pittner, Ondrej Demel                    : Mk-CCSD
   Frank Weinhold                                : gennbo (NPA and NBO analysis)
   Christopher J. Cramer and Donald G. Truhlar   : smd solvation model
   Lars Goerigk                                  : TD-DFT with DH, B97 family of functionals
   V. Asgeirsson, H. Jonsson                     : NEB implementation
   FAccTs GmbH                                   : IRC, NEB, NEB-TS, DLPNO-Multilevel, CI-OPT
                                                   MM, QMMM, 2- and 3-layer-ONIOM, Crystal-QMMM,
                                                   LR-CPCM, SF, NACMEs, symmetry and pop. for TD-DFT,
                                                   nearIR, NL-DFT gradient (VV10), updates on ESD,
                                                   ML-optimized integration grids
   S Lehtola, MJT Oliveira, MAL Marques          : LibXC Library
   Liviu Ungur et al                             : ANISO software


 Your calculation uses the libint2 library for the computation of 2-el integrals
 For citations please refer to: http://libint.valeyev.net

 Your ORCA version has been built with support for libXC version: 5.1.0
 For citations please refer to: https://tddft.org/programs/libxc/

 This ORCA versions uses:
   CBLAS   interface :  Fast vector & matrix operations
   LAPACKE interface :  Fast linear algebra routines
   SCALAPACK package :  Parallel linear algebra routines
   Shared memory     :  Shared parallel matrices
   BLAS/LAPACK       :  OpenBLAS 0.3.15  USE64BITINT DYNAMIC_ARCH NO_AFFINITY Zen SINGLE_THREADED
        Core in use  :  Zen
   Copyright (c) 2011-2014, The OpenBLAS Project


================================================================================

----- Orbital basis set information -----
Your calculation utilizes the basis: aug-cc-pVDZ 
    H, B-Ne : Obtained from the ccRepo (grant-hill.group.shef.ac.uk/ccrepo) Feb. 2017
              R. A. Kendall, T. H. Dunning, Jr., R. J. Harrison, J. Chem. Phys. 96, 6796 (1992)
         He : Obtained from the ccRepo (grant-hill.group.shef.ac.uk/ccrepo) Feb. 2017
              D. E. Woon, T. H. Dunning, Jr., J. Chem. Phys. 100, 2975 (1994)
  Li-Be, Na : Obtained from the ccRepo (grant-hill.group.shef.ac.uk/ccrepo) Feb. 2017
              B. P. Prascher, D. E. Woon, K. A. Peterson, T. H. Dunning, Jr., A. K. Wilson, Theor. Chem. Acc. 128, 69 (2011)
         Mg : Obtained from the Peterson Research Group Website (tyr0.chem.wsu.edu/~kipeters) Feb. 2017
              B. P. Prascher, D. E. Woon, K. A. Peterson, T. H. Dunning, Jr., A. K. Wilson, Theor. Chem. Acc. 128, 69 (2011)
      Al-Ar : Obtained from the ccRepo (grant-hill.group.shef.ac.uk/ccrepo) Feb. 2017
              D. E. Woon, T. H. Dunning, Jr., J. Chem. Phys. 98, 1358 (1993)
      Sc-Zn : Obtained from the ccRepo (grant-hill.group.shef.ac.uk/ccrepo) Feb. 2017
              N. B. Balabanov, K. A. Peterson, J. Chem. Phys. 123, 064107 (2005)
              N. B. Balabanov, K. A. Peterson, J. Chem. Phys. 125, 074110 (2006)
      Ga-Kr : Obtained from the ccRepo (grant-hill.group.shef.ac.uk/ccrepo) Feb. 2017
              A. K. Wilson, D. E. Woon, K. A. Peterson, T. H. Dunning, Jr., J. Chem. Phys. 110, 7667 (1999)

----- AuxC basis set information -----
Your calculation utilizes the auxiliary basis: aug-cc-pVDZ/C 
  H-He, B, Ne, Al-Ar, Ga-Ge, Se-Br : Obtained from the EMSL Basis Set Exchange (bse.pnl.gov) Feb. 2017
                                     F. Weigend, A. Kohn, C. Hattig, J. Chem. Phys. 116, 3175 (2002)
                            Be, Mg : Obtained from the TURBOMOLE 7.0 basis set library
                                     C. Haettig, Phys. Chem. Chem. Phys. 7, 59 (2005)
                               C-F : Obtained from the EMSL Basis Set Exchange (bse.pnl.gov) Feb. 2017
                                     C. Haettig, Phys. Chem. Chem. Phys. 7, 59 (2005)
                                     F. Weigend, A. Kohn, C. Hattig, J. Chem. Phys. 116, 3175 (2002)
                                As : Obtained from the EMSL Basis Set Exchange (bse.pnl.gov) Feb. 2017
                                     C. Haettig, G. Schmitz, J. Kossmann, Phys. Chem. Chem. Phys. 14, 6549 (2012)
                                Kr : Obtained from the TURBOMOLE 7.0 basis set library
                                     F. Weigend, A. Kohn, C. Hattig, J. Chem. Phys. 116, 3175 (2002)
                                     S function revised in Sep. 2009

================================================================================
                                        WARNINGS
                       Please study these warnings very carefully!
================================================================================


WARNING: No MP2 level density has been requested!
         To caclulate MP2 level properties use
         %mp2 Density relaxed end
         or
         %mp2 Density unrelaxed end

WARNING: Post HF methods need fully converged wavefunctions
  ===> : Setting SCFConvForced true
         You can overwrite this default with %scf ConvForced false 


INFO   : the flag for use of the SHARK integral package has been found!

================================================================================

----- Orbital basis set information -----
Your calculation utilizes the basis: aug-cc-pVTZ 
    H, B-Ne : Obtained from the ccRepo (grant-hill.group.shef.ac.uk/ccrepo) Feb. 2017
              R. A. Kendall, T. H. Dunning, Jr., R. J. Harrison, J. Chem. Phys. 96, 6796 (1992)
         He : Obtained from the ccRepo (grant-hill.group.shef.ac.uk/ccrepo) Feb. 2017
              D. E. Woon, T. H. Dunning, Jr., J. Chem. Phys. 100, 2975 (1994)
  Li-Be, Na : Obtained from the ccRepo (grant-hill.group.shef.ac.uk/ccrepo) Feb. 2017
              B. P. Prascher, D. E. Woon, K. A. Peterson, T. H. Dunning, Jr., A. K. Wilson, Theor. Chem. Acc. 128, 69 (2011)
         Mg : Obtained from the Peterson Research Group Website (tyr0.chem.wsu.edu/~kipeters) Feb. 2017
              B. P. Prascher, D. E. Woon, K. A. Peterson, T. H. Dunning, Jr., A. K. Wilson, Theor. Chem. Acc. 128, 69 (2011)
      Al-Ar : Obtained from the ccRepo (grant-hill.group.shef.ac.uk/ccrepo) Feb. 2017
              D. E. Woon, T. H. Dunning, Jr., J. Chem. Phys. 98, 1358 (1993)
      Sc-Zn : Obtained from the ccRepo (grant-hill.group.shef.ac.uk/ccrepo) Feb. 2017
              N. B. Balabanov, K. A. Peterson, J. Chem. Phys. 123, 064107 (2005)
              N. B. Balabanov, K. A. Peterson, J. Chem. Phys. 125, 074110 (2006)
      Ga-Kr : Obtained from the ccRepo (grant-hill.group.shef.ac.uk/ccrepo) Feb. 2017
              A. K. Wilson, D. E. Woon, K. A. Peterson, T. H. Dunning, Jr., J. Chem. Phys. 110, 7667 (1999)
     Ag, Au : Obtained from the Peterson Research Group Website (tyr0.chem.wsu.edu/~kipeters) Feb. 2017
              K. A. Peterson, C. Puzzarini, Theor. Chem. Acc. 114, 283 (2005)

----- AuxC basis set information -----
Your calculation utilizes the auxiliary basis: aug-cc-pVTZ/C 
  H-He, B-F, Al-Ar, Ga-Kr : Obtained from the EMSL Basis Set Exchange (bse.pnl.gov) Feb. 2017
                            F. Weigend, A. Kohn, C. Hattig, J. Chem. Phys. 116, 3175 (2002)
                   Be, Mg : Obtained from the TURBOMOLE 7.0 basis set library
                            C. Haettig, Phys. Chem. Chem. Phys. 7, 59 (2005)
                       Ne : Obtained from the EMSL Basis Set Exchange (bse.pnl.gov) Feb. 2017
                            C. Haettig, Phys. Chem. Chem. Phys. 7, 59 (2005)
                            F. Weigend, A. Kohn, C. Hattig, J. Chem. Phys. 116, 3175 (2002)
                    Sc-Zn : Obtained from the EMSL Basis Set Exchange (bse.pnl.gov) Feb. 2017
                            J. G. Hill, J. A. Platts, J. Chem. Phys. 128, 044104 (2008)

================================================================================
                                        WARNINGS
                       Please study these warnings very carefully!
================================================================================


WARNING: No MP2 level density has been requested!
         To caclulate MP2 level properties use
         %mp2 Density relaxed end
         or
         %mp2 Density unrelaxed end

INFO   : the flag for use of the SHARK integral package has been found!

================================================================================

----- Orbital basis set information -----
Your calculation utilizes the basis: aug-cc-pVQZ 
    H, B-Ne : Obtained from the ccRepo (grant-hill.group.shef.ac.uk/ccrepo) Feb. 2017
              R. A. Kendall, T. H. Dunning, Jr., R. J. Harrison, J. Chem. Phys. 96, 6796 (1992)
         He : Obtained from the ccRepo (grant-hill.group.shef.ac.uk/ccrepo) Feb. 2017
              D. E. Woon, T. H. Dunning, Jr., J. Chem. Phys. 100, 2975 (1994)
  Li-Be, Na : Obtained from the ccRepo (grant-hill.group.shef.ac.uk/ccrepo) Feb. 2017
              B. P. Prascher, D. E. Woon, K. A. Peterson, T. H. Dunning, Jr., A. K. Wilson, Theor. Chem. Acc. 128, 69 (2011)
         Mg : Obtained from the Peterson Research Group Website (tyr0.chem.wsu.edu/~kipeters) Feb. 2017
              B. P. Prascher, D. E. Woon, K. A. Peterson, T. H. Dunning, Jr., A. K. Wilson, Theor. Chem. Acc. 128, 69 (2011)
      Al-Ar : Obtained from the ccRepo (grant-hill.group.shef.ac.uk/ccrepo) Feb. 2017
              D. E. Woon, T. H. Dunning, Jr., J. Chem. Phys. 98, 1358 (1993)
      Sc-Zn : Obtained from the ccRepo (grant-hill.group.shef.ac.uk/ccrepo) Feb. 2017
              N. B. Balabanov, K. A. Peterson, J. Chem. Phys. 123, 064107 (2005)
              N. B. Balabanov, K. A. Peterson, J. Chem. Phys. 125, 074110 (2006)
      Ga-Kr : Obtained from the ccRepo (grant-hill.group.shef.ac.uk/ccrepo) Feb. 2017
              A. K. Wilson, D. E. Woon, K. A. Peterson, T. H. Dunning, Jr., J. Chem. Phys. 110, 7667 (1999)

----- AuxC basis set information -----
Your calculation utilizes the auxiliary basis: aug-cc-pVQZ/C 
  H-He, B-F, Al-Ar, Ga-Kr : Obtained from the EMSL Basis Set Exchange (bse.pnl.gov) Feb. 2017
                            F. Weigend, A. Kohn, C. Hattig, J. Chem. Phys. 116, 3175 (2002)
                   Be, Mg : Obtained from the TURBOMOLE 7.0 basis set library
                            C. Haettig, Phys. Chem. Chem. Phys. 7, 59 (2005)
                       Ne : Obtained from the EMSL Basis Set Exchange (bse.pnl.gov) Feb. 2017
                            C. Haettig, Phys. Chem. Chem. Phys. 7, 59 (2005)
                            F. Weigend, A. Kohn, C. Hattig, J. Chem. Phys. 116, 3175 (2002)
                    Sc-Zn : Obtained from the EMSL Basis Set Exchange (bse.pnl.gov) Feb. 2017
                            D. H. Bross, J. G. Hill, H. J. Werner, K. A. Peterson, J. Chem. Phys. 139, 094302 (2013)

================================================================================
                                        WARNINGS
                       Please study these warnings very carefully!
================================================================================


WARNING: No MP2 level density has been requested!
         To caclulate MP2 level properties use
         %mp2 Density relaxed end
         or
         %mp2 Density unrelaxed end

INFO   : the flag for use of the SHARK integral package has been found!

================================================================================
                                       INPUT FILE
================================================================================
NAME = Si-S_45_AB.inp
|  1> ! ri-mp2 aug-cc-pvdz aug-cc-pvdz/c tightscf
|  2> %pal nprocs 16 end
|  3> %maxcore 3800
|  4> %base "DZ_Si-S_45_AB"
|  5> 
|  6> *xyz 0 1
|  7> S         1.182093   -0.000002   -0.562137
|  8> Si         2.157131    0.000004    1.428314
|  9> O         1.505813    1.254189   -1.201105
| 10> O         1.505813   -1.254197   -1.201096
| 11> C        -0.558619   -0.000001   -0.226972
| 12> C        -1.221295   -1.208892   -0.087186
| 13> C        -1.221294    1.208891   -0.087191
| 14> C        -2.574110   -1.203149    0.201090
| 15> C        -2.574110    1.203150    0.201085
| 16> C        -3.246317    0.000001    0.347514
| 17> H        -0.679491   -2.133970   -0.225899
| 18> H        -3.106526   -2.138730    0.304856
| 19> H        -0.679491    2.133969   -0.225909
| 20> H        -3.106525    2.138732    0.304846
| 21> H        -4.304834    0.000002    0.571248
| 22> H         3.598414    0.000002    1.132659
| 23> H         1.723299   -1.219116    2.131786
| 24> H         1.723301    1.219129    2.131779
| 25> *
| 26> 
| 27> $new_job
| 28> ! ri-mp2 aug-cc-pvtz aug-cc-pvtz/c tightscf
| 29> %pal nprocs 16 end
| 30> %maxcore 3800
| 31> %base "TZ_Si-S_45_AB"
| 32> 
| 33> *xyz 0 1
| 34> S         1.182093   -0.000002   -0.562137
| 35> Si         2.157131    0.000004    1.428314
| 36> O         1.505813    1.254189   -1.201105
| 37> O         1.505813   -1.254197   -1.201096
| 38> C        -0.558619   -0.000001   -0.226972
| 39> C        -1.221295   -1.208892   -0.087186
| 40> C        -1.221294    1.208891   -0.087191
| 41> C        -2.574110   -1.203149    0.201090
| 42> C        -2.574110    1.203150    0.201085
| 43> C        -3.246317    0.000001    0.347514
| 44> H        -0.679491   -2.133970   -0.225899
| 45> H        -3.106526   -2.138730    0.304856
| 46> H        -0.679491    2.133969   -0.225909
| 47> H        -3.106525    2.138732    0.304846
| 48> H        -4.304834    0.000002    0.571248
| 49> H         3.598414    0.000002    1.132659
| 50> H         1.723299   -1.219116    2.131786
| 51> H         1.723301    1.219129    2.131779
| 52> *
| 53> 
| 54> $new_job
| 55> ! ri-mp2 aug-cc-pvqz aug-cc-pvqz/c tightscf
| 56> %pal nprocs 16 end
| 57> %maxcore 3800
| 58> %base "QZ_Si-S_45_AB"
| 59> 
| 60> *xyz 0 1
| 61> S         1.182093   -0.000002   -0.562137
| 62> Si         2.157131    0.000004    1.428314
| 63> O         1.505813    1.254189   -1.201105
| 64> O         1.505813   -1.254197   -1.201096
| 65> C        -0.558619   -0.000001   -0.226972
| 66> C        -1.221295   -1.208892   -0.087186
| 67> C        -1.221294    1.208891   -0.087191
| 68> C        -2.574110   -1.203149    0.201090
| 69> C        -2.574110    1.203150    0.201085
| 70> C        -3.246317    0.000001    0.347514
| 71> H        -0.679491   -2.133970   -0.225899
| 72> H        -3.106526   -2.138730    0.304856
| 73> H        -0.679491    2.133969   -0.225909
| 74> H        -3.106525    2.138732    0.304846
| 75> H        -4.304834    0.000002    0.571248
| 76> H         3.598414    0.000002    1.132659
| 77> H         1.723299   -1.219116    2.131786
| 78> H         1.723301    1.219129    2.131779
| 79> *
| 80> 
| 81> 
| 82> 
| 83> 
| 84>                          ****END OF INPUT****
================================================================================


                 $$$$$$$$$$$$$$$$$$$$$$$$$$$$$$$$$$$$$$$$$$$$$$ 
                 $ THERE ARE  3 JOBS TO BE PROCESSED THIS RUN $
                 $$$$$$$$$$$$$$$$$$$$$$$$$$$$$$$$$$$$$$$$$$$$$$ 




                 $$$$$$$$$$$$$$$$  JOB NUMBER  1 $$$$$$$$$$$$$$


                       ****************************
                       * Single Point Calculation *
                       ****************************

---------------------------------
CARTESIAN COORDINATES (ANGSTROEM)
---------------------------------
  S      1.182093   -0.000002   -0.562137
  Si     2.157131    0.000004    1.428314
  O      1.505813    1.254189   -1.201105
  O      1.505813   -1.254197   -1.201096
  C     -0.558619   -0.000001   -0.226972
  C     -1.221295   -1.208892   -0.087186
  C     -1.221294    1.208891   -0.087191
  C     -2.574110   -1.203149    0.201090
  C     -2.574110    1.203150    0.201085
  C     -3.246317    0.000001    0.347514
  H     -0.679491   -2.133970   -0.225899
  H     -3.106526   -2.138730    0.304856
  H     -0.679491    2.133969   -0.225909
  H     -3.106525    2.138732    0.304846
  H     -4.304834    0.000002    0.571248
  H      3.598414    0.000002    1.132659
  H      1.723299   -1.219116    2.131786
  H      1.723301    1.219129    2.131779

----------------------------
CARTESIAN COORDINATES (A.U.)
----------------------------
  NO LB      ZA    FRAG     MASS         X           Y           Z
   0 S    16.0000    0    32.060    2.233832   -0.000004   -1.062285
   1 Si   14.0000    0    28.086    4.076387    0.000008    2.699122
   2 O     8.0000    0    15.999    2.845574    2.370074   -2.269760
   3 O     8.0000    0    15.999    2.845574   -2.370089   -2.269743
   4 C     6.0000    0    12.011   -1.055637   -0.000002   -0.428915
   5 C     6.0000    0    12.011   -2.307913   -2.284475   -0.164758
   6 C     6.0000    0    12.011   -2.307911    2.284473   -0.164767
   7 C     6.0000    0    12.011   -4.864363   -2.273622    0.380005
   8 C     6.0000    0    12.011   -4.864363    2.273624    0.379996
   9 C     6.0000    0    12.011   -6.134650    0.000002    0.656706
  10 H     1.0000    0     1.008   -1.284052   -4.032619   -0.426887
  11 H     1.0000    0     1.008   -5.870483   -4.041614    0.576094
  12 H     1.0000    0     1.008   -1.284052    4.032617   -0.426906
  13 H     1.0000    0     1.008   -5.870481    4.041618    0.576075
  14 H     1.0000    0     1.008   -8.134957    0.000004    1.079502
  15 H     1.0000    0     1.008    6.800017    0.000004    2.140415
  16 H     1.0000    0     1.008    3.256563   -2.303795    4.028492
  17 H     1.0000    0     1.008    3.256567    2.303820    4.028478

--------------------------------
INTERNAL COORDINATES (ANGSTROEM)
--------------------------------
 S      0   0   0     0.000000000000     0.00000000     0.00000000
 Si     1   0   0     2.216437295499     0.00000000     0.00000000
 O      1   2   0     1.444323304494   107.37904531     0.00000000
 O      1   2   3     1.444322796367   107.37899791   130.98237641
 C      1   2   3     1.772685489355   105.19965899   245.49117462
 C      5   1   2     1.385675667915   119.25387826   270.56719584
 C      5   1   2     1.385675557715   119.25385411    89.43268898
 C      6   5   1     1.383200801926   119.02096683   178.70418505
 C      7   5   1     1.383201771656   119.02095666   181.29580373
 C      9   7   5     1.385954984511   119.99875536     0.08259296
 H      6   5   1     1.081000544343   119.60019030   357.38217357
 H      8   6   5     1.081455494865   119.86146376   179.48705828
 H      7   5   1     1.081000684744   119.60028211     2.61791954
 H      9   7   5     1.081455387924   119.86142645   180.51300605
 H     10   9   7     1.081903480929   119.76060539   180.10840683
 H      2   1   3     1.471294860019   104.50583458   294.50878044
 H      2   1   3     1.472866807762   107.41826154   174.67820968
 H      2   1   3     1.472867013939   107.41830770    54.33936692

---------------------------
INTERNAL COORDINATES (A.U.)
---------------------------
 S      0   0   0     0.000000000000     0.00000000     0.00000000
 Si     1   0   0     4.188459481503     0.00000000     0.00000000
 O      1   2   0     2.729375494334   107.37904531     0.00000000
 O      1   2   3     2.729374534113   107.37899791   130.98237641
 C      1   2   3     3.349890096457   105.19965899   245.49117462
 C      5   1   2     2.618547522799   119.25387826   270.56719584
 C      5   1   2     2.618547314551   119.25385411    89.43268898
 C      6   5   1     2.613870703861   119.02096683   178.70418505
 C      7   5   1     2.613872536385   119.02095666   181.29580373
 C      9   7   5     2.619075354669   119.99875536     0.08259296
 H      6   5   1     2.042794979427   119.60019030   357.38217357
 H      8   6   5     2.043654711319   119.86146376   179.48705828
 H      7   5   1     2.042795244748   119.60028211     2.61791954
 H      9   7   5     2.043654509230   119.86142645   180.51300605
 H     10   9   7     2.044501282292   119.76060539   180.10840683
 H      2   1   3     2.780344347682   104.50583458   294.50878044
 H      2   1   3     2.783314898414   107.41826154   174.67820968
 H      2   1   3     2.783315288031   107.41830770    54.33936692

---------------------
BASIS SET INFORMATION
---------------------
There are 5 groups of distinct atoms

 Group   1 Type S   : 35s16p2d contracted to 5s4p2d pattern {11111111/7711/11}
 Group   2 Type Si  : 35s16p2d contracted to 5s4p2d pattern {11111111/7711/11}
 Group   3 Type O   : 18s5p2d contracted to 4s3p2d pattern {8811/311/11}
 Group   4 Type C   : 18s5p2d contracted to 4s3p2d pattern {8811/311/11}
 Group   5 Type H   : 5s2p contracted to 3s2p pattern {311/11}

Atom   0S    basis set group =>   1
Atom   1Si   basis set group =>   2
Atom   2O    basis set group =>   3
Atom   3O    basis set group =>   3
Atom   4C    basis set group =>   4
Atom   5C    basis set group =>   4
Atom   6C    basis set group =>   4
Atom   7C    basis set group =>   4
Atom   8C    basis set group =>   4
Atom   9C    basis set group =>   4
Atom  10H    basis set group =>   5
Atom  11H    basis set group =>   5
Atom  12H    basis set group =>   5
Atom  13H    basis set group =>   5
Atom  14H    basis set group =>   5
Atom  15H    basis set group =>   5
Atom  16H    basis set group =>   5
Atom  17H    basis set group =>   5
---------------------------------
AUXILIARY/C BASIS SET INFORMATION
---------------------------------
There are 5 groups of distinct atoms

 Group   1 Type S   : 10s8p6d4f contracted to 10s8p6d4f pattern {1111111111/11111111/111111/1111}
 Group   2 Type Si  : 10s8p6d4f contracted to 10s8p6d4f pattern {1111111111/11111111/111111/1111}
 Group   3 Type O   : 8s6p5d3f contracted to 8s6p5d3f pattern {11111111/111111/11111/111}
 Group   4 Type C   : 8s6p5d3f contracted to 8s6p5d3f pattern {11111111/111111/11111/111}
 Group   5 Type H   : 4s3p2d contracted to 4s3p2d pattern {1111/111/11}

Atom   0S    basis set group =>   1
Atom   1Si   basis set group =>   2
Atom   2O    basis set group =>   3
Atom   3O    basis set group =>   3
Atom   4C    basis set group =>   4
Atom   5C    basis set group =>   4
Atom   6C    basis set group =>   4
Atom   7C    basis set group =>   4
Atom   8C    basis set group =>   4
Atom   9C    basis set group =>   4
Atom  10H    basis set group =>   5
Atom  11H    basis set group =>   5
Atom  12H    basis set group =>   5
Atom  13H    basis set group =>   5
Atom  14H    basis set group =>   5
Atom  15H    basis set group =>   5
Atom  16H    basis set group =>   5
Atom  17H    basis set group =>   5


           ************************************************************
           *        Program running with 16 parallel MPI-processes    *
           *              working on a common directory               *
           ************************************************************
------------------------------------------------------------------------------
                           ORCA GTO INTEGRAL CALCULATION
------------------------------------------------------------------------------
------------------------------------------------------------------------------
                   ___                                                        
                  /   \      - P O W E R E D   B Y -                         
                 /     \                                                     
                 |  |  |   _    _      __       _____    __    __             
                 |  |  |  | |  | |    /  \     |  _  \  |  |  /  |          
                  \  \/   | |  | |   /    \    | | | |  |  | /  /          
                 / \  \   | |__| |  /  /\  \   | |_| |  |  |/  /          
                |  |  |   |  __  | /  /__\  \  |    /   |      \           
                |  |  |   | |  | | |   __   |  |    \   |  |\   \          
                \     /   | |  | | |  |  |  |  | |\  \  |  | \   \       
                 \___/    |_|  |_| |__|  |__|  |_| \__\ |__|  \__/        
                                                                              
                      - O R C A' S   B I G   F R I E N D -                    
                                      &                                       
                       - I N T E G R A L  F E E D E R -                       
                                                                              
 v1 FN, 2020, v2 2021                                                         
------------------------------------------------------------------------------


Reading SHARK input file DZ_Si-S_45_AB.SHARKINP.tmp ... ok
----------------------
SHARK INTEGRAL PACKAGE
----------------------

Number of atoms                             ...     18
Number of basis functions                   ...    404
Number of shells                            ...    208
Maximum angular momentum                    ...      2
Integral batch strategy                     ... SHARK/LIBINT Hybrid
RI-J (if used) integral strategy            ... SPLIT-RIJ (Revised 2003 algorithm where possible)
Printlevel                                  ...      1
Contraction scheme used                     ... PARTIAL GENERAL contraction
Coulomb Range Separation                    ... NOT USED
Exchange Range Separation                   ... NOT USED
Finite Nucleus Model                        ... NOT USED
Auxiliary Coulomb fitting basis             ... NOT available
Auxiliary J/K fitting basis                 ... NOT available
Auxiliary Correlation fitting basis         ... AVAILABLE
   # of basis functions in Aux-C            ...    944
   # of shells in Aux-C                     ...    304
   Maximum angular momentum in Aux-C        ...      3
Auxiliary 'external' fitting basis          ... NOT available
Integral threshold                          ...     2.500000e-11
Primitive cut-off                           ...     2.500000e-12
Primitive pair pre-selection threshold      ...     2.500000e-12

Calculating pre-screening integrals         ... done (  0.0 sec) Dimension = 208
Calculating pre-screening integrals (ORCA)  ... done (  0.1 sec) Dimension = 134
Organizing shell pair data                  ... done (  0.1 sec)
Shell pair information
Total number of shell pairs                 ...     21736
Shell pairs after pre-screening             ...     16771
Total number of primitive shell pairs       ...     28968
Primitive shell pairs kept                  ...     20638
          la=0 lb=0:   5513 shell pairs
          la=1 lb=0:   6049 shell pairs
          la=1 lb=1:   1562 shell pairs
          la=2 lb=0:   2342 shell pairs
          la=2 lb=1:   1099 shell pairs
          la=2 lb=2:    206 shell pairs

Calculating one electron integrals          ... done (  0.1 sec)
Calculating RI/C V-Matrix + Cholesky decomp.... done (  0.1 sec)
Calculating Nuclear repulsion               ... done (  0.0 sec) ENN=    715.841344710132 Eh

SHARK setup successfully completed in   0.6 seconds

Maximum memory used throughout the entire GTOINT-calculation: 37.3 MB


           ************************************************************
           *        Program running with 16 parallel MPI-processes    *
           *              working on a common directory               *
           ************************************************************
-------------------------------------------------------------------------------
                                 ORCA SCF
-------------------------------------------------------------------------------

------------
SCF SETTINGS
------------
Hamiltonian:
 Ab initio Hamiltonian  Method          .... Hartree-Fock(GTOs)


General Settings:
 Integral files         IntName         .... DZ_Si-S_45_AB
 Hartree-Fock type      HFTyp           .... RHF
 Total Charge           Charge          ....    0
 Multiplicity           Mult            ....    1
 Number of Electrons    NEL             ....   90
 Basis Dimension        Dim             ....  310
 Nuclear Repulsion      ENuc            ....    715.8413447101 Eh

Convergence Acceleration:
 DIIS                   CNVDIIS         .... on
   Start iteration      DIISMaxIt       ....    12
   Startup error        DIISStart       ....  0.200000
   # of expansion vecs  DIISMaxEq       ....     5
   Bias factor          DIISBfac        ....   1.050
   Max. coefficient     DIISMaxC        ....  10.000
 Trust-Rad. Augm. Hess. CNVTRAH         .... auto
   Auto Start mean grad. ratio tolernc. ....  1.125000
   Auto Start start iteration           ....    20
   Auto Start num. interpolation iter.  ....    10
   Max. Number of Micro iterations      ....    16
   Max. Number of Macro iterations      .... Maxiter - #DIIS iter
   Number of Davidson start vectors     ....     2
   Converg. threshold I  (grad. norm)   ....   1.000e-05
   Converg. threshold II (energy diff.) ....   1.000e-08
   Grad. Scal. Fac. for Micro threshold ....   0.100
   Minimum threshold for Micro iter.    ....   0.010
   NR start threshold (gradient norm)   ....   0.001
   Initial trust radius                 ....   0.400
   Minimum AH scaling param. (alpha)    ....   1.000
   Maximum AH scaling param. (alpha)    .... 1000.000
   Orbital update algorithm             .... Taylor
   White noise on init. David. guess    .... on
   Maximum white noise                  ....   0.010
   Quad. conv. algorithm                .... NR
 SOSCF                  CNVSOSCF        .... on
   Start iteration      SOSCFMaxIt      ....   150
   Startup grad/error   SOSCFStart      ....  0.003300
 Level Shifting         CNVShift        .... on
   Level shift para.    LevelShift      ....    0.2500
   Turn off err/grad.   ShiftErr        ....    0.0010
 Zerner damping         CNVZerner       .... off
 Static damping         CNVDamp         .... on
   Fraction old density DampFac         ....    0.7000
   Max. Damping (<1)    DampMax         ....    0.9800
   Min. Damping (>=0)   DampMin         ....    0.0000
   Turn off err/grad.   DampErr         ....    0.1000
 Fernandez-Rico         CNVRico         .... off

SCF Procedure:
 Maximum # iterations   MaxIter         ....   125
 SCF integral mode      SCFMode         .... Direct
   Integral package                     .... SHARK and LIBINT hybrid scheme
 Reset frequency        DirectResetFreq ....    20
 Integral Threshold     Thresh          ....  2.500e-11 Eh
 Primitive CutOff       TCut            ....  2.500e-12 Eh

Convergence Tolerance:
 Convergence Check Mode ConvCheckMode   .... Total+1el-Energy
 Convergence forced     ConvForced      .... 1
 Energy Change          TolE            ....  1.000e-08 Eh
 1-El. energy change                    ....  1.000e-05 Eh
 Orbital Gradient       TolG            ....  1.000e-05
 Orbital Rotation angle TolX            ....  1.000e-05
 DIIS Error             TolErr          ....  5.000e-07


Diagonalization of the overlap matrix:
Smallest eigenvalue                        ... 1.787e-06
Time for diagonalization                   ...    0.010 sec
Threshold for overlap eigenvalues          ... 1.000e-08
Number of eigenvalues below threshold      ... 0
Time for construction of square roots      ...    0.012 sec
Total time needed                          ...    0.023 sec

Time for model grid setup =    0.336 sec

------------------------------
INITIAL GUESS: MODEL POTENTIAL
------------------------------
Loading Hartree-Fock densities                     ... done
Calculating cut-offs                               ... done
Initializing the effective Hamiltonian             ... done
Setting up the integral package (SHARK)            ... done
Starting the Coulomb interaction                   ... done (   0.1 sec)
Reading the grid                                   ... done
Mapping shells                                     ... done
Starting the XC term evaluation                    ... done (   0.0 sec)
Transforming the Hamiltonian                       ... done (   0.0 sec)
Diagonalizing the Hamiltonian                      ... done (   0.0 sec)
Back transforming the eigenvectors                 ... done (   0.0 sec)
Now organizing SCF variables                       ... done
                      ------------------
                      INITIAL GUESS DONE (   0.5 sec)
                      ------------------
--------------
SCF ITERATIONS
--------------
ITER       Energy         Delta-E        Max-DP      RMS-DP      [F,P]     Damp
               ***  Starting incremental Fock matrix formation  ***
  0  -1067.5978276020   0.000000000000 1.37101918  0.02256439  0.2598029 0.7000
  1  -1067.7470882784  -0.149260676469 1.00583289  0.01683493  0.1481132 0.7000
                               ***Turning on DIIS***
  2  -1067.8320754754  -0.084987196963 2.33505545  0.03902591  0.0753773 0.0000
  3  -1067.3740142875   0.458061187899 0.08820013  0.00233236  0.0518260 0.0000
  4  -1068.0223467956  -0.648332508101 0.06726067  0.00099362  0.0062308 0.0000
  5  -1068.0229789743  -0.000632178714 0.03107173  0.00048454  0.0037026 0.0000
                      *** Initiating the SOSCF procedure ***
                           *** Shutting down DIIS ***
                      *** Re-Reading the Fockian *** 
                      *** Removing any level shift *** 
ITER      Energy       Delta-E        Grad      Rot      Max-DP    RMS-DP
  6  -1068.00101414   0.0219648351  0.000789  0.000789  0.023555  0.000260
               *** Restarting incremental Fock matrix formation ***
  7  -1068.00961364  -0.0085995017  0.000539  0.001184  0.016130  0.000133
  8  -1068.00962422  -0.0000105806  0.000271  0.001467  0.014305  0.000145
  9  -1068.00962893  -0.0000047115  0.000108  0.000320  0.003576  0.000039
 10  -1068.00962946  -0.0000005287  0.000042  0.000085  0.001987  0.000017
 11  -1068.00962961  -0.0000001493  0.000016  0.000072  0.000811  0.000008
 12  -1068.00962964  -0.0000000241  0.000007  0.000019  0.000100  0.000002
                  ***Gradient check signals convergence***
              ***Rediagonalizing the Fockian in SOSCF/NRSCF***

               *****************************************************
               *                     SUCCESS                       *
               *           SCF CONVERGED AFTER  13 CYCLES          *
               *****************************************************


----------------
TOTAL SCF ENERGY
----------------

Total Energy       :        -1068.00962964 Eh          -29062.01951 eV

Components:
Nuclear Repulsion  :          715.84134471 Eh           19479.03328 eV
Electronic Energy  :        -1783.85097435 Eh          -48541.05279 eV
One Electron Energy:        -2892.15682557 Eh          -78699.58823 eV
Two Electron Energy:         1108.30585122 Eh           30158.53544 eV

Virial components:
Potential Energy   :        -2135.83856328 Eh          -58119.12203 eV
Kinetic Energy     :         1067.82893364 Eh           29057.10252 eV
Virial Ratio       :            2.00016922


---------------
SCF CONVERGENCE
---------------

  Last Energy change         ...   -4.5013e-09  Tolerance :   1.0000e-08
  Last MAX-Density change    ...    5.8338e-05  Tolerance :   1.0000e-07
  Last RMS-Density change    ...    9.3061e-07  Tolerance :   5.0000e-09
  Last Orbital Gradient      ...    2.4452e-06  Tolerance :   1.0000e-05
  Last Orbital Rotation      ...    5.1360e-06  Tolerance :   1.0000e-05

             **** THE GBW FILE WAS UPDATED (DZ_Si-S_45_AB.gbw) ****
             **** DENSITY DZ_Si-S_45_AB.scfp WAS UPDATED ****
             **** ENERGY FILE WAS UPDATED (DZ_Si-S_45_AB.en.tmp) ****
             **** THE GBW FILE WAS UPDATED (DZ_Si-S_45_AB.gbw) ****
             **** DENSITY DZ_Si-S_45_AB.scfp WAS UPDATED ****
----------------
ORBITAL ENERGIES
----------------

  NO   OCC          E(Eh)            E(eV) 
   0   2.0000     -92.180139     -2508.3491 
   1   2.0000     -68.829755     -1872.9528 
   2   2.0000     -20.548568      -559.1550 
   3   2.0000     -20.548550      -559.1545 
   4   2.0000     -11.279313      -306.9257 
   5   2.0000     -11.270980      -306.6990 
   6   2.0000     -11.270871      -306.6960 
   7   2.0000     -11.268856      -306.6412 
   8   2.0000     -11.262457      -306.4670 
   9   2.0000     -11.262328      -306.4635 
  10   2.0000      -9.156689      -249.1662 
  11   2.0000      -6.842117      -186.1835 
  12   2.0000      -6.840493      -186.1393 
  13   2.0000      -6.839582      -186.1145 
  14   2.0000      -6.177851      -168.1079 
  15   2.0000      -4.284117      -116.5768 
  16   2.0000      -4.283267      -116.5536 
  17   2.0000      -4.283266      -116.5536 
  18   2.0000      -1.455974       -39.6191 
  19   2.0000      -1.343115       -36.5480 
  20   2.0000      -1.192081       -32.4382 
  21   2.0000      -1.065893       -29.0044 
  22   2.0000      -1.049861       -28.5682 
  23   2.0000      -0.925908       -25.1952 
  24   2.0000      -0.859733       -23.3945 
  25   2.0000      -0.833350       -22.6766 
  26   2.0000      -0.768060       -20.9000 
  27   2.0000      -0.730476       -19.8773 
  28   2.0000      -0.674823       -18.3629 
  29   2.0000      -0.665736       -18.1156 
  30   2.0000      -0.647870       -17.6294 
  31   2.0000      -0.640957       -17.4413 
  32   2.0000      -0.626872       -17.0580 
  33   2.0000      -0.618027       -16.8174 
  34   2.0000      -0.547866       -14.9082 
  35   2.0000      -0.539834       -14.6896 
  36   2.0000      -0.530462       -14.4346 
  37   2.0000      -0.522083       -14.2066 
  38   2.0000      -0.518512       -14.1094 
  39   2.0000      -0.496096       -13.4995 
  40   2.0000      -0.483881       -13.1671 
  41   2.0000      -0.467093       -12.7103 
  42   2.0000      -0.405264       -11.0278 
  43   2.0000      -0.369483       -10.0541 
  44   2.0000      -0.364045        -9.9062 
  45   0.0000       0.025951         0.7062 
  46   0.0000       0.033851         0.9211 
  47   0.0000       0.038221         1.0400 
  48   0.0000       0.048810         1.3282 
  49   0.0000       0.057220         1.5570 
  50   0.0000       0.057926         1.5762 
  51   0.0000       0.060207         1.6383 
  52   0.0000       0.073372         1.9966 
  53   0.0000       0.075417         2.0522 
  54   0.0000       0.076513         2.0820 
  55   0.0000       0.086229         2.3464 
  56   0.0000       0.091411         2.4874 
  57   0.0000       0.095287         2.5929 
  58   0.0000       0.112569         3.0632 
  59   0.0000       0.118604         3.2274 
  60   0.0000       0.126605         3.4451 
  61   0.0000       0.132030         3.5927 
  62   0.0000       0.137428         3.7396 
  63   0.0000       0.140419         3.8210 
  64   0.0000       0.143140         3.8950 
  65   0.0000       0.144195         3.9237 
  66   0.0000       0.144467         3.9311 
  67   0.0000       0.156075         4.2470 
  68   0.0000       0.156339         4.2542 
  69   0.0000       0.161776         4.4022 
  70   0.0000       0.166225         4.5232 
  71   0.0000       0.167322         4.5531 
  72   0.0000       0.182370         4.9625 
  73   0.0000       0.185680         5.0526 
  74   0.0000       0.188093         5.1183 
  75   0.0000       0.192359         5.2344 
  76   0.0000       0.194866         5.3026 
  77   0.0000       0.196237         5.3399 
  78   0.0000       0.202548         5.5116 
  79   0.0000       0.211590         5.7577 
  80   0.0000       0.214778         5.8444 
  81   0.0000       0.218783         5.9534 
  82   0.0000       0.241598         6.5742 
  83   0.0000       0.245050         6.6682 
  84   0.0000       0.248591         6.7645 
  85   0.0000       0.260101         7.0777 
  86   0.0000       0.262308         7.1378 
  87   0.0000       0.290140         7.8951 
  88   0.0000       0.300456         8.1758 
  89   0.0000       0.302361         8.2277 
  90   0.0000       0.302932         8.2432 
  91   0.0000       0.307956         8.3799 
  92   0.0000       0.309840         8.4312 
  93   0.0000       0.317550         8.6410 
  94   0.0000       0.322462         8.7746 
  95   0.0000       0.325712         8.8631 
  96   0.0000       0.325893         8.8680 
  97   0.0000       0.330611         8.9964 
  98   0.0000       0.344034         9.3616 
  99   0.0000       0.344122         9.3640 
 100   0.0000       0.357546         9.7293 
 101   0.0000       0.367308         9.9950 
 102   0.0000       0.374488        10.1903 
 103   0.0000       0.377925        10.2839 
 104   0.0000       0.378416        10.2972 
 105   0.0000       0.385110        10.4794 
 106   0.0000       0.392333        10.6759 
 107   0.0000       0.402224        10.9451 
 108   0.0000       0.407987        11.1019 
 109   0.0000       0.416192        11.3252 
 110   0.0000       0.419105        11.4044 
 111   0.0000       0.423014        11.5108 
 112   0.0000       0.427796        11.6409 
 113   0.0000       0.436375        11.8744 
 114   0.0000       0.437830        11.9140 
 115   0.0000       0.448005        12.1908 
 116   0.0000       0.460324        12.5261 
 117   0.0000       0.466990        12.7074 
 118   0.0000       0.468399        12.7458 
 119   0.0000       0.476496        12.9661 
 120   0.0000       0.491963        13.3870 
 121   0.0000       0.493423        13.4267 
 122   0.0000       0.510901        13.9023 
 123   0.0000       0.513860        13.9828 
 124   0.0000       0.521803        14.1990 
 125   0.0000       0.527704        14.3595 
 126   0.0000       0.548504        14.9256 
 127   0.0000       0.548663        14.9299 
 128   0.0000       0.555135        15.1060 
 129   0.0000       0.566706        15.4208 
 130   0.0000       0.571317        15.5463 
 131   0.0000       0.584761        15.9122 
 132   0.0000       0.592699        16.1282 
 133   0.0000       0.596340        16.2272 
 134   0.0000       0.598736        16.2924 
 135   0.0000       0.606927        16.5153 
 136   0.0000       0.613782        16.7018 
 137   0.0000       0.631941        17.1960 
 138   0.0000       0.645360        17.5611 
 139   0.0000       0.645933        17.5767 
 140   0.0000       0.657731        17.8978 
 141   0.0000       0.660595        17.9757 
 142   0.0000       0.666901        18.1473 
 143   0.0000       0.668364        18.1871 
 144   0.0000       0.668578        18.1929 
 145   0.0000       0.685453        18.6521 
 146   0.0000       0.689224        18.7547 
 147   0.0000       0.690788        18.7973 
 148   0.0000       0.692955        18.8563 
 149   0.0000       0.696144        18.9430 
 150   0.0000       0.708504        19.2794 
 151   0.0000       0.712358        19.3842 
 152   0.0000       0.714499        19.4425 
 153   0.0000       0.746553        20.3147 
 154   0.0000       0.750670        20.4268 
 155   0.0000       0.753631        20.5073 
 156   0.0000       0.764202        20.7950 
 157   0.0000       0.771335        20.9891 
 158   0.0000       0.794220        21.6118 
 159   0.0000       0.818718        22.2785 
 160   0.0000       0.826384        22.4870 
 161   0.0000       0.826564        22.4920 
 162   0.0000       0.828646        22.5486 
 163   0.0000       0.845285        23.0014 
 164   0.0000       0.854088        23.2409 
 165   0.0000       0.860913        23.4266 
 166   0.0000       0.863535        23.4980 
 167   0.0000       0.880207        23.9516 
 168   0.0000       0.882065        24.0022 
 169   0.0000       0.899853        24.4862 
 170   0.0000       0.911354        24.7992 
 171   0.0000       0.914105        24.8741 
 172   0.0000       0.922597        25.1051 
 173   0.0000       0.930303        25.3148 
 174   0.0000       0.938516        25.5383 
 175   0.0000       0.949004        25.8237 
 176   0.0000       0.951785        25.8994 
 177   0.0000       0.968146        26.3446 
 178   0.0000       0.969778        26.3890 
 179   0.0000       0.988079        26.8870 
 180   0.0000       0.988643        26.9024 
 181   0.0000       0.999211        27.1899 
 182   0.0000       1.008016        27.4295 
 183   0.0000       1.026630        27.9360 
 184   0.0000       1.033221        28.1154 
 185   0.0000       1.044929        28.4340 
 186   0.0000       1.060748        28.8644 
 187   0.0000       1.084982        29.5239 
 188   0.0000       1.101760        29.9804 
 189   0.0000       1.137359        30.9491 
 190   0.0000       1.161634        31.6097 
 191   0.0000       1.175043        31.9745 
 192   0.0000       1.175160        31.9777 
 193   0.0000       1.187309        32.3083 
 194   0.0000       1.204053        32.7640 
 195   0.0000       1.218724        33.1632 
 196   0.0000       1.240083        33.7444 
 197   0.0000       1.253783        34.1172 
 198   0.0000       1.264059        34.3968 
 199   0.0000       1.269926        34.5564 
 200   0.0000       1.319170        35.8964 
 201   0.0000       1.340367        36.4732 
 202   0.0000       1.352209        36.7955 
 203   0.0000       1.358896        36.9774 
 204   0.0000       1.369004        37.2525 
 205   0.0000       1.395336        37.9690 
 206   0.0000       1.415857        38.5274 
 207   0.0000       1.437812        39.1249 
 208   0.0000       1.462454        39.7954 
 209   0.0000       1.471876        40.0518 
 210   0.0000       1.483261        40.3616 
 211   0.0000       1.485395        40.4197 
 212   0.0000       1.510734        41.1092 
 213   0.0000       1.519935        41.3595 
 214   0.0000       1.524133        41.4738 
 215   0.0000       1.536486        41.8099 
 216   0.0000       1.551271        42.2122 
 217   0.0000       1.557791        42.3897 
 218   0.0000       1.589334        43.2480 
 219   0.0000       1.592428        43.3322 
 220   0.0000       1.601531        43.5799 
 221   0.0000       1.614676        43.9376 
 222   0.0000       1.621872        44.1334 
 223   0.0000       1.631619        44.3986 
 224   0.0000       1.643767        44.7292 
 225   0.0000       1.664727        45.2995 
 226   0.0000       1.689940        45.9856 
 227   0.0000       1.695355        46.1330 
 228   0.0000       1.703897        46.3654 
 229   0.0000       1.714172        46.6450 
 230   0.0000       1.733789        47.1788 
 231   0.0000       1.734158        47.1888 
 232   0.0000       1.762573        47.9621 
 233   0.0000       1.768111        48.1127 
 234   0.0000       1.770965        48.1904 
 235   0.0000       1.795598        48.8607 
 236   0.0000       1.816571        49.4314 
 237   0.0000       1.830156        49.8011 
 238   0.0000       1.864352        50.7316 
 239   0.0000       1.890026        51.4302 
 240   0.0000       1.897649        51.6377 
 241   0.0000       1.905575        51.8533 
 242   0.0000       1.919811        52.2407 
 243   0.0000       1.926218        52.4150 
 244   0.0000       1.940545        52.8049 
 245   0.0000       1.941744        52.8375 
 246   0.0000       1.959476        53.3200 
 247   0.0000       1.970303        53.6147 
 248   0.0000       1.980997        53.9057 
 249   0.0000       2.007551        54.6282 
 250   0.0000       2.023598        55.0649 
 251   0.0000       2.040534        55.5258 
 252   0.0000       2.068532        56.2876 
 253   0.0000       2.073353        56.4188 
 254   0.0000       2.086479        56.7760 
 255   0.0000       2.105460        57.2925 
 256   0.0000       2.115575        57.5677 
 257   0.0000       2.118100        57.6364 
 258   0.0000       2.129692        57.9519 
 259   0.0000       2.130437        57.9721 
 260   0.0000       2.150725        58.5242 
 261   0.0000       2.182263        59.3824 
 262   0.0000       2.191313        59.6286 
 263   0.0000       2.195976        59.7555 
 264   0.0000       2.208527        60.0971 
 265   0.0000       2.264018        61.6071 
 266   0.0000       2.265904        61.6584 
 267   0.0000       2.288256        62.2666 
 268   0.0000       2.297841        62.5274 
 269   0.0000       2.311272        62.8929 
 270   0.0000       2.339038        63.6485 
 271   0.0000       2.347343        63.8745 
 272   0.0000       2.354184        64.0606 
 273   0.0000       2.365701        64.3740 
 274   0.0000       2.375845        64.6500 
 275   0.0000       2.411576        65.6223 
 276   0.0000       2.419973        65.8508 
 277   0.0000       2.457901        66.8829 
 278   0.0000       2.459077        66.9149 
 279   0.0000       2.463928        67.0469 
 280   0.0000       2.617530        71.2266 
 281   0.0000       2.632405        71.6314 
 282   0.0000       2.723539        74.1113 
 283   0.0000       2.790838        75.9426 
 284   0.0000       2.809711        76.4561 
 285   0.0000       2.831406        77.0465 
 286   0.0000       2.932541        79.7985 
 287   0.0000       2.967865        80.7597 
 288   0.0000       2.987774        81.3015 
 289   0.0000       3.116622        84.8076 
 290   0.0000       3.155588        85.8679 
 291   0.0000       3.185770        86.6892 
 292   0.0000       3.254272        88.5532 
 293   0.0000       3.269391        88.9647 
 294   0.0000       3.321022        90.3696 
 295   0.0000       3.356239        91.3279 
 296   0.0000       3.544551        96.4521 
 297   0.0000       3.601682        98.0068 
 298   0.0000       3.750960       102.0688 
 299   0.0000       3.755440       102.1907 
 300   0.0000       3.769125       102.5631 
 301   0.0000       3.798401       103.3597 
 302   0.0000       3.800704       103.4224 
 303   0.0000       3.808793       103.6425 
 304   0.0000       3.829935       104.2178 
 305   0.0000       3.851290       104.7989 
 306   0.0000       3.869848       105.3039 
 307   0.0000       3.922849       106.7461 
 308   0.0000       4.051684       110.2519 
 309   0.0000       4.700064       127.8953 

                    ********************************
                    * MULLIKEN POPULATION ANALYSIS *
                    ********************************

-----------------------
MULLIKEN ATOMIC CHARGES
-----------------------
   0 S :    2.479169
   1 Si:    0.152027
   2 O :   -1.238695
   3 O :   -1.238695
   4 C :    0.582273
   5 C :   -0.108331
   6 C :   -0.108338
   7 C :    0.673629
   8 C :    0.673624
   9 C :    0.327611
  10 H :   -0.528947
  11 H :   -0.446453
  12 H :   -0.528947
  13 H :   -0.446453
  14 H :   -0.434382
  15 H :    0.025982
  16 H :    0.082463
  17 H :    0.082463
Sum of atomic charges:   -0.0000000

--------------------------------
MULLIKEN REDUCED ORBITAL CHARGES
--------------------------------
  0 S s       :     4.653495  s :     4.653495
      pz      :     3.020784  p :     8.219118
      px      :     2.763072
      py      :     2.435262
      dz2     :     0.195805  d :     0.648219
      dxz     :     0.059667
      dyz     :     0.077071
      dx2y2   :     0.197509
      dxy     :     0.118167
  1 Sis       :     4.886600  s :     4.886600
      pz      :     2.690706  p :     8.648322
      px      :     2.898417
      py      :     3.059199
      dz2     :     0.044150  d :     0.313051
      dxz     :     0.031710
      dyz     :     0.084040
      dx2y2   :     0.104820
      dxy     :     0.048332
  2 O s       :     4.252452  s :     4.252452
      pz      :     1.698793  p :     4.939290
      px      :     1.805499
      py      :     1.434999
      dz2     :     0.010807  d :     0.046952
      dxz     :     0.004515
      dyz     :     0.008737
      dx2y2   :     0.010351
      dxy     :     0.012542
  3 O s       :     4.252452  s :     4.252452
      pz      :     1.698796  p :     4.939290
      px      :     1.805499
      py      :     1.434996
      dz2     :     0.010807  d :     0.046952
      dxz     :     0.004515
      dyz     :     0.008737
      dx2y2   :     0.010351
      dxy     :     0.012542
  4 C s       :     3.033653  s :     3.033653
      pz      :     1.067668  p :     2.268515
      px      :     0.729926
      py      :     0.470921
      dz2     :     0.018023  d :     0.115559
      dxz     :     0.033691
      dyz     :     0.026793
      dx2y2   :     0.017945
      dxy     :     0.019108
  5 C s       :     3.110373  s :     3.110373
      pz      :     0.901382  p :     3.216575
      px      :     1.126528
      py      :     1.188665
      dz2     :     0.006992  d :    -0.218617
      dxz     :     0.006797
      dyz     :    -0.000970
      dx2y2   :    -0.102033
      dxy     :    -0.129403
  6 C s       :     3.110377  s :     3.110377
      pz      :     0.901382  p :     3.216577
      px      :     1.126527
      py      :     1.188667
      dz2     :     0.006992  d :    -0.218616
      dxz     :     0.006797
      dyz     :    -0.000970
      dx2y2   :    -0.102033
      dxy     :    -0.129402
  7 C s       :     2.579089  s :     2.579089
      pz      :     0.965815  p :     2.839464
      px      :     1.057624
      py      :     0.816025
      dz2     :     0.007147  d :    -0.092182
      dxz     :     0.008072
      dyz     :     0.001958
      dx2y2   :     0.006644
      dxy     :    -0.116003
  8 C s       :     2.579091  s :     2.579091
      pz      :     0.965815  p :     2.839466
      px      :     1.057626
      py      :     0.816026
      dz2     :     0.007147  d :    -0.092181
      dxz     :     0.008072
      dyz     :     0.001958
      dx2y2   :     0.006643
      dxy     :    -0.116001
  9 C s       :     3.057280  s :     3.057280
      pz      :     0.933427  p :     2.705115
      px      :     0.938122
      py      :     0.833566
      dz2     :     0.007874  d :    -0.090005
      dxz     :     0.004547
      dyz     :     0.017345
      dx2y2   :    -0.125511
      dxy     :     0.005740
 10 H s       :     1.508385  s :     1.508385
      pz      :     0.011540  p :     0.020562
      px      :    -0.008506
      py      :     0.017529
 11 H s       :     1.438069  s :     1.438069
      pz      :     0.008917  p :     0.008383
      px      :    -0.008085
      py      :     0.007552
 12 H s       :     1.508385  s :     1.508385
      pz      :     0.011540  p :     0.020562
      px      :    -0.008507
      py      :     0.017529
 13 H s       :     1.438070  s :     1.438070
      pz      :     0.008917  p :     0.008384
      px      :    -0.008085
      py      :     0.007552
 14 H s       :     1.433887  s :     1.433887
      pz      :     0.008674  p :     0.000494
      px      :     0.010100
      py      :    -0.018279
 15 H s       :     0.938071  s :     0.938071
      pz      :    -0.004009  p :     0.035947
      px      :     0.033891
      py      :     0.006065
 16 H s       :     0.887111  s :     0.887111
      pz      :     0.015249  p :     0.030426
      px      :     0.001540
      py      :     0.013638
 17 H s       :     0.887111  s :     0.887111
      pz      :     0.015249  p :     0.030426
      px      :     0.001540
      py      :     0.013638


                     *******************************
                     * LOEWDIN POPULATION ANALYSIS *
                     *******************************

----------------------
LOEWDIN ATOMIC CHARGES
----------------------
   0 S :    0.734190
   1 Si:    0.718028
   2 O :   -0.424145
   3 O :   -0.424145
   4 C :   -0.324219
   5 C :    0.007625
   6 C :    0.007625
   7 C :    0.018943
   8 C :    0.018944
   9 C :    0.024310
  10 H :    0.002943
  11 H :    0.006222
  12 H :    0.002943
  13 H :    0.006221
  14 H :    0.008488
  15 H :   -0.130184
  16 H :   -0.126895
  17 H :   -0.126895

-------------------------------
LOEWDIN REDUCED ORBITAL CHARGES
-------------------------------
  0 S s       :     4.661702  s :     4.661702
      pz      :     2.949526  p :     8.666956
      px      :     2.882419
      py      :     2.835012
      dz2     :     0.400220  d :     1.937153
      dxz     :     0.260730
      dyz     :     0.421216
      dx2y2   :     0.496687
      dxy     :     0.358299
  1 Sis       :     4.578563  s :     4.578563
      pz      :     2.606018  p :     8.077840
      px      :     2.716562
      py      :     2.755260
      dz2     :     0.116739  d :     0.625569
      dxz     :     0.103964
      dyz     :     0.167493
      dx2y2   :     0.180754
      dxy     :     0.056619
  2 O s       :     3.493777  s :     3.493777
      pz      :     1.611402  p :     4.741421
      px      :     1.644651
      py      :     1.485367
      dz2     :     0.025802  d :     0.188947
      dxz     :     0.012057
      dyz     :     0.064047
      dx2y2   :     0.047334
      dxy     :     0.039708
  3 O s       :     3.493776  s :     3.493776
      pz      :     1.611403  p :     4.741420
      px      :     1.644651
      py      :     1.485366
      dz2     :     0.025802  d :     0.188948
      dxz     :     0.012057
      dyz     :     0.064047
      dx2y2   :     0.047334
      dxy     :     0.039708
  4 C s       :     2.612889  s :     2.612889
      pz      :     0.834461  p :     2.757144
      px      :     0.908620
      py      :     1.014063
      dz2     :     0.092930  d :     0.954186
      dxz     :     0.099217
      dyz     :     0.170336
      dx2y2   :     0.352066
      dxy     :     0.239637
  5 C s       :     2.602459  s :     2.602459
      pz      :     0.721592  p :     2.644231
      px      :     0.971573
      py      :     0.951066
      dz2     :     0.074237  d :     0.745685
      dxz     :     0.127221
      dyz     :     0.077545
      dx2y2   :     0.209791
      dxy     :     0.256890
  6 C s       :     2.602459  s :     2.602459
      pz      :     0.721592  p :     2.644231
      px      :     0.971573
      py      :     0.951066
      dz2     :     0.074237  d :     0.745685
      dxz     :     0.127221
      dyz     :     0.077545
      dx2y2   :     0.209792
      dxy     :     0.256890
  7 C s       :     2.602923  s :     2.602923
      pz      :     0.754351  p :     2.654186
      px      :     0.955294
      py      :     0.944541
      dz2     :     0.071429  d :     0.723948
      dxz     :     0.111567
      dyz     :     0.067708
      dx2y2   :     0.213193
      dxy     :     0.260051
  8 C s       :     2.602923  s :     2.602923
      pz      :     0.754351  p :     2.654186
      px      :     0.955294
      py      :     0.944541
      dz2     :     0.071429  d :     0.723947
      dxz     :     0.111567
      dyz     :     0.067708
      dx2y2   :     0.213193
      dxy     :     0.260051
  9 C s       :     2.606549  s :     2.606549
      pz      :     0.721645  p :     2.631826
      px      :     0.924021
      py      :     0.986161
      dz2     :     0.064721  d :     0.737315
      dxz     :     0.041719
      dyz     :     0.154835
      dx2y2   :     0.283876
      dxy     :     0.192164
 10 H s       :     0.724204  s :     0.724204
      pz      :     0.073013  p :     0.272853
      px      :     0.087310
      py      :     0.112530
 11 H s       :     0.736522  s :     0.736522
      pz      :     0.074782  p :     0.257256
      px      :     0.072405
      py      :     0.110068
 12 H s       :     0.724204  s :     0.724204
      pz      :     0.073013  p :     0.272853
      px      :     0.087310
      py      :     0.112530
 13 H s       :     0.736523  s :     0.736523
      pz      :     0.074782  p :     0.257256
      px      :     0.072405
      py      :     0.110068
 14 H s       :     0.737097  s :     0.737097
      pz      :     0.073580  p :     0.254415
      px      :     0.127454
      py      :     0.053380
 15 H s       :     0.953546  s :     0.953546
      pz      :     0.029930  p :     0.176637
      px      :     0.110998
      py      :     0.035710
 16 H s       :     0.952177  s :     0.952177
      pz      :     0.044328  p :     0.174718
      px      :     0.040207
      py      :     0.090183
 17 H s       :     0.952177  s :     0.952177
      pz      :     0.044327  p :     0.174718
      px      :     0.040207
      py      :     0.090183


                      *****************************
                      * MAYER POPULATION ANALYSIS *
                      *****************************

  NA   - Mulliken gross atomic population
  ZA   - Total nuclear charge
  QA   - Mulliken gross atomic charge
  VA   - Mayer's total valence
  BVA  - Mayer's bonded valence
  FA   - Mayer's free valence

  ATOM       NA         ZA         QA         VA         BVA        FA
  0 S     13.5208    16.0000     2.4792     3.2662     3.2662     0.0000
  1 Si    13.8480    14.0000     0.1520     3.8487     3.8487    -0.0000
  2 O      9.2387     8.0000    -1.2387     1.3023     1.3023    -0.0000
  3 O      9.2387     8.0000    -1.2387     1.3023     1.3023     0.0000
  4 C      5.4177     6.0000     0.5823     4.0734     4.0734    -0.0000
  5 C      6.1083     6.0000    -0.1083     3.7477     3.7477     0.0000
  6 C      6.1083     6.0000    -0.1083     3.7477     3.7477    -0.0000
  7 C      5.3264     6.0000     0.6736     3.8899     3.8899     0.0000
  8 C      5.3264     6.0000     0.6736     3.8899     3.8899    -0.0000
  9 C      5.6724     6.0000     0.3276     4.3656     4.3656     0.0000
 10 H      1.5289     1.0000    -0.5289     0.6866     0.6866     0.0000
 11 H      1.4465     1.0000    -0.4465     0.6760     0.6760     0.0000
 12 H      1.5289     1.0000    -0.5289     0.6866     0.6866    -0.0000
 13 H      1.4465     1.0000    -0.4465     0.6760     0.6760    -0.0000
 14 H      1.4344     1.0000    -0.4344     0.7109     0.7109     0.0000
 15 H      0.9740     1.0000     0.0260     1.0791     1.0791    -0.0000
 16 H      0.9175     1.0000     0.0825     1.0994     1.0994    -0.0000
 17 H      0.9175     1.0000     0.0825     1.0994     1.0994    -0.0000

  Mayer bond orders larger than 0.100000
B(  0-S ,  1-Si) :   0.6626 B(  0-S ,  2-O ) :   0.8855 B(  0-S ,  3-O ) :   0.8855 
B(  0-S ,  4-C ) :   1.2496 B(  0-S ,  5-C ) :  -0.3416 B(  0-S ,  6-C ) :  -0.3416 
B(  0-S ,  7-C ) :   0.1126 B(  0-S ,  8-C ) :   0.1126 B(  0-S , 16-H ) :   0.1012 
B(  0-S , 17-H ) :   0.1012 B(  1-Si,  2-O ) :   0.1213 B(  1-Si,  3-O ) :   0.1213 
B(  1-Si, 15-H ) :   0.9953 B(  1-Si, 16-H ) :   0.9962 B(  1-Si, 17-H ) :   0.9962 
B(  2-O ,  3-O ) :   0.1408 B(  2-O ,  4-C ) :   0.2635 B(  3-O ,  4-C ) :   0.2635 
B(  4-C ,  5-C ) :   1.2474 B(  4-C ,  6-C ) :   1.2474 B(  4-C ,  7-C ) :  -0.3058 
B(  4-C ,  8-C ) :  -0.3058 B(  4-C , 10-H ) :   0.3483 B(  4-C , 12-H ) :   0.3483 
B(  5-C ,  6-C ) :  -0.1061 B(  5-C ,  7-C ) :   1.9739 B(  5-C ,  8-C ) :   0.1537 
B(  5-C ,  9-C ) :   0.2120 B(  5-C , 10-H ) :   0.1688 B(  5-C , 11-H ) :   0.3453 
B(  6-C ,  7-C ) :   0.1537 B(  6-C ,  8-C ) :   1.9739 B(  6-C ,  9-C ) :   0.2120 
B(  6-C , 12-H ) :   0.1688 B(  6-C , 13-H ) :   0.3453 B(  7-C ,  8-C ) :  -0.1694 
B(  7-C ,  9-C ) :   1.6672 B(  7-C , 10-H ) :   0.2160 B(  7-C , 11-H ) :   0.2171 
B(  7-C , 13-H ) :  -0.1023 B(  7-C , 14-H ) :   0.1706 B(  8-C ,  9-C ) :   1.6672 
B(  8-C , 11-H ) :  -0.1023 B(  8-C , 12-H ) :   0.2160 B(  8-C , 13-H ) :   0.2171 
B(  8-C , 14-H ) :   0.1706 B(  9-C , 11-H ) :   0.1677 B(  9-C , 13-H ) :   0.1677 
B(  9-C , 14-H ) :   0.3918 

-------
TIMINGS
-------

Total SCF time: 0 days 0 hours 0 min 46 sec 

Total time                  ....      46.285 sec
Sum of individual times     ....      45.573 sec  ( 98.5%)

Fock matrix formation       ....      44.137 sec  ( 95.4%)
Diagonalization             ....       0.521 sec  (  1.1%)
Density matrix formation    ....       0.018 sec  (  0.0%)
Population analysis         ....       0.073 sec  (  0.2%)
Initial guess               ....       0.186 sec  (  0.4%)
Orbital Transformation      ....       0.000 sec  (  0.0%)
Orbital Orthonormalization  ....       0.000 sec  (  0.0%)
DIIS solution               ....       0.171 sec  (  0.4%)
SOSCF solution              ....       0.131 sec  (  0.3%)

Maximum memory used throughout the entire SCF-calculation: 240.5 MB


           ************************************************************
           *        Program running with 16 parallel MPI-processes    *
           *              working on a common directory               *
           ************************************************************

------------------------------------------------------------------------------
                                ORCA  MP2 
------------------------------------------------------------------------------

Freezing NCore=36 chemical core electrons

-------------
RI-MP2 ENERGY
-------------
Dimension of the basis                    ...  310
Memory devoted to MP2                     ... 3800 MB   
Data format for buffers                   ... DOUBLE
Compression type for matrix containers    ... UNCOMPRESSED
Overall scaling of the MP2 energy         ...   1.000e+00
Calculating two index integrals           ... done (    0.009 sec)
Cholesky decomposition of V**-1           ... done (    0.104 sec)

-----------------
RI-TRANSFORMATION (AUX index driven)
-----------------

Dimension of the orbital-basis         ... 310
Dimension of the aux-basis             ... 944
Transformation of internal/external MOs...   18-  44 to   45- 309
Number Format for Storage              ... Double (8 Byte)
Integral mode                          ... Direct

First Phase: integral generation and transformation of MO indices
  Aux angular momentum 0               ... done (    0.028 sec)
  Aux angular momentum 1               ... done (    0.034 sec)
  Aux angular momentum 2               ... done (    0.043 sec)
  Aux angular momentum 3               ... done (    0.022 sec)
Closing buffer VIA ( 0.05 GB; CompressionRatio= 1.00)
  Phase 1 completed in     1.174 sec
Second Phase: sorting and transformation of aux index

IA-Transformation
Memory available                       ... 3746 MB 
Max. # MO pairs treated in a batch     ... 2    
# of internal orbitals                 ... 27
# batches for internal orbitals        ... 1
Closing buffer IAV ( 0.05 GB; CompressionRatio= 1.00)
(ia|v) transformation done in     0.107 sec

  Phase 2 completed in     0.164 sec
RI-Integral transformation completed in     1.350 sec
Opening buffers                              ... done

Starting loop over batches of integrals:

Operator 0  - window                       ... ( 18- 44)x( 45-309)
Operator 0  - Memory available             ...  3800 MB
Operator 0  - Memory needed per MO         ...   1.9 MB
Operator 0  - Number of orbitals per batch ... 2
Operator 0  - Number of batches            ... 1

OPERATOR  0   PASS   0:  MOs    18 ...   19 +   20 ...   21 +   22 ...   23 +   24 ...   25
                            +   26 ...   27 +   28 ...   29 +   30 ...   31 +   32 ...   33
                            +   34 ...   35 +   36 ...   37 +   38 ...   39 +   40 ...   41
                            +   42 ...   43 +   44 ...   44
  Reading integrals       ... ok
Time spent in pair loops =     0.014 sec
Deleting buffer (Ka|jb)[aa] ...done

-----------------------------------------------
 RI-MP2 CORRELATION ENERGY:     -1.464533131 Eh
-----------------------------------------------


-------
TIMINGS
-------

Total time                :    1.700 sec
Integral trafo            :    1.361 sec ( 80.0%)
I/O of integrals          :    0.002 sec (  0.1%)
K(i,j) Operators          :    0.011 sec (  0.6%)
T(i,j) pair energies      :    0.001 sec (  0.0%)
V-calculation             :    0.009 sec (  0.5%)
V**(-1/2)                 :    0.104 sec (  6.1%)
Gamma(ia|P)               :    0.000 sec (  0.0%)
Gamma-Trafo               :    0.000 sec (  0.0%)
D(virtual)                :    0.000 sec (  0.0%)
D(internal)               :    0.000 sec (  0.0%)
W(virtual)                :    0.000 sec (  0.0%)
W(internal)               :    0.000 sec (  0.0%)
L(virtual)                :    0.000 sec (  0.0%)
L(internal)               :    0.000 sec (  0.0%)
G(D)                      :    0.000 sec (  0.0%)
G(Z)                      :    0.000 sec (  0.0%)
Z-Vector Solution         :    0.000 sec (  0.0%)
3-Index Derivative        :    0.000 sec (  0.0%)
2-Index Derivative        :    0.000 sec (  0.0%)
Separable Gradient        :    0.000 sec (  0.0%)


---------------------------------------
MP2 TOTAL ENERGY:    -1069.474162770 Eh
---------------------------------------

Maximum memory used throughout the entire MP2-calculation: 106.9 MB

-------------------------   --------------------
FINAL SINGLE POINT ENERGY     -1069.474162770070
-------------------------   --------------------


                            ***************************************
                            *     ORCA property calculations      *
                            ***************************************


  WARNING: The energy has been calculated at the MP2 level but the densities
           used in the property calculations are still SCF densities
           MP2 response densities have not been calculated 
           use %mp2 Density relaxed end
           or  %mp2 Density unrelaxed end

                                    ---------------------
                                    Active property flags
                                    ---------------------
   (+) Dipole Moment


------------------------------------------------------------------------------
                       ORCA ELECTRIC PROPERTIES CALCULATION
------------------------------------------------------------------------------

Dipole Moment Calculation                       ... on
Quadrupole Moment Calculation                   ... off
Polarizability Calculation                      ... off
GBWName                                         ... DZ_Si-S_45_AB.gbw
Electron density                                ... DZ_Si-S_45_AB.scfp
The origin for moment calculation is the CENTER OF MASS  = ( 0.053983, -0.000001 -0.065608)

-------------
DIPOLE MOMENT
-------------
                                X             Y             Z
Electronic contribution:      3.65713      -0.00001      -4.01637
Nuclear contribution   :     -4.85847       0.00002       5.90469
                        -----------------------------------------
Total Dipole Moment    :     -1.20133       0.00001       1.88832
                        -----------------------------------------
Magnitude (a.u.)       :      2.23807
Magnitude (Debye)      :      5.68871



--------------------
Rotational spectrum 
--------------------
 
Rotational constants in cm-1:     0.062622     0.022210     0.021807 
Rotational constants in MHz :  1877.371381   665.834908   653.753626 

 Dipole components along the rotational axes: 
x,y,z [a.u.] :     1.227223     0.000007     1.871595 
x,y,z [Debye]:     3.119354     0.000019     4.757217 

 

Timings for individual modules:

Sum of individual times         ...       51.752 sec (=   0.863 min)
GTO integral calculation        ...        1.650 sec (=   0.028 min)   3.2 %
SCF iterations                  ...       47.300 sec (=   0.788 min)  91.4 %
MP2 module                      ...        2.802 sec (=   0.047 min)   5.4 %


                 $$$$$$$$$$$$$$$$  JOB NUMBER  2 $$$$$$$$$$$$$$


                       ****************************
                       * Single Point Calculation *
                       ****************************

---------------------------------
CARTESIAN COORDINATES (ANGSTROEM)
---------------------------------
  S      1.182093   -0.000002   -0.562137
  Si     2.157131    0.000004    1.428314
  O      1.505813    1.254189   -1.201105
  O      1.505813   -1.254197   -1.201096
  C     -0.558619   -0.000001   -0.226972
  C     -1.221295   -1.208892   -0.087186
  C     -1.221294    1.208891   -0.087191
  C     -2.574110   -1.203149    0.201090
  C     -2.574110    1.203150    0.201085
  C     -3.246317    0.000001    0.347514
  H     -0.679491   -2.133970   -0.225899
  H     -3.106526   -2.138730    0.304856
  H     -0.679491    2.133969   -0.225909
  H     -3.106525    2.138732    0.304846
  H     -4.304834    0.000002    0.571248
  H      3.598414    0.000002    1.132659
  H      1.723299   -1.219116    2.131786
  H      1.723301    1.219129    2.131779

----------------------------
CARTESIAN COORDINATES (A.U.)
----------------------------
  NO LB      ZA    FRAG     MASS         X           Y           Z
   0 S    16.0000    0    32.060    2.233832   -0.000004   -1.062285
   1 Si   14.0000    0    28.086    4.076387    0.000008    2.699122
   2 O     8.0000    0    15.999    2.845574    2.370074   -2.269760
   3 O     8.0000    0    15.999    2.845574   -2.370089   -2.269743
   4 C     6.0000    0    12.011   -1.055637   -0.000002   -0.428915
   5 C     6.0000    0    12.011   -2.307913   -2.284475   -0.164758
   6 C     6.0000    0    12.011   -2.307911    2.284473   -0.164767
   7 C     6.0000    0    12.011   -4.864363   -2.273622    0.380005
   8 C     6.0000    0    12.011   -4.864363    2.273624    0.379996
   9 C     6.0000    0    12.011   -6.134650    0.000002    0.656706
  10 H     1.0000    0     1.008   -1.284052   -4.032619   -0.426887
  11 H     1.0000    0     1.008   -5.870483   -4.041614    0.576094
  12 H     1.0000    0     1.008   -1.284052    4.032617   -0.426906
  13 H     1.0000    0     1.008   -5.870481    4.041618    0.576075
  14 H     1.0000    0     1.008   -8.134957    0.000004    1.079502
  15 H     1.0000    0     1.008    6.800017    0.000004    2.140415
[...]
[1731913671.745031] [nc10442:2743946:0]          mpool.c:42   UCX  WARN  object 0x143d5780 was not returned to mpool ucp_requests
[1731913671.745035] [nc10442:2743946:0]          mpool.c:42   UCX  WARN  object 0x143d5940 was not returned to mpool ucp_requests
[1731913671.745039] [nc10442:2743946:0]          mpool.c:42   UCX  WARN  object 0x143d5b00 was not returned to mpool ucp_requests
[1731913671.745043] [nc10442:2743946:0]          mpool.c:42   UCX  WARN  object 0x143d5cc0 was not returned to mpool ucp_requests
[1731913671.745047] [nc10442:2743946:0]          mpool.c:42   UCX  WARN  object 0x143d5e80 was not returned to mpool ucp_requests
[1731913671.745946] [nc10442:2743942:0]          mpool.c:42   UCX  WARN  object 0x13642600 was not returned to mpool ucp_requests
[1731913671.745975] [nc10442:2743942:0]          mpool.c:42   UCX  WARN  object 0x136427c0 was not returned to mpool ucp_requests
[1731913671.745980] [nc10442:2743942:0]          mpool.c:42   UCX  WARN  object 0x13642980 was not returned to mpool ucp_requests
[1731913671.745988] [nc10442:2743942:0]          mpool.c:42   UCX  WARN  object 0x13642b40 was not returned to mpool ucp_requests
[1731913671.745992] [nc10442:2743942:0]          mpool.c:42   UCX  WARN  object 0x13642d00 was not returned to mpool ucp_requests
[1731913671.745998] [nc10442:2743942:0]          mpool.c:42   UCX  WARN  object 0x13643080 was not returned to mpool ucp_requests
[1731913671.746006] [nc10442:2743942:0]          mpool.c:42   UCX  WARN  object 0x13643240 was not returned to mpool ucp_requests
[1731913671.746010] [nc10442:2743942:0]          mpool.c:42   UCX  WARN  object 0x13643400 was not returned to mpool ucp_requests
[1731913671.746013] [nc10442:2743942:0]          mpool.c:42   UCX  WARN  object 0x136435c0 was not returned to mpool ucp_requests
[1731913671.746626] [nc10442:2743947:0]          mpool.c:42   UCX  WARN  object 0x13ecb900 was not returned to mpool ucp_requests
[1731913671.746641] [nc10442:2743947:0]          mpool.c:42   UCX  WARN  object 0x13ecbac0 was not returned to mpool ucp_requests
[1731913671.746647] [nc10442:2743947:0]          mpool.c:42   UCX  WARN  object 0x13ecbc80 was not returned to mpool ucp_requests
[1731913671.746649] [nc10442:2743947:0]          mpool.c:42   UCX  WARN  object 0x13ecbe40 was not returned to mpool ucp_requests
[1731913671.746652] [nc10442:2743947:0]          mpool.c:42   UCX  WARN  object 0x13ecc000 was not returned to mpool ucp_requests
[1731913671.746654] [nc10442:2743947:0]          mpool.c:42   UCX  WARN  object 0x13ecc1c0 was not returned to mpool ucp_requests
[1731913671.746656] [nc10442:2743947:0]          mpool.c:42   UCX  WARN  object 0x13ecc380 was not returned to mpool ucp_requests
[1731913671.746659] [nc10442:2743947:0]          mpool.c:42   UCX  WARN  object 0x13ecc540 was not returned to mpool ucp_requests
[1731913671.746662] [nc10442:2743947:0]          mpool.c:42   UCX  WARN  object 0x13ecc700 was not returned to mpool ucp_requests
[1731913671.746921] [nc10442:2743943:0]          mpool.c:42   UCX  WARN  object 0x13286140 was not returned to mpool ucp_requests
[1731913671.746938] [nc10442:2743943:0]          mpool.c:42   UCX  WARN  object 0x13286300 was not returned to mpool ucp_requests
[1731913671.746943] [nc10442:2743943:0]          mpool.c:42   UCX  WARN  object 0x132864c0 was not returned to mpool ucp_requests
[1731913671.746947] [nc10442:2743943:0]          mpool.c:42   UCX  WARN  object 0x13286680 was not returned to mpool ucp_requests
[1731913671.746951] [nc10442:2743943:0]          mpool.c:42   UCX  WARN  object 0x13286840 was not returned to mpool ucp_requests
[1731913671.746954] [nc10442:2743943:0]          mpool.c:42   UCX  WARN  object 0x13286a00 was not returned to mpool ucp_requests
[1731913671.746962] [nc10442:2743943:0]          mpool.c:42   UCX  WARN  object 0x13286d80 was not returned to mpool ucp_requests
[1731913671.746965] [nc10442:2743943:0]          mpool.c:42   UCX  WARN  object 0x13286f40 was not returned to mpool ucp_requests
[1731913671.746970] [nc10442:2743943:0]          mpool.c:42   UCX  WARN  object 0x13287100 was not returned to mpool ucp_requests
[1731913671.746879] [nc10442:2743944:0]          mpool.c:42   UCX  WARN  object 0x14371f40 was not returned to mpool ucp_requests
[1731913671.746898] [nc10442:2743944:0]          mpool.c:42   UCX  WARN  object 0x14372100 was not returned to mpool ucp_requests
[1731913671.746902] [nc10442:2743944:0]          mpool.c:42   UCX  WARN  object 0x143722c0 was not returned to mpool ucp_requests
[1731913671.746904] [nc10442:2743944:0]          mpool.c:42   UCX  WARN  object 0x14372480 was not returned to mpool ucp_requests
[1731913671.746907] [nc10442:2743944:0]          mpool.c:42   UCX  WARN  object 0x14372640 was not returned to mpool ucp_requests
[1731913671.746909] [nc10442:2743944:0]          mpool.c:42   UCX  WARN  object 0x14372800 was not returned to mpool ucp_requests
[1731913671.746912] [nc10442:2743944:0]          mpool.c:42   UCX  WARN  object 0x14372b80 was not returned to mpool ucp_requests
[1731913671.746914] [nc10442:2743944:0]          mpool.c:42   UCX  WARN  object 0x14372d40 was not returned to mpool ucp_requests
[1731913671.746916] [nc10442:2743944:0]          mpool.c:42   UCX  WARN  object 0x14372f00 was not returned to mpool ucp_requests
[1731913671.747275] [nc10442:2743961:0]          mpool.c:42   UCX  WARN  object 0x12fa4740 was not returned to mpool ucp_requests
[1731913671.747288] [nc10442:2743961:0]          mpool.c:42   UCX  WARN  object 0x12fa4900 was not returned to mpool ucp_requests
[1731913671.747293] [nc10442:2743961:0]          mpool.c:42   UCX  WARN  object 0x12fa4ac0 was not returned to mpool ucp_requests
[1731913671.747297] [nc10442:2743961:0]          mpool.c:42   UCX  WARN  object 0x12fa4c80 was not returned to mpool ucp_requests
[1731913671.747301] [nc10442:2743961:0]          mpool.c:42   UCX  WARN  object 0x12fa4e40 was not returned to mpool ucp_requests
[1731913671.747306] [nc10442:2743961:0]          mpool.c:42   UCX  WARN  object 0x12fa5000 was not returned to mpool ucp_requests
[1731913671.747310] [nc10442:2743961:0]          mpool.c:42   UCX  WARN  object 0x12fa5380 was not returned to mpool ucp_requests
[1731913671.747314] [nc10442:2743961:0]          mpool.c:42   UCX  WARN  object 0x12fa5540 was not returned to mpool ucp_requests
[1731913671.747318] [nc10442:2743961:0]          mpool.c:42   UCX  WARN  object 0x12fa5700 was not returned to mpool ucp_requests
[1731913671.747821] [nc10442:2743939:0]          mpool.c:42   UCX  WARN  object 0x12d2dc80 was not returned to mpool ucp_requests
[1731913671.747836] [nc10442:2743939:0]          mpool.c:42   UCX  WARN  object 0x12d2e1c0 was not returned to mpool ucp_requests
[1731913671.747840] [nc10442:2743939:0]          mpool.c:42   UCX  WARN  object 0x12d2e380 was not returned to mpool ucp_requests
[1731913671.747844] [nc10442:2743939:0]          mpool.c:42   UCX  WARN  object 0x12d2e540 was not returned to mpool ucp_requests
[1731913671.747848] [nc10442:2743939:0]          mpool.c:42   UCX  WARN  object 0x12d2e700 was not returned to mpool ucp_requests
[1731913671.747852] [nc10442:2743939:0]          mpool.c:42   UCX  WARN  object 0x12d2e8c0 was not returned to mpool ucp_requests
[1731913671.747855] [nc10442:2743939:0]          mpool.c:42   UCX  WARN  object 0x12d2ea80 was not returned to mpool ucp_requests
[1731913671.747859] [nc10442:2743939:0]          mpool.c:42   UCX  WARN  object 0x12d2ec40 was not returned to mpool ucp_requests
[1731913671.747862] [nc10442:2743939:0]          mpool.c:42   UCX  WARN  object 0x12d2efc0 was not returned to mpool ucp_requests
[1731913671.747866] [nc10442:2743939:0]          mpool.c:42   UCX  WARN  object 0x12d2f180 was not returned to mpool ucp_requests
[1731913671.748010] [nc10442:2743945:0]          mpool.c:42   UCX  WARN  object 0x127626c0 was not returned to mpool ucp_requests
[1731913671.748023] [nc10442:2743945:0]          mpool.c:42   UCX  WARN  object 0x12762880 was not returned to mpool ucp_requests
[1731913671.748027] [nc10442:2743945:0]          mpool.c:42   UCX  WARN  object 0x12762a40 was not returned to mpool ucp_requests
[1731913671.748031] [nc10442:2743945:0]          mpool.c:42   UCX  WARN  object 0x12762c00 was not returned to mpool ucp_requests
[1731913671.748034] [nc10442:2743945:0]          mpool.c:42   UCX  WARN  object 0x12762dc0 was not returned to mpool ucp_requests
[1731913671.748038] [nc10442:2743945:0]          mpool.c:42   UCX  WARN  object 0x12762f80 was not returned to mpool ucp_requests
[1731913671.748041] [nc10442:2743945:0]          mpool.c:42   UCX  WARN  object 0x12763140 was not returned to mpool ucp_requests
[1731913671.748045] [nc10442:2743945:0]          mpool.c:42   UCX  WARN  object 0x12763300 was not returned to mpool ucp_requests
[1731913671.748050] [nc10442:2743945:0]          mpool.c:42   UCX  WARN  object 0x127634c0 was not returned to mpool ucp_requests
[1731913671.748555] [nc10442:2743941:0]          mpool.c:42   UCX  WARN  object 0x14477940 was not returned to mpool ucp_requests
[1731913671.748569] [nc10442:2743941:0]          mpool.c:42   UCX  WARN  object 0x14477b00 was not returned to mpool ucp_requests
[1731913671.748574] [nc10442:2743941:0]          mpool.c:42   UCX  WARN  object 0x14477cc0 was not returned to mpool ucp_requests
[1731913671.748577] [nc10442:2743941:0]          mpool.c:42   UCX  WARN  object 0x14477e80 was not returned to mpool ucp_requests
[1731913671.748579] [nc10442:2743941:0]          mpool.c:42   UCX  WARN  object 0x14478040 was not returned to mpool ucp_requests
[1731913671.748584] [nc10442:2743941:0]          mpool.c:42   UCX  WARN  object 0x144783c0 was not returned to mpool ucp_requests
[1731913671.748586] [nc10442:2743941:0]          mpool.c:42   UCX  WARN  object 0x14478580 was not returned to mpool ucp_requests
[1731913671.748588] [nc10442:2743941:0]          mpool.c:42   UCX  WARN  object 0x14478740 was not returned to mpool ucp_requests
[1731913671.748590] [nc10442:2743941:0]          mpool.c:42   UCX  WARN  object 0x14478900 was not returned to mpool ucp_requests
[1731913671.748593] [nc10442:2743941:0]          mpool.c:42   UCX  WARN  object 0x14478ac0 was not returned to mpool ucp_requests
[1731913671.748869] [nc10442:2743948:0]          mpool.c:42   UCX  WARN  object 0x14274d40 was not returned to mpool ucp_requests
[1731913671.748888] [nc10442:2743948:0]          mpool.c:42   UCX  WARN  object 0x14274f00 was not returned to mpool ucp_requests
[1731913671.748893] [nc10442:2743948:0]          mpool.c:42   UCX  WARN  object 0x142750c0 was not returned to mpool ucp_requests
[1731913671.748896] [nc10442:2743948:0]          mpool.c:42   UCX  WARN  object 0x14275280 was not returned to mpool ucp_requests
[1731913671.748900] [nc10442:2743948:0]          mpool.c:42   UCX  WARN  object 0x14275440 was not returned to mpool ucp_requests
[1731913671.748903] [nc10442:2743948:0]          mpool.c:42   UCX  WARN  object 0x14275600 was not returned to mpool ucp_requests
[1731913671.748905] [nc10442:2743948:0]          mpool.c:42   UCX  WARN  object 0x142757c0 was not returned to mpool ucp_requests
[1731913671.748908] [nc10442:2743948:0]          mpool.c:42   UCX  WARN  object 0x14275980 was not returned to mpool ucp_requests
[1731913671.748911] [nc10442:2743948:0]          mpool.c:42   UCX  WARN  object 0x14275b40 was not returned to mpool ucp_requests
[1731913671.748955] [nc10442:2743963:0]          mpool.c:42   UCX  WARN  object 0x13249c00 was not returned to mpool ucp_requests
[1731913671.748969] [nc10442:2743963:0]          mpool.c:42   UCX  WARN  object 0x13249dc0 was not returned to mpool ucp_requests
[1731913671.748976] [nc10442:2743963:0]          mpool.c:42   UCX  WARN  object 0x13249f80 was not returned to mpool ucp_requests
[1731913671.748979] [nc10442:2743963:0]          mpool.c:42   UCX  WARN  object 0x1324a140 was not returned to mpool ucp_requests
[1731913671.748981] [nc10442:2743963:0]          mpool.c:42   UCX  WARN  object 0x1324a300 was not returned to mpool ucp_requests
[1731913671.748984] [nc10442:2743963:0]          mpool.c:42   UCX  WARN  object 0x1324a4c0 was not returned to mpool ucp_requests
[1731913671.748986] [nc10442:2743963:0]          mpool.c:42   UCX  WARN  object 0x1324a680 was not returned to mpool ucp_requests
[1731913671.748989] [nc10442:2743963:0]          mpool.c:42   UCX  WARN  object 0x1324a840 was not returned to mpool ucp_requests
[1731913671.748991] [nc10442:2743963:0]          mpool.c:42   UCX  WARN  object 0x1324abc0 was not returned to mpool ucp_requests


           ************************************************************
           *        Program running with 16 parallel MPI-processes    *
           *              working on a common directory               *
           ************************************************************

------------------------------------------------------------------------------
                                ORCA  MP2 
------------------------------------------------------------------------------

Freezing NCore=36 chemical core electrons

-------------
RI-MP2 ENERGY
-------------
Dimension of the basis                    ... 1176
Memory devoted to MP2                     ... 3800 MB   
Data format for buffers                   ... DOUBLE
Compression type for matrix containers    ... UNCOMPRESSED
Overall scaling of the MP2 energy         ...   1.000e+00
Calculating two index integrals           ... done (    0.050 sec)
Cholesky decomposition of V**-1           ... done (    0.532 sec)

-----------------
RI-TRANSFORMATION (AUX index driven)
-----------------

Dimension of the orbital-basis         ... 1176
Dimension of the aux-basis             ... 2372
Transformation of internal/external MOs...   18-  44 to   45-1175
Number Format for Storage              ... Double (8 Byte)
Integral mode                          ... Direct

First Phase: integral generation and transformation of MO indices
  Aux angular momentum 0               ... done (    0.258 sec)
  Aux angular momentum 1               ... done (    0.563 sec)
  Aux angular momentum 2               ... done (    0.831 sec)
  Aux angular momentum 3               ... done (    1.022 sec)
  Aux angular momentum 4               ... done (    0.899 sec)
  Aux angular momentum 5               ... done (    0.640 sec)
Closing buffer VIA ( 0.54 GB; CompressionRatio= 1.00)
  Phase 1 completed in     4.776 sec
Second Phase: sorting and transformation of aux index

IA-Transformation
Memory available                       ... 3692 MB 
Max. # MO pairs treated in a batch     ... 2    
# of internal orbitals                 ... 27
# batches for internal orbitals        ... 1
Closing buffer IAV ( 0.54 GB; CompressionRatio= 1.00)
(ia|v) transformation done in     0.975 sec

  Phase 2 completed in     1.133 sec
RI-Integral transformation completed in     5.931 sec
Opening buffers                              ... done

Starting loop over batches of integrals:

Operator 0  - window                       ... ( 18- 44)x( 45-1175)
Operator 0  - Memory available             ...  3800 MB
Operator 0  - Memory needed per MO         ...  20.5 MB
Operator 0  - Number of orbitals per batch ... 2
Operator 0  - Number of batches            ... 1

OPERATOR  0   PASS   0:  MOs    18 ...   19 +   20 ...   21 +   22 ...   23 +   24 ...   25
                            +   26 ...   27 +   28 ...   29 +   30 ...   31 +   32 ...   33
                            +   34 ...   35 +   36 ...   37 +   38 ...   39 +   40 ...   41
                            +   42 ...   43 +   44 ...   44
  Reading integrals       ... ok
Time spent in pair loops =     0.494 sec
Deleting buffer (Ka|jb)[aa] ...done

-----------------------------------------------
 RI-MP2 CORRELATION ENERGY:     -1.869301177 Eh
-----------------------------------------------


-------
TIMINGS
-------

Total time                :   15.287 sec
Integral trafo            :    5.942 sec ( 38.9%)
I/O of integrals          :    0.021 sec (  0.1%)
K(i,j) Operators          :    0.407 sec (  2.7%)
T(i,j) pair energies      :    0.028 sec (  0.2%)
V-calculation             :    0.050 sec (  0.3%)
V**(-1/2)                 :    0.532 sec (  3.5%)
Gamma(ia|P)               :    0.000 sec (  0.0%)
Gamma-Trafo               :    0.000 sec (  0.0%)
D(virtual)                :    0.000 sec (  0.0%)
D(internal)               :    0.000 sec (  0.0%)
W(virtual)                :    0.000 sec (  0.0%)
W(internal)               :    0.000 sec (  0.0%)
L(virtual)                :    0.000 sec (  0.0%)
L(internal)               :    0.000 sec (  0.0%)
G(D)                      :    0.000 sec (  0.0%)
G(Z)                      :    0.000 sec (  0.0%)
Z-Vector Solution         :    0.000 sec (  0.0%)
3-Index Derivative        :    0.000 sec (  0.0%)
2-Index Derivative        :    0.000 sec (  0.0%)
Separable Gradient        :    0.000 sec (  0.0%)


---------------------------------------
MP2 TOTAL ENERGY:    -1070.077143758 Eh
---------------------------------------

Maximum memory used throughout the entire MP2-calculation: 304.2 MB

-------------------------   --------------------
FINAL SINGLE POINT ENERGY     -1070.077143758287
-------------------------   --------------------


                            ***************************************
                            *     ORCA property calculations      *
                            ***************************************


  WARNING: The energy has been calculated at the MP2 level but the densities
           used in the property calculations are still SCF densities
           MP2 response densities have not been calculated 
           use %mp2 Density relaxed end
           or  %mp2 Density unrelaxed end

                                    ---------------------
                                    Active property flags
                                    ---------------------
   (+) Dipole Moment


------------------------------------------------------------------------------
                       ORCA ELECTRIC PROPERTIES CALCULATION
------------------------------------------------------------------------------

Dipole Moment Calculation                       ... on
Quadrupole Moment Calculation                   ... off
Polarizability Calculation                      ... off
GBWName                                         ... QZ_Si-S_45_AB.gbw
Electron density                                ... QZ_Si-S_45_AB.scfp
The origin for moment calculation is the CENTER OF MASS  = ( 0.053983, -0.000001 -0.065608)

-------------
DIPOLE MOMENT
-------------
                                X             Y             Z
Electronic contribution:      3.66185      -0.00001      -4.04875
Nuclear contribution   :     -4.85847       0.00002       5.90469
                        -----------------------------------------
Total Dipole Moment    :     -1.19661       0.00001       1.85594
                        -----------------------------------------
Magnitude (a.u.)       :      2.20825
Magnitude (Debye)      :      5.61294



--------------------
Rotational spectrum 
--------------------
 
Rotational constants in cm-1:     0.062622     0.022210     0.021807 
Rotational constants in MHz :  1877.371381   665.834908   653.753626 

 Dipole components along the rotational axes: 
x,y,z [a.u.] :     1.222062     0.000007     1.839281 
x,y,z [Debye]:     3.106234     0.000018     4.675080 

 

Timings for individual modules:

Sum of individual times         ...     2817.116 sec (=  46.952 min)
GTO integral calculation        ...        4.777 sec (=   0.080 min)   0.2 %
SCF iterations                  ...     2795.454 sec (=  46.591 min)  99.2 %
MP2 module                      ...       16.884 sec (=   0.281 min)   0.6 %



                             ****ORCA TERMINATED NORMALLY****
TOTAL RUN TIME: 0 days 0 hours 53 minutes 50 seconds 732 msec
