
                                 *****************
                                 * O   R   C   A *
                                 *****************

                                            #,                                       
                                            ###                                      
                                            ####                                     
                                            #####                                    
                                            ######                                   
                                           ########,                                 
                                     ,,################,,,,,                         
                               ,,#################################,,                 
                          ,,##########################################,,             
                       ,#########################################, ''#####,          
                    ,#############################################,,   '####,        
                  ,##################################################,,,,####,       
                ,###########''''           ''''###############################       
              ,#####''   ,,,,##########,,,,          '''####'''          '####       
            ,##' ,,,,###########################,,,                        '##       
           ' ,,###''''                  '''############,,,                           
         ,,##''                                '''############,,,,        ,,,,,,###''
      ,#''                                            '''#######################'''  
     '                                                          ''''####''''         
             ,#######,   #######,   ,#######,      ##                                
            ,#'     '#,  ##    ##  ,#'     '#,    #''#        ######   ,####,        
            ##       ##  ##   ,#'  ##            #'  '#       #        #'  '#        
            ##       ##  #######   ##           ,######,      #####,   #    #        
            '#,     ,#'  ##    ##  '#,     ,#' ,#      #,         ##   #,  ,#        
             '#######'   ##     ##  '#######'  #'      '#     #####' # '####'        



                  #######################################################
                  #                        -***-                        #
                  #          Department of theory and spectroscopy      #
                  #    Directorship and core code : Frank Neese         #
                  #        Max Planck Institute fuer Kohlenforschung    #
                  #                Kaiser Wilhelm Platz 1               #
                  #                 D-45470 Muelheim/Ruhr               #
                  #                      Germany                        #
                  #                                                     #
                  #                  All rights reserved                #
                  #                        -***-                        #
                  #######################################################


                         Program Version 5.0.4 -  RELEASE  -


 With contributions from (in alphabetic order):
   Daniel Aravena         : Magnetic Suceptibility
   Michael Atanasov       : Ab Initio Ligand Field Theory (pilot matlab implementation)
   Alexander A. Auer      : GIAO ZORA, VPT2 properties, NMR spectrum
   Ute Becker             : Parallelization
   Giovanni Bistoni       : ED, misc. LED, open-shell LED, HFLD
   Martin Brehm           : Molecular dynamics
   Dmytro Bykov           : SCF Hessian
   Vijay G. Chilkuri      : MRCI spin determinant printing, contributions to CSF-ICE
   Dipayan Datta          : RHF DLPNO-CCSD density
   Achintya Kumar Dutta   : EOM-CC, STEOM-CC
   Dmitry Ganyushin       : Spin-Orbit,Spin-Spin,Magnetic field MRCI
   Miquel Garcia          : C-PCM and meta-GGA Hessian, CC/C-PCM, Gaussian charge scheme
   Yang Guo               : DLPNO-NEVPT2, F12-NEVPT2, CIM, IAO-localization
   Andreas Hansen         : Spin unrestricted coupled pair/coupled cluster methods
   Benjamin Helmich-Paris : MC-RPA, TRAH-SCF, COSX integrals
   Lee Huntington         : MR-EOM, pCC
   Robert Izsak           : Overlap fitted RIJCOSX, COSX-SCS-MP3, EOM
   Marcus Kettner         : VPT2
   Christian Kollmar      : KDIIS, OOCD, Brueckner-CCSD(T), CCSD density, CASPT2, CASPT2-K
   Simone Kossmann        : Meta GGA functionals, TD-DFT gradient, OOMP2, MP2 Hessian
   Martin Krupicka        : Initial AUTO-CI
   Lucas Lang             : DCDCAS
   Marvin Lechner         : AUTO-CI (C++ implementation), FIC-MRCC
   Dagmar Lenk            : GEPOL surface, SMD
   Dimitrios Liakos       : Extrapolation schemes; Compound Job, initial MDCI parallelization
   Dimitrios Manganas     : Further ROCIS development; embedding schemes
   Dimitrios Pantazis     : SARC Basis sets
   Anastasios Papadopoulos: AUTO-CI, single reference methods and gradients
   Taras Petrenko         : DFT Hessian,TD-DFT gradient, ASA, ECA, R-Raman, ABS, FL, XAS/XES, NRVS
   Peter Pinski           : DLPNO-MP2, DLPNO-MP2 Gradient
   Christoph Reimann      : Effective Core Potentials
   Marius Retegan         : Local ZFS, SOC
   Christoph Riplinger    : Optimizer, TS searches, QM/MM, DLPNO-CCSD(T), (RO)-DLPNO pert. Triples
   Tobias Risthaus        : Range-separated hybrids, TD-DFT gradient, RPA, STAB
   Michael Roemelt        : Original ROCIS implementation
   Masaaki Saitow         : Open-shell DLPNO-CCSD energy and density
   Barbara Sandhoefer     : DKH picture change effects
   Avijit Sen             : IP-ROCIS
   Kantharuban Sivalingam : CASSCF convergence, NEVPT2, FIC-MRCI
   Bernardo de Souza      : ESD, SOC TD-DFT
   Georgi Stoychev        : AutoAux, RI-MP2 NMR, DLPNO-MP2 response
   Willem Van den Heuvel  : Paramagnetic NMR
   Boris Wezisla          : Elementary symmetry handling
   Frank Wennmohs         : Technical directorship


 We gratefully acknowledge several colleagues who have allowed us to
 interface, adapt or use parts of their codes:
   Stefan Grimme, W. Hujo, H. Kruse, P. Pracht,  : VdW corrections, initial TS optimization,
                  C. Bannwarth, S. Ehlert          DFT functionals, gCP, sTDA/sTD-DF
   Ed Valeev, F. Pavosevic, A. Kumar             : LibInt (2-el integral package), F12 methods
   Garnet Chan, S. Sharma, J. Yang, R. Olivares  : DMRG
   Ulf Ekstrom                                   : XCFun DFT Library
   Mihaly Kallay                                 : mrcc  (arbitrary order and MRCC methods)
   Jiri Pittner, Ondrej Demel                    : Mk-CCSD
   Frank Weinhold                                : gennbo (NPA and NBO analysis)
   Christopher J. Cramer and Donald G. Truhlar   : smd solvation model
   Lars Goerigk                                  : TD-DFT with DH, B97 family of functionals
   V. Asgeirsson, H. Jonsson                     : NEB implementation
   FAccTs GmbH                                   : IRC, NEB, NEB-TS, DLPNO-Multilevel, CI-OPT
                                                   MM, QMMM, 2- and 3-layer-ONIOM, Crystal-QMMM,
                                                   LR-CPCM, SF, NACMEs, symmetry and pop. for TD-DFT,
                                                   nearIR, NL-DFT gradient (VV10), updates on ESD,
                                                   ML-optimized integration grids
   S Lehtola, MJT Oliveira, MAL Marques          : LibXC Library
   Liviu Ungur et al                             : ANISO software


 Your calculation uses the libint2 library for the computation of 2-el integrals
 For citations please refer to: http://libint.valeyev.net

 Your ORCA version has been built with support for libXC version: 5.1.0
 For citations please refer to: https://tddft.org/programs/libxc/

 This ORCA versions uses:
   CBLAS   interface :  Fast vector & matrix operations
   LAPACKE interface :  Fast linear algebra routines
   SCALAPACK package :  Parallel linear algebra routines
   Shared memory     :  Shared parallel matrices
   BLAS/LAPACK       :  OpenBLAS 0.3.15  USE64BITINT DYNAMIC_ARCH NO_AFFINITY Zen SINGLE_THREADED
        Core in use  :  Zen
   Copyright (c) 2011-2014, The OpenBLAS Project


================================================================================

----- Orbital basis set information -----
Your calculation utilizes the basis: aug-cc-pVDZ 
    H, B-Ne : Obtained from the ccRepo (grant-hill.group.shef.ac.uk/ccrepo) Feb. 2017
              R. A. Kendall, T. H. Dunning, Jr., R. J. Harrison, J. Chem. Phys. 96, 6796 (1992)
         He : Obtained from the ccRepo (grant-hill.group.shef.ac.uk/ccrepo) Feb. 2017
              D. E. Woon, T. H. Dunning, Jr., J. Chem. Phys. 100, 2975 (1994)
  Li-Be, Na : Obtained from the ccRepo (grant-hill.group.shef.ac.uk/ccrepo) Feb. 2017
              B. P. Prascher, D. E. Woon, K. A. Peterson, T. H. Dunning, Jr., A. K. Wilson, Theor. Chem. Acc. 128, 69 (2011)
         Mg : Obtained from the Peterson Research Group Website (tyr0.chem.wsu.edu/~kipeters) Feb. 2017
              B. P. Prascher, D. E. Woon, K. A. Peterson, T. H. Dunning, Jr., A. K. Wilson, Theor. Chem. Acc. 128, 69 (2011)
      Al-Ar : Obtained from the ccRepo (grant-hill.group.shef.ac.uk/ccrepo) Feb. 2017
              D. E. Woon, T. H. Dunning, Jr., J. Chem. Phys. 98, 1358 (1993)
      Sc-Zn : Obtained from the ccRepo (grant-hill.group.shef.ac.uk/ccrepo) Feb. 2017
              N. B. Balabanov, K. A. Peterson, J. Chem. Phys. 123, 064107 (2005)
              N. B. Balabanov, K. A. Peterson, J. Chem. Phys. 125, 074110 (2006)
      Ga-Kr : Obtained from the ccRepo (grant-hill.group.shef.ac.uk/ccrepo) Feb. 2017
              A. K. Wilson, D. E. Woon, K. A. Peterson, T. H. Dunning, Jr., J. Chem. Phys. 110, 7667 (1999)

----- AuxC basis set information -----
Your calculation utilizes the auxiliary basis: aug-cc-pVDZ/C 
  H-He, B, Ne, Al-Ar, Ga-Ge, Se-Br : Obtained from the EMSL Basis Set Exchange (bse.pnl.gov) Feb. 2017
                                     F. Weigend, A. Kohn, C. Hattig, J. Chem. Phys. 116, 3175 (2002)
                            Be, Mg : Obtained from the TURBOMOLE 7.0 basis set library
                                     C. Haettig, Phys. Chem. Chem. Phys. 7, 59 (2005)
                               C-F : Obtained from the EMSL Basis Set Exchange (bse.pnl.gov) Feb. 2017
                                     C. Haettig, Phys. Chem. Chem. Phys. 7, 59 (2005)
                                     F. Weigend, A. Kohn, C. Hattig, J. Chem. Phys. 116, 3175 (2002)
                                As : Obtained from the EMSL Basis Set Exchange (bse.pnl.gov) Feb. 2017
                                     C. Haettig, G. Schmitz, J. Kossmann, Phys. Chem. Chem. Phys. 14, 6549 (2012)
                                Kr : Obtained from the TURBOMOLE 7.0 basis set library
                                     F. Weigend, A. Kohn, C. Hattig, J. Chem. Phys. 116, 3175 (2002)
                                     S function revised in Sep. 2009

================================================================================
                                        WARNINGS
                       Please study these warnings very carefully!
================================================================================


WARNING: your system is open-shell and RHF/RKS was chosen
  ===> : WILL SWITCH to UHF/UKS


WARNING: No MP2 level density has been requested!
         To caclulate MP2 level properties use
         %mp2 Density relaxed end
         or
         %mp2 Density unrelaxed end

WARNING: Post HF methods need fully converged wavefunctions
  ===> : Setting SCFConvForced true
         You can overwrite this default with %scf ConvForced false 


INFO   : the flag for use of the SHARK integral package has been found!

================================================================================

----- Orbital basis set information -----
Your calculation utilizes the basis: aug-cc-pVTZ 
    H, B-Ne : Obtained from the ccRepo (grant-hill.group.shef.ac.uk/ccrepo) Feb. 2017
              R. A. Kendall, T. H. Dunning, Jr., R. J. Harrison, J. Chem. Phys. 96, 6796 (1992)
         He : Obtained from the ccRepo (grant-hill.group.shef.ac.uk/ccrepo) Feb. 2017
              D. E. Woon, T. H. Dunning, Jr., J. Chem. Phys. 100, 2975 (1994)
  Li-Be, Na : Obtained from the ccRepo (grant-hill.group.shef.ac.uk/ccrepo) Feb. 2017
              B. P. Prascher, D. E. Woon, K. A. Peterson, T. H. Dunning, Jr., A. K. Wilson, Theor. Chem. Acc. 128, 69 (2011)
         Mg : Obtained from the Peterson Research Group Website (tyr0.chem.wsu.edu/~kipeters) Feb. 2017
              B. P. Prascher, D. E. Woon, K. A. Peterson, T. H. Dunning, Jr., A. K. Wilson, Theor. Chem. Acc. 128, 69 (2011)
      Al-Ar : Obtained from the ccRepo (grant-hill.group.shef.ac.uk/ccrepo) Feb. 2017
              D. E. Woon, T. H. Dunning, Jr., J. Chem. Phys. 98, 1358 (1993)
      Sc-Zn : Obtained from the ccRepo (grant-hill.group.shef.ac.uk/ccrepo) Feb. 2017
              N. B. Balabanov, K. A. Peterson, J. Chem. Phys. 123, 064107 (2005)
              N. B. Balabanov, K. A. Peterson, J. Chem. Phys. 125, 074110 (2006)
      Ga-Kr : Obtained from the ccRepo (grant-hill.group.shef.ac.uk/ccrepo) Feb. 2017
              A. K. Wilson, D. E. Woon, K. A. Peterson, T. H. Dunning, Jr., J. Chem. Phys. 110, 7667 (1999)
     Ag, Au : Obtained from the Peterson Research Group Website (tyr0.chem.wsu.edu/~kipeters) Feb. 2017
              K. A. Peterson, C. Puzzarini, Theor. Chem. Acc. 114, 283 (2005)

----- AuxC basis set information -----
Your calculation utilizes the auxiliary basis: aug-cc-pVTZ/C 
  H-He, B-F, Al-Ar, Ga-Kr : Obtained from the EMSL Basis Set Exchange (bse.pnl.gov) Feb. 2017
                            F. Weigend, A. Kohn, C. Hattig, J. Chem. Phys. 116, 3175 (2002)
                   Be, Mg : Obtained from the TURBOMOLE 7.0 basis set library
                            C. Haettig, Phys. Chem. Chem. Phys. 7, 59 (2005)
                       Ne : Obtained from the EMSL Basis Set Exchange (bse.pnl.gov) Feb. 2017
                            C. Haettig, Phys. Chem. Chem. Phys. 7, 59 (2005)
                            F. Weigend, A. Kohn, C. Hattig, J. Chem. Phys. 116, 3175 (2002)
                    Sc-Zn : Obtained from the EMSL Basis Set Exchange (bse.pnl.gov) Feb. 2017
                            J. G. Hill, J. A. Platts, J. Chem. Phys. 128, 044104 (2008)

================================================================================
                                        WARNINGS
                       Please study these warnings very carefully!
================================================================================


WARNING: No MP2 level density has been requested!
         To caclulate MP2 level properties use
         %mp2 Density relaxed end
         or
         %mp2 Density unrelaxed end

INFO   : the flag for use of the SHARK integral package has been found!

================================================================================

----- Orbital basis set information -----
Your calculation utilizes the basis: aug-cc-pVQZ 
    H, B-Ne : Obtained from the ccRepo (grant-hill.group.shef.ac.uk/ccrepo) Feb. 2017
              R. A. Kendall, T. H. Dunning, Jr., R. J. Harrison, J. Chem. Phys. 96, 6796 (1992)
         He : Obtained from the ccRepo (grant-hill.group.shef.ac.uk/ccrepo) Feb. 2017
              D. E. Woon, T. H. Dunning, Jr., J. Chem. Phys. 100, 2975 (1994)
  Li-Be, Na : Obtained from the ccRepo (grant-hill.group.shef.ac.uk/ccrepo) Feb. 2017
              B. P. Prascher, D. E. Woon, K. A. Peterson, T. H. Dunning, Jr., A. K. Wilson, Theor. Chem. Acc. 128, 69 (2011)
         Mg : Obtained from the Peterson Research Group Website (tyr0.chem.wsu.edu/~kipeters) Feb. 2017
              B. P. Prascher, D. E. Woon, K. A. Peterson, T. H. Dunning, Jr., A. K. Wilson, Theor. Chem. Acc. 128, 69 (2011)
      Al-Ar : Obtained from the ccRepo (grant-hill.group.shef.ac.uk/ccrepo) Feb. 2017
              D. E. Woon, T. H. Dunning, Jr., J. Chem. Phys. 98, 1358 (1993)
      Sc-Zn : Obtained from the ccRepo (grant-hill.group.shef.ac.uk/ccrepo) Feb. 2017
              N. B. Balabanov, K. A. Peterson, J. Chem. Phys. 123, 064107 (2005)
              N. B. Balabanov, K. A. Peterson, J. Chem. Phys. 125, 074110 (2006)
      Ga-Kr : Obtained from the ccRepo (grant-hill.group.shef.ac.uk/ccrepo) Feb. 2017
              A. K. Wilson, D. E. Woon, K. A. Peterson, T. H. Dunning, Jr., J. Chem. Phys. 110, 7667 (1999)

----- AuxC basis set information -----
Your calculation utilizes the auxiliary basis: aug-cc-pVQZ/C 
  H-He, B-F, Al-Ar, Ga-Kr : Obtained from the EMSL Basis Set Exchange (bse.pnl.gov) Feb. 2017
                            F. Weigend, A. Kohn, C. Hattig, J. Chem. Phys. 116, 3175 (2002)
                   Be, Mg : Obtained from the TURBOMOLE 7.0 basis set library
                            C. Haettig, Phys. Chem. Chem. Phys. 7, 59 (2005)
                       Ne : Obtained from the EMSL Basis Set Exchange (bse.pnl.gov) Feb. 2017
                            C. Haettig, Phys. Chem. Chem. Phys. 7, 59 (2005)
                            F. Weigend, A. Kohn, C. Hattig, J. Chem. Phys. 116, 3175 (2002)
                    Sc-Zn : Obtained from the EMSL Basis Set Exchange (bse.pnl.gov) Feb. 2017
                            D. H. Bross, J. G. Hill, H. J. Werner, K. A. Peterson, J. Chem. Phys. 139, 094302 (2013)

================================================================================
                                        WARNINGS
                       Please study these warnings very carefully!
================================================================================


WARNING: No MP2 level density has been requested!
         To caclulate MP2 level properties use
         %mp2 Density relaxed end
         or
         %mp2 Density unrelaxed end

INFO   : the flag for use of the SHARK integral package has been found!

================================================================================
                                       INPUT FILE
================================================================================
NAME = P-S_1_A.inp
|  1> ! ri-mp2 aug-cc-pvdz aug-cc-pvdz/c tightscf
|  2> %pal nprocs 16 end
|  3> %maxcore 3800
|  4> %base "DZ_P-S_1_A"
|  5> %scf
|  6> STABPerform true 
|  7> STABRestartUHFifUnstable true
|  8> end
|  9> 
| 10> *xyz 0 2
| 11> S         1.795318   -0.074377    0.000001
| 12> O         0.288377   -0.662948   -0.000006
| 13> C        -0.847168    0.145886   -0.000001
| 14> C        -0.818797    1.464769   -0.000001
| 15> C        -2.054203   -0.723507    0.000004
| 16> H        -2.958455   -0.120119    0.000006
| 17> H        -2.056686   -1.368566    0.879598
| 18> H        -2.056691   -1.368568   -0.879589
| 19> H         0.108918    2.015537   -0.000005
| 20> H        -1.748189    2.012451    0.000002
| 21> *
| 22> 
| 23> $new_job
| 24> ! ri-mp2 aug-cc-pvtz aug-cc-pvtz/c tightscf
| 25> %pal nprocs 16 end
| 26> %maxcore 3800
| 27> %base "TZ_P-S_1_A"
| 28> 
| 29> *xyz 0 2
| 30> S         1.795318   -0.074377    0.000001
| 31> O         0.288377   -0.662948   -0.000006
| 32> C        -0.847168    0.145886   -0.000001
| 33> C        -0.818797    1.464769   -0.000001
| 34> C        -2.054203   -0.723507    0.000004
| 35> H        -2.958455   -0.120119    0.000006
| 36> H        -2.056686   -1.368566    0.879598
| 37> H        -2.056691   -1.368568   -0.879589
| 38> H         0.108918    2.015537   -0.000005
| 39> H        -1.748189    2.012451    0.000002
| 40> *
| 41> 
| 42> $new_job
| 43> ! ri-mp2 aug-cc-pvqz aug-cc-pvqz/c tightscf
| 44> %pal nprocs 16 end
| 45> %maxcore 3800
| 46> %base "QZ_P-S_1_A"
| 47> 
| 48> *xyz 0 2
| 49> S         1.795318   -0.074377    0.000001
| 50> O         0.288377   -0.662948   -0.000006
| 51> C        -0.847168    0.145886   -0.000001
| 52> C        -0.818797    1.464769   -0.000001
| 53> C        -2.054203   -0.723507    0.000004
| 54> H        -2.958455   -0.120119    0.000006
| 55> H        -2.056686   -1.368566    0.879598
| 56> H        -2.056691   -1.368568   -0.879589
| 57> H         0.108918    2.015537   -0.000005
| 58> H        -1.748189    2.012451    0.000002
| 59> *
| 60> 
| 61> 
| 62> 
| 63> 
| 64>                          ****END OF INPUT****
================================================================================


                 $$$$$$$$$$$$$$$$$$$$$$$$$$$$$$$$$$$$$$$$$$$$$$ 
                 $ THERE ARE  3 JOBS TO BE PROCESSED THIS RUN $
                 $$$$$$$$$$$$$$$$$$$$$$$$$$$$$$$$$$$$$$$$$$$$$$ 




                 $$$$$$$$$$$$$$$$  JOB NUMBER  1 $$$$$$$$$$$$$$


                       ****************************
                       * Single Point Calculation *
                       ****************************

---------------------------------
CARTESIAN COORDINATES (ANGSTROEM)
---------------------------------
  S      1.795318   -0.074377    0.000001
  O      0.288377   -0.662948   -0.000006
  C     -0.847168    0.145886   -0.000001
  C     -0.818797    1.464769   -0.000001
  C     -2.054203   -0.723507    0.000004
  H     -2.958455   -0.120119    0.000006
  H     -2.056686   -1.368566    0.879598
  H     -2.056691   -1.368568   -0.879589
  H      0.108918    2.015537   -0.000005
  H     -1.748189    2.012451    0.000002

----------------------------
CARTESIAN COORDINATES (A.U.)
----------------------------
  NO LB      ZA    FRAG     MASS         X           Y           Z
   0 S    16.0000    0    32.060    3.392659   -0.140552    0.000002
   1 O     8.0000    0    15.999    0.544954   -1.252790   -0.000011
   2 C     6.0000    0    12.011   -1.600916    0.275685   -0.000002
   3 C     6.0000    0    12.011   -1.547302    2.768012   -0.000002
   4 C     6.0000    0    12.011   -3.881881   -1.367230    0.000008
   5 H     1.0000    0     1.008   -5.590670   -0.226992    0.000011
   6 H     1.0000    0     1.008   -3.886573   -2.586215    1.662199
   7 H     1.0000    0     1.008   -3.886583   -2.586219   -1.662182
   8 H     1.0000    0     1.008    0.205825    3.808813   -0.000009
   9 H     1.0000    0     1.008   -3.303598    3.802981    0.000004

--------------------------------
INTERNAL COORDINATES (ANGSTROEM)
--------------------------------
 S      0   0   0     0.000000000000     0.00000000     0.00000000
 O      1   0   0     1.617803139931     0.00000000     0.00000000
 C      2   1   0     1.394157410986   123.20392949     0.00000000
 C      3   2   1     1.319188114459   124.22945711     0.00000000
 C      3   2   1     1.487540816146   108.77408776   180.00056433
 H      5   3   2     1.087082682252   110.52153296   180.00011110
 H      5   3   2     1.090776275689   110.33322594    59.31436154
 H      5   3   2     1.090776663444   110.33317990   300.68583475
 H      4   3   2     1.078888553589   121.92917724     0.00000000
 H      4   3   2     1.078760892319   119.27812507   179.99993414

---------------------------
INTERNAL COORDINATES (A.U.)
---------------------------
 S      0   0   0     0.000000000000     0.00000000     0.00000000
 O      1   0   0     3.057204873068     0.00000000     0.00000000
 C      2   1   0     2.634575694339   123.20392949     0.00000000
 C      3   2   1     2.492904255452   124.22945711     0.00000000
 C      3   2   1     2.811044755545   108.77408776   180.00056433
 H      5   3   2     2.054288554385   110.52153296   180.00011110
 H      5   3   2     2.061268434431   110.33322594    59.31436154
 H      5   3   2     2.061269167182   110.33317990   300.68583475
 H      4   3   2     2.038803895305   121.92917724     0.00000000
 H      4   3   2     2.038562650468   119.27812507   179.99993414

---------------------
BASIS SET INFORMATION
---------------------
There are 4 groups of distinct atoms

 Group   1 Type S   : 35s16p2d contracted to 5s4p2d pattern {11111111/7711/11}
 Group   2 Type O   : 18s5p2d contracted to 4s3p2d pattern {8811/311/11}
 Group   3 Type C   : 18s5p2d contracted to 4s3p2d pattern {8811/311/11}
 Group   4 Type H   : 5s2p contracted to 3s2p pattern {311/11}

Atom   0S    basis set group =>   1
Atom   1O    basis set group =>   2
Atom   2C    basis set group =>   3
Atom   3C    basis set group =>   3
Atom   4C    basis set group =>   3
Atom   5H    basis set group =>   4
Atom   6H    basis set group =>   4
Atom   7H    basis set group =>   4
Atom   8H    basis set group =>   4
Atom   9H    basis set group =>   4
---------------------------------
AUXILIARY/C BASIS SET INFORMATION
---------------------------------
There are 4 groups of distinct atoms

 Group   1 Type S   : 10s8p6d4f contracted to 10s8p6d4f pattern {1111111111/11111111/111111/1111}
 Group   2 Type O   : 8s6p5d3f contracted to 8s6p5d3f pattern {11111111/111111/11111/111}
 Group   3 Type C   : 8s6p5d3f contracted to 8s6p5d3f pattern {11111111/111111/11111/111}
 Group   4 Type H   : 4s3p2d contracted to 4s3p2d pattern {1111/111/11}

Atom   0S    basis set group =>   1
Atom   1O    basis set group =>   2
Atom   2C    basis set group =>   3
Atom   3C    basis set group =>   3
Atom   4C    basis set group =>   3
Atom   5H    basis set group =>   4
Atom   6H    basis set group =>   4
Atom   7H    basis set group =>   4
Atom   8H    basis set group =>   4
Atom   9H    basis set group =>   4


           ************************************************************
           *        Program running with 16 parallel MPI-processes    *
           *              working on a common directory               *
           ************************************************************
------------------------------------------------------------------------------
                           ORCA GTO INTEGRAL CALCULATION
------------------------------------------------------------------------------
------------------------------------------------------------------------------
                   ___                                                        
                  /   \      - P O W E R E D   B Y -                         
                 /     \                                                     
                 |  |  |   _    _      __       _____    __    __             
                 |  |  |  | |  | |    /  \     |  _  \  |  |  /  |          
                  \  \/   | |  | |   /    \    | | | |  |  | /  /          
                 / \  \   | |__| |  /  /\  \   | |_| |  |  |/  /          
                |  |  |   |  __  | /  /__\  \  |    /   |      \           
                |  |  |   | |  | | |   __   |  |    \   |  |\   \          
                \     /   | |  | | |  |  |  |  | |\  \  |  | \   \       
                 \___/    |_|  |_| |__|  |__|  |_| \__\ |__|  \__/        
                                                                              
                      - O R C A' S   B I G   F R I E N D -                    
                                      &                                       
                       - I N T E G R A L  F E E D E R -                       
                                                                              
 v1 FN, 2020, v2 2021                                                         
------------------------------------------------------------------------------


Reading SHARK input file DZ_P-S_1_A.SHARKINP.tmp ... ok
----------------------
SHARK INTEGRAL PACKAGE
----------------------

Number of atoms                             ...     10
Number of basis functions                   ...    211
Number of shells                            ...    109
Maximum angular momentum                    ...      2
Integral batch strategy                     ... SHARK/LIBINT Hybrid
RI-J (if used) integral strategy            ... SPLIT-RIJ (Revised 2003 algorithm where possible)
Printlevel                                  ...      1
Contraction scheme used                     ... PARTIAL GENERAL contraction
Coulomb Range Separation                    ... NOT USED
Exchange Range Separation                   ... NOT USED
Finite Nucleus Model                        ... NOT USED
Auxiliary Coulomb fitting basis             ... NOT available
Auxiliary J/K fitting basis                 ... NOT available
Auxiliary Correlation fitting basis         ... AVAILABLE
   # of basis functions in Aux-C            ...    495
   # of shells in Aux-C                     ...    161
   Maximum angular momentum in Aux-C        ...      3
Auxiliary 'external' fitting basis          ... NOT available
Integral threshold                          ...     2.500000e-11
Primitive cut-off                           ...     2.500000e-12
Primitive pair pre-selection threshold      ...     2.500000e-12

Calculating pre-screening integrals         ... done (  0.0 sec) Dimension = 109
Calculating pre-screening integrals (ORCA)  ... done (  1.6 sec) Dimension = 72
Organizing shell pair data                  ... done (  0.0 sec)
Shell pair information
Total number of shell pairs                 ...      5995
Shell pairs after pre-screening             ...      5138
Total number of primitive shell pairs       ...      8155
Primitive shell pairs kept                  ...      6594
          la=0 lb=0:   1772 shell pairs
          la=1 lb=0:   1860 shell pairs
          la=1 lb=1:    470 shell pairs
          la=2 lb=0:    673 shell pairs
          la=2 lb=1:    308 shell pairs
          la=2 lb=2:     55 shell pairs

Calculating one electron integrals          ... done (  0.0 sec)
Calculating RI/C V-Matrix + Cholesky decomp.... done (  0.3 sec)
Calculating Nuclear repulsion               ... done (  0.0 sec) ENN=    213.182192581843 Eh

SHARK setup successfully completed in   4.7 seconds

Maximum memory used throughout the entire GTOINT-calculation: 28.8 MB


           ************************************************************
           *        Program running with 16 parallel MPI-processes    *
           *              working on a common directory               *
           ************************************************************
-------------------------------------------------------------------------------
                                 ORCA SCF
-------------------------------------------------------------------------------

------------
SCF SETTINGS
------------
Hamiltonian:
 Ab initio Hamiltonian  Method          .... Hartree-Fock(GTOs)


General Settings:
 Integral files         IntName         .... DZ_P-S_1_A
 Hartree-Fock type      HFTyp           .... UHF
 Total Charge           Charge          ....    0
 Multiplicity           Mult            ....    2
 Number of Electrons    NEL             ....   47
 Basis Dimension        Dim             ....  164
 Nuclear Repulsion      ENuc            ....    213.1821925818 Eh

Convergence Acceleration:
 DIIS                   CNVDIIS         .... on
   Start iteration      DIISMaxIt       ....    12
   Startup error        DIISStart       ....  0.200000
   # of expansion vecs  DIISMaxEq       ....     5
   Bias factor          DIISBfac        ....   1.050
   Max. coefficient     DIISMaxC        ....  10.000
 Trust-Rad. Augm. Hess. CNVTRAH         .... auto
   Auto Start mean grad. ratio tolernc. ....  1.125000
   Auto Start start iteration           ....    20
   Auto Start num. interpolation iter.  ....    10
   Max. Number of Micro iterations      ....    16
   Max. Number of Macro iterations      .... Maxiter - #DIIS iter
   Number of Davidson start vectors     ....     2
   Converg. threshold I  (grad. norm)   ....   1.000e-05
   Converg. threshold II (energy diff.) ....   1.000e-08
   Grad. Scal. Fac. for Micro threshold ....   0.100
   Minimum threshold for Micro iter.    ....   0.010
   NR start threshold (gradient norm)   ....   0.001
   Initial trust radius                 ....   0.400
   Minimum AH scaling param. (alpha)    ....   1.000
   Maximum AH scaling param. (alpha)    .... 1000.000
   Orbital update algorithm             .... Taylor
   White noise on init. David. guess    .... on
   Maximum white noise                  ....   0.010
   Quad. conv. algorithm                .... NR
 SOSCF                  CNVSOSCF        .... off
 Level Shifting         CNVShift        .... on
   Level shift para.    LevelShift      ....    0.2500
   Turn off err/grad.   ShiftErr        ....    0.0010
 Zerner damping         CNVZerner       .... off
 Static damping         CNVDamp         .... on
   Fraction old density DampFac         ....    0.7000
   Max. Damping (<1)    DampMax         ....    0.9800
   Min. Damping (>=0)   DampMin         ....    0.0000
   Turn off err/grad.   DampErr         ....    0.1000
 Fernandez-Rico         CNVRico         .... off

SCF Procedure:
 Maximum # iterations   MaxIter         ....   125
 SCF integral mode      SCFMode         .... Direct
   Integral package                     .... SHARK and LIBINT hybrid scheme
 Reset frequency        DirectResetFreq ....    20
 Integral Threshold     Thresh          ....  2.500e-11 Eh
 Primitive CutOff       TCut            ....  2.500e-12 Eh

Convergence Tolerance:
 Convergence Check Mode ConvCheckMode   .... Total+1el-Energy
 Convergence forced     ConvForced      .... 1
 Energy Change          TolE            ....  1.000e-08 Eh
 1-El. energy change                    ....  1.000e-05 Eh
 DIIS Error             TolErr          ....  5.000e-07


Diagonalization of the overlap matrix:
Smallest eigenvalue                        ... 2.940e-05
Time for diagonalization                   ...    0.003 sec
Threshold for overlap eigenvalues          ... 1.000e-08
Number of eigenvalues below threshold      ... 0
Time for construction of square roots      ...    0.081 sec
Total time needed                          ...    0.085 sec

Time for model grid setup =    1.695 sec

------------------------------
INITIAL GUESS: MODEL POTENTIAL
------------------------------
Loading Hartree-Fock densities                     ... done
Calculating cut-offs                               ... done
Initializing the effective Hamiltonian             ... done
Setting up the integral package (SHARK)            ... done
Starting the Coulomb interaction                   ... done (   0.1 sec)
Reading the grid                                   ... done
Mapping shells                                     ... done
Starting the XC term evaluation                    ... done (   0.0 sec)
Transforming the Hamiltonian                       ... done (   0.0 sec)
Diagonalizing the Hamiltonian                      ... done (   0.0 sec)
Back transforming the eigenvectors                 ... done (   0.0 sec)
Now organizing SCF variables                       ... done
                      ------------------
                      INITIAL GUESS DONE (   1.8 sec)
                      ------------------
--------------
SCF ITERATIONS
--------------
ITER       Energy         Delta-E        Max-DP      RMS-DP      [F,P]     Damp
               ***  Starting incremental Fock matrix formation  ***
  0   -588.6531609945   0.000000000000 0.12608047  0.00295960  0.1003243 0.7000
  1   -588.7229921222  -0.069831127713 0.10458671  0.00231497  0.0656631 0.7000
                               ***Turning on DIIS***
  2   -588.7670323954  -0.044040273243 0.24849443  0.00546339  0.0403276 0.0000
  3   -588.5893175480   0.177714847371 0.01875366  0.00046501  0.0184502 0.0000
  4   -588.8373034374  -0.247985889367 0.01569961  0.00032537  0.0074153 0.0000
  5   -588.8586756400  -0.021372202542 0.00460822  0.00013318  0.0063746 0.0000
  6   -588.8609496843  -0.002274044306 0.00210618  0.00007040  0.0033011 0.0000
  7   -588.8627071634  -0.001757479111 0.00312115  0.00005332  0.0030044 0.0000
  8   -588.8619208632   0.000786300213 0.00274962  0.00004201  0.0018924 0.0000
  9   -588.8625129666  -0.000592103457 0.00197776  0.00002764  0.0011772 0.0000
 10   -588.8639619685  -0.001449001902 0.00154156  0.00002508  0.0005839 0.0000
 11   -588.8644105489  -0.000448580395 0.00055286  0.00001105  0.0004003 0.0000
 12   -588.8645342723  -0.000123723406 0.00043969  0.00000863  0.0003269 0.0000
 13   -588.8644459703   0.000088301975 0.00054766  0.00001064  0.0003188 0.0000
 14   -588.8645197807  -0.000073810345 0.00095025  0.00001723  0.0003027 0.0000
 15   -588.8643053016   0.000214479089 0.00144386  0.00002570  0.0002499 0.0000
 16   -588.8643626945  -0.000057392875 0.00184699  0.00003224  0.0002067 0.0000
 17   -588.8644054989  -0.000042804431 0.00132853  0.00002319  0.0001036 0.0000
 18   -588.8643313104   0.000074188487 0.00082599  0.00001436  0.0000709 0.0000
 19   -588.8644896468  -0.000158336415 0.00025255  0.00000478  0.0000477 0.0000
               *** Restarting incremental Fock matrix formation ***
                                   *** Resetting DIIS ***
 20   -588.8644979235  -0.000008276663 0.00001303  0.00000030  0.0000210 0.0000
 21   -588.8644928843   0.000005039144 0.00001004  0.00000023  0.0000138 0.0000
 22   -588.8644796038   0.000013280566 0.00001774  0.00000044  0.0000119 0.0000
 23   -588.8645037509  -0.000024147074 0.00000449  0.00000013  0.0000029 0.0000
 24   -588.8644965566   0.000007194307 0.00000405  0.00000008  0.0000031 0.0000
 25   -588.8644973278  -0.000000771220 0.00000608  0.00000012  0.0000023 0.0000
 26   -588.8644972183   0.000000109422 0.00000516  0.00000009  0.0000021 0.0000
 27   -588.8644968488   0.000000369597 0.00000606  0.00000011  0.0000019 0.0000
 28   -588.8644971521  -0.000000303351 0.00000970  0.00000017  0.0000016 0.0000
 29   -588.8644970672   0.000000084944 0.00000837  0.00000015  0.0000013 0.0000
                            ***DIIS convergence achieved***

               *****************************************************
               *                     SUCCESS                       *
               *           SCF CONVERGED AFTER  30 CYCLES          *
               *****************************************************


------------------------------------------------------------------------------
                          SCF STABILITY ANALYSIS                              
------------------------------------------------------------------------------


                       ****Iteration    0****

   Memory handling for direct AO based CIS:
   Memory per vector needed      ...     1 MB
   Memory needed                 ...     7 MB
   Memory available              ...  3800 MB
   Number of vectors per batch   ...  3083
   Number of batches             ...     1
   Time for densities:     0.002
   Using LibInt in JK Direct
   Time for J+K (Direct):     2.345
   Time for Sigma-Completion:     0.024
   Lowest Energy          :     0.070371309122
   Maximum Energy change  :     0.270673042457 (vector 2)
   Maximum residual norm  :     0.021139143749

                       ****Iteration    1****
   Time for densities:     0.001
   Using LibInt in JK Direct
   Time for J+K (Direct):     1.317
   Time for Sigma-Completion:     0.023
   Lowest Energy          :     0.013981762905
   Maximum Energy change  :     0.056389546218 (vector 0)
   Maximum residual norm  :     0.027156358789

                       ****Iteration    2****
   Time for densities:     0.001
   Using LibInt in JK Direct
   Time for J+K (Direct):     1.316
   Time for Sigma-Completion:     0.022
   Lowest Energy          :     0.012638532566
   Maximum Energy change  :     0.050136548107 (vector 1)
   Maximum residual norm  :     0.016595721787

                       ****Iteration    3****
   Time for densities:     0.001
   Using LibInt in JK Direct
   Time for J+K (Direct):     1.318
   Time for Sigma-Completion:     0.013
   Lowest Energy          :     0.012580488817
   Maximum Energy change  :     0.040009236871 (vector 1)
   Maximum residual norm  :     0.029207792214

                       ****Iteration    4****
   Time for densities:     0.001
   Using LibInt in JK Direct
   Time for J+K (Direct):     1.315
   Time for Sigma-Completion:     0.015
   Lowest Energy          :     0.012575346760
   Maximum Energy change  :     0.042172981188 (vector 2)
   Maximum residual norm  :     0.009384413686

                       ****Iteration    5****
   Time for densities:     0.001
   Using LibInt in JK Direct
   Time for J+K (Direct):     1.317
   Time for Sigma-Completion:     0.017
   Lowest Energy          :     0.012575009234
   Maximum Energy change  :     0.015630548406 (vector 2)
   Maximum residual norm  :     0.004059660730

                       ****Iteration    6****
   Time for densities:     0.001
   Using LibInt in JK Direct
   Time for J+K (Direct):     1.336
   Time for Sigma-Completion:     0.025
   Lowest Energy          :     0.012574974802
   Maximum Energy change  :     0.003569961076 (vector 2)
   Maximum residual norm  :     0.000605078619

                       ****Iteration    7****
   Time for densities:     0.001
   Using LibInt in JK Direct
   Time for J+K (Direct):     0.996
   Time for Sigma-Completion:     0.025
   Lowest Energy          :     0.012574974802
   Maximum Energy change  :     0.000759340409 (vector 2)
   Maximum residual norm  :     0.000216479349

                       ****Iteration    8****
   Time for densities:     0.001
   Using LibInt in JK Direct
   Time for J+K (Direct):     0.997
   Time for Sigma-Completion:     0.018
   Lowest Energy          :     0.012574974802
   Maximum Energy change  :     0.000348257298 (vector 2)
   Maximum residual norm  :     0.000110856414

                       ****Iteration    9****
   Time for densities:     0.001
   Using LibInt in JK Direct
   Time for J+K (Direct):     1.005
   Time for Sigma-Completion:     0.011
   Lowest Energy          :     0.012574974802
   Maximum Energy change  :     0.000222281658 (vector 2)
   Maximum residual norm  :     0.000067118545

      *** CONVERGENCE OF RESIDUAL NORM REACHED ***

----------------------------- 
SCF STABILITY ANALYSIS RESULT 
----------------------------- 

UHF/UKS->UHF/UKS - singlet - internal

   Root    Eigenvalue (au) 
     0       0.012575 
     1       0.024008 
     2       0.149088 

Stability Analysis indicates a stable HF/KS wave function.


Total time for performing the stability analysis:    13.716sec


----------------
TOTAL SCF ENERGY
----------------

Total Energy       :         -588.86449703 Eh          -16023.81760 eV

Components:
Nuclear Repulsion  :          213.18219258 Eh            5800.98238 eV
Electronic Energy  :         -802.04668961 Eh          -21824.79998 eV
One Electron Energy:        -1232.48173130 Eh          -33537.53292 eV
Two Electron Energy:          430.43504170 Eh           11712.73295 eV

Virial components:
Potential Energy   :        -1177.54498850 Eh          -32042.62815 eV
Kinetic Energy     :          588.68049148 Eh           16018.81055 eV
Virial Ratio       :            2.00031257


---------------
SCF CONVERGENCE
---------------

  Last Energy change         ...    4.1723e-08  Tolerance :   1.0000e-08
  Last MAX-Density change    ...    8.9959e-06  Tolerance :   1.0000e-07
  Last RMS-Density change    ...    1.5973e-07  Tolerance :   5.0000e-09
  Last DIIS Error            ...    8.0033e-07  Tolerance :   5.0000e-07

             **** THE GBW FILE WAS UPDATED (DZ_P-S_1_A.gbw) ****
             **** DENSITY DZ_P-S_1_A.scfp WAS UPDATED ****
             **** ENERGY FILE WAS UPDATED (DZ_P-S_1_A.en.tmp) ****
----------------------
UHF SPIN CONTAMINATION
----------------------

Expectation value of <S**2>     :     0.773188
Ideal value S*(S+1) for S=0.5   :     0.750000
Deviation                       :     0.023188

             **** THE GBW FILE WAS UPDATED (DZ_P-S_1_A.gbw) ****
             **** DENSITY DZ_P-S_1_A.scfp WAS UPDATED ****
----------------
ORBITAL ENERGIES
----------------
                 SPIN UP ORBITALS
  NO   OCC          E(Eh)            E(eV) 
   0   1.0000     -92.025426     -2504.1392 
   1   1.0000     -20.639717      -561.6353 
   2   1.0000     -11.314035      -307.8705 
   3   1.0000     -11.242013      -305.9107 
   4   1.0000     -11.227165      -305.5067 
   5   1.0000      -9.021048      -245.4752 
   6   1.0000      -6.715071      -182.7264 
   7   1.0000      -6.699550      -182.3040 
   8   1.0000      -6.695265      -182.1874 
   9   1.0000      -1.445398       -39.3313 
  10   1.0000      -1.087318       -29.5874 
  11   1.0000      -0.974431       -26.5156 
  12   1.0000      -0.946222       -25.7480 
  13   1.0000      -0.752950       -20.4888 
  14   1.0000      -0.673834       -18.3359 
  15   1.0000      -0.661792       -18.0083 
  16   1.0000      -0.656256       -17.8576 
  17   1.0000      -0.572099       -15.5676 
  18   1.0000      -0.571001       -15.5377 
  19   1.0000      -0.547768       -14.9055 
  20   1.0000      -0.526768       -14.3341 
  21   1.0000      -0.430312       -11.7094 
  22   1.0000      -0.380065       -10.3421 
  23   1.0000      -0.361128        -9.8268 
  24   0.0000       0.036161         0.9840 
  25   0.0000       0.046484         1.2649 
  26   0.0000       0.052930         1.4403 
  27   0.0000       0.059740         1.6256 
  28   0.0000       0.069961         1.9037 
  29   0.0000       0.085062         2.3147 
  30   0.0000       0.097186         2.6446 
  31   0.0000       0.113944         3.1006 
  32   0.0000       0.119813         3.2603 
  33   0.0000       0.129025         3.5109 
  34   0.0000       0.144704         3.9376 
  35   0.0000       0.155993         4.2448 
  36   0.0000       0.165120         4.4931 
  37   0.0000       0.167726         4.5641 
  38   0.0000       0.168685         4.5902 
  39   0.0000       0.175632         4.7792 
  40   0.0000       0.183683         4.9983 
  41   0.0000       0.188251         5.1226 
  42   0.0000       0.196307         5.3418 
  43   0.0000       0.199840         5.4379 
  44   0.0000       0.220388         5.9971 
  45   0.0000       0.249282         6.7833 
  46   0.0000       0.265437         7.2229 
  47   0.0000       0.280426         7.6308 
  48   0.0000       0.299364         8.1461 
  49   0.0000       0.301005         8.1908 
  50   0.0000       0.318187         8.6583 
  51   0.0000       0.333076         9.0635 
  52   0.0000       0.346486         9.4284 
  53   0.0000       0.350446         9.5361 
  54   0.0000       0.384187        10.4543 
  55   0.0000       0.410288        11.1645 
  56   0.0000       0.414913        11.2904 
  57   0.0000       0.420923        11.4539 
  58   0.0000       0.428441        11.6585 
  59   0.0000       0.428644        11.6640 
  60   0.0000       0.450235        12.2515 
  61   0.0000       0.456677        12.4268 
  62   0.0000       0.458732        12.4827 
  63   0.0000       0.472973        12.8703 
  64   0.0000       0.491682        13.3793 
  65   0.0000       0.506845        13.7920 
  66   0.0000       0.520344        14.1593 
  67   0.0000       0.530154        14.4262 
  68   0.0000       0.533511        14.5176 
  69   0.0000       0.546696        14.8764 
  70   0.0000       0.566811        15.4237 
  71   0.0000       0.585807        15.9406 
  72   0.0000       0.593333        16.1454 
  73   0.0000       0.602129        16.3848 
  74   0.0000       0.622434        16.9373 
  75   0.0000       0.632623        17.2146 
  76   0.0000       0.649924        17.6853 
  77   0.0000       0.650416        17.6987 
  78   0.0000       0.658455        17.9175 
  79   0.0000       0.671879        18.2827 
  80   0.0000       0.694656        18.9026 
  81   0.0000       0.699788        19.0422 
  82   0.0000       0.710280        19.3277 
  83   0.0000       0.739954        20.1352 
  84   0.0000       0.765918        20.8417 
  85   0.0000       0.792417        21.5628 
  86   0.0000       0.794332        21.6149 
  87   0.0000       0.816937        22.2300 
  88   0.0000       0.820072        22.3153 
  89   0.0000       0.848056        23.0768 
  90   0.0000       0.863265        23.4906 
  91   0.0000       0.872489        23.7416 
  92   0.0000       0.887308        24.1449 
  93   0.0000       0.943329        25.6693 
  94   0.0000       0.947635        25.7865 
  95   0.0000       1.003380        27.3034 
  96   0.0000       1.007711        27.4212 
  97   0.0000       1.037996        28.2453 
  98   0.0000       1.052619        28.6432 
  99   0.0000       1.075873        29.2760 
 100   0.0000       1.106109        30.0988 
 101   0.0000       1.125648        30.6304 
 102   0.0000       1.128210        30.7001 
 103   0.0000       1.136710        30.9315 
 104   0.0000       1.146018        31.1847 
 105   0.0000       1.167791        31.7772 
 106   0.0000       1.192484        32.4491 
 107   0.0000       1.227299        33.3965 
 108   0.0000       1.247048        33.9339 
 109   0.0000       1.247827        33.9551 
 110   0.0000       1.298874        35.3442 
 111   0.0000       1.347118        36.6569 
 112   0.0000       1.410816        38.3903 
 113   0.0000       1.433268        39.0012 
 114   0.0000       1.458658        39.6921 
 115   0.0000       1.502897        40.8959 
 116   0.0000       1.527588        41.5678 
 117   0.0000       1.557278        42.3757 
 118   0.0000       1.588751        43.2321 
 119   0.0000       1.626615        44.2624 
 120   0.0000       1.628546        44.3150 
 121   0.0000       1.685631        45.8684 
 122   0.0000       1.701129        46.2901 
 123   0.0000       1.720278        46.8111 
 124   0.0000       1.785565        48.5877 
 125   0.0000       1.806302        49.1520 
 126   0.0000       1.823750        49.6268 
 127   0.0000       1.882532        51.2263 
 128   0.0000       1.893758        51.5318 
 129   0.0000       1.907799        51.9139 
 130   0.0000       1.994949        54.2853 
 131   0.0000       2.020141        54.9708 
 132   0.0000       2.027535        55.1720 
 133   0.0000       2.075924        56.4888 
 134   0.0000       2.157788        58.7164 
 135   0.0000       2.163785        58.8796 
 136   0.0000       2.184938        59.4552 
 137   0.0000       2.230202        60.6869 
 138   0.0000       2.271326        61.8059 
 139   0.0000       2.312147        62.9167 
 140   0.0000       2.312724        62.9324 
 141   0.0000       2.344794        63.8051 
 142   0.0000       2.418525        65.8114 
 143   0.0000       2.457391        66.8690 
 144   0.0000       2.465547        67.0910 
 145   0.0000       2.503264        68.1173 
 146   0.0000       2.572991        70.0147 
 147   0.0000       2.674031        72.7641 
 148   0.0000       2.689347        73.1809 
 149   0.0000       2.726648        74.1959 
 150   0.0000       2.774126        75.4878 
 151   0.0000       2.833610        77.1064 
 152   0.0000       2.878694        78.3332 
 153   0.0000       2.881580        78.4118 
 154   0.0000       2.972397        80.8830 
 155   0.0000       3.100352        84.3649 
 156   0.0000       3.190006        86.8045 
 157   0.0000       3.311315        90.1055 
 158   0.0000       3.521196        95.8166 
 159   0.0000       3.711962       101.0076 
 160   0.0000       3.776151       102.7543 
 161   0.0000       3.792381       103.1959 
 162   0.0000       3.962971       107.8379 
 163   0.0000       4.102070       111.6230 

                 SPIN DOWN ORBITALS
  NO   OCC          E(Eh)            E(eV) 
   0   1.0000     -92.016960     -2503.9088 
   1   1.0000     -20.632466      -561.4380 
   2   1.0000     -11.317195      -307.9565 
   3   1.0000     -11.241675      -305.9015 
   4   1.0000     -11.224412      -305.4318 
   5   1.0000      -9.011756      -245.2223 
   6   1.0000      -6.696013      -182.2078 
   7   1.0000      -6.690353      -182.0538 
   8   1.0000      -6.676700      -181.6822 
   9   1.0000      -1.426775       -38.8245 
  10   1.0000      -1.083353       -29.4795 
  11   1.0000      -0.962774       -26.1984 
  12   1.0000      -0.900030       -24.4911 
  13   1.0000      -0.730794       -19.8859 
  14   1.0000      -0.671186       -18.2639 
  15   1.0000      -0.639804       -17.4099 
  16   1.0000      -0.620640       -16.8885 
  17   1.0000      -0.568472       -15.4689 
  18   1.0000      -0.550133       -14.9699 
  19   1.0000      -0.544386       -14.8135 
  20   1.0000      -0.521238       -14.1836 
  21   1.0000      -0.360040        -9.7972 
  22   1.0000      -0.357861        -9.7379 
  23   0.0000       0.014204         0.3865 
  24   0.0000       0.036304         0.9879 
  25   0.0000       0.046829         1.2743 
  26   0.0000       0.053660         1.4602 
  27   0.0000       0.061736         1.6799 
  28   0.0000       0.071046         1.9333 
  29   0.0000       0.085845         2.3360 
  30   0.0000       0.100630         2.7383 
  31   0.0000       0.113552         3.0899 
  32   0.0000       0.129984         3.5371 
  33   0.0000       0.141627         3.8539 
  34   0.0000       0.145011         3.9459 
  35   0.0000       0.159338         4.3358 
  36   0.0000       0.166295         4.5251 
  37   0.0000       0.167883         4.5683 
  38   0.0000       0.169600         4.6151 
  39   0.0000       0.180082         4.9003 
  40   0.0000       0.184973         5.0334 
  41   0.0000       0.189416         5.1543 
  42   0.0000       0.204986         5.5779 
  43   0.0000       0.205985         5.6051 
  44   0.0000       0.222014         6.0413 
  45   0.0000       0.250193         6.8081 
  46   0.0000       0.268795         7.3143 
  47   0.0000       0.282571         7.6891 
  48   0.0000       0.301427         8.2022 
  49   0.0000       0.308049         8.3824 
  50   0.0000       0.319572         8.6960 
  51   0.0000       0.342064         9.3080 
  52   0.0000       0.348273         9.4770 
  53   0.0000       0.363094         9.8803 
  54   0.0000       0.387101        10.5336 
  55   0.0000       0.418135        11.3780 
  56   0.0000       0.419828        11.4241 
  57   0.0000       0.423865        11.5339 
  58   0.0000       0.433451        11.7948 
  59   0.0000       0.438855        11.9418 
  60   0.0000       0.451553        12.2874 
  61   0.0000       0.460228        12.5234 
  62   0.0000       0.467400        12.7186 
  63   0.0000       0.481176        13.0935 
  64   0.0000       0.493030        13.4160 
  65   0.0000       0.526033        14.3141 
  66   0.0000       0.530803        14.4439 
  67   0.0000       0.532365        14.4864 
  68   0.0000       0.540887        14.7183 
  69   0.0000       0.552789        15.0422 
  70   0.0000       0.569063        15.4850 
  71   0.0000       0.587107        15.9760 
  72   0.0000       0.600303        16.3351 
  73   0.0000       0.605767        16.4838 
  74   0.0000       0.624002        16.9800 
  75   0.0000       0.634010        17.2523 
  76   0.0000       0.651623        17.7316 
  77   0.0000       0.659422        17.9438 
  78   0.0000       0.659455        17.9447 
  79   0.0000       0.676704        18.4141 
  80   0.0000       0.698984        19.0203 
  81   0.0000       0.700569        19.0634 
  82   0.0000       0.711760        19.3680 
  83   0.0000       0.740810        20.1585 
  84   0.0000       0.766333        20.8530 
  85   0.0000       0.793836        21.6014 
  86   0.0000       0.795809        21.6551 
  87   0.0000       0.821059        22.3422 
  88   0.0000       0.832167        22.6444 
  89   0.0000       0.848621        23.0922 
  90   0.0000       0.866434        23.5769 
  91   0.0000       0.874027        23.7835 
  92   0.0000       0.927243        25.2316 
  93   0.0000       0.944607        25.7041 
  94   0.0000       0.953094        25.9350 
  95   0.0000       1.009323        27.4651 
  96   0.0000       1.011068        27.5126 
  97   0.0000       1.041289        28.3349 
  98   0.0000       1.078484        29.3470 
  99   0.0000       1.083412        29.4811 
 100   0.0000       1.107266        30.1302 
 101   0.0000       1.128533        30.7089 
 102   0.0000       1.130375        30.7591 
 103   0.0000       1.148067        31.2405 
 104   0.0000       1.164048        31.6754 
 105   0.0000       1.184948        32.2441 
 106   0.0000       1.223030        33.2803 
 107   0.0000       1.247696        33.9515 
 108   0.0000       1.253065        34.0976 
 109   0.0000       1.261648        34.3312 
 110   0.0000       1.300357        35.3845 
 111   0.0000       1.347531        36.6682 
 112   0.0000       1.412220        38.4285 
 113   0.0000       1.440349        39.1939 
 114   0.0000       1.460403        39.7396 
 115   0.0000       1.522790        41.4372 
 116   0.0000       1.531955        41.6866 
 117   0.0000       1.561120        42.4802 
 118   0.0000       1.591010        43.2936 
 119   0.0000       1.627715        44.2924 
 120   0.0000       1.629804        44.3492 
 121   0.0000       1.690829        46.0098 
 122   0.0000       1.702164        46.3182 
 123   0.0000       1.720769        46.8245 
 124   0.0000       1.786603        48.6159 
 125   0.0000       1.819859        49.5209 
 126   0.0000       1.825041        49.6619 
 127   0.0000       1.884010        51.2665 
 128   0.0000       1.893556        51.5263 
 129   0.0000       1.905933        51.8631 
 130   0.0000       1.995229        54.2929 
 131   0.0000       2.020928        54.9923 
 132   0.0000       2.028033        55.1856 
 133   0.0000       2.076807        56.5128 
 134   0.0000       2.158606        58.7386 
 135   0.0000       2.164232        58.8918 
 136   0.0000       2.185526        59.4712 
 137   0.0000       2.232480        60.7489 
 138   0.0000       2.271155        61.8013 
 139   0.0000       2.311910        62.9103 
 140   0.0000       2.313268        62.9472 
 141   0.0000       2.345775        63.8318 
 142   0.0000       2.418304        65.8054 
 143   0.0000       2.458624        66.9026 
 144   0.0000       2.467957        67.1565 
 145   0.0000       2.503333        68.1192 
 146   0.0000       2.573599        70.0312 
 147   0.0000       2.677399        72.8557 
 148   0.0000       2.688984        73.1710 
 149   0.0000       2.727497        74.2190 
 150   0.0000       2.774551        75.4994 
 151   0.0000       2.833594        77.1060 
 152   0.0000       2.878766        78.3352 
 153   0.0000       2.881829        78.4186 
 154   0.0000       2.972267        80.8795 
 155   0.0000       3.101380        84.3928 
 156   0.0000       3.193125        86.8893 
 157   0.0000       3.312269        90.1314 
 158   0.0000       3.521846        95.8343 
 159   0.0000       3.725625       101.3794 
 160   0.0000       3.789548       103.1188 
 161   0.0000       3.802430       103.4694 
 162   0.0000       3.965863       107.9166 
 163   0.0000       4.109802       111.8334 

                    ********************************
                    * MULLIKEN POPULATION ANALYSIS *
                    ********************************

--------------------------------------------
MULLIKEN ATOMIC CHARGES AND SPIN POPULATIONS
--------------------------------------------
   0 S :    0.409253    0.943015
   1 O :   -1.092660    0.047219
   2 C :    0.352666   -0.159532
   3 C :    0.840220    0.181027
   4 C :    0.208752    0.036933
   5 H :   -0.097473   -0.001246
   6 H :    0.029770   -0.002871
   7 H :    0.029771   -0.002871
   8 H :   -0.368954   -0.031514
   9 H :   -0.311345   -0.010161
Sum of atomic charges         :    0.0000000
Sum of atomic spin populations:    1.0000000

-----------------------------------------------------
MULLIKEN REDUCED ORBITAL CHARGES AND SPIN POPULATIONS
-----------------------------------------------------
CHARGE
  0 S s       :     5.847088  s :     5.847088
      pz      :     3.087639  p :     9.660920
      px      :     2.735797
      py      :     3.837484
      dz2     :     0.015330  d :     0.082739
      dxz     :     0.020770
      dyz     :     0.004252
      dx2y2   :     0.029383
      dxy     :     0.013004
  1 O s       :     4.112090  s :     4.112090
      pz      :     1.842164  p :     4.912454
      px      :     1.346726
      py      :     1.723564
      dz2     :     0.004300  d :     0.068116
      dxz     :     0.013084
      dyz     :     0.008100
      dx2y2   :     0.017448
      dxy     :     0.025183
  2 C s       :     3.006558  s :     3.006558
      pz      :     0.935967  p :     2.494325
      px      :     0.752009
      py      :     0.806349
      dz2     :     0.024082  d :     0.146451
      dxz     :    -0.010355
      dyz     :     0.101465
      dx2y2   :    -0.077567
      dxy     :     0.108827
  3 C s       :     2.776068  s :     2.776068
      pz      :     1.010084  p :     2.406083
      px      :     0.648399
      py      :     0.747600
      dz2     :     0.000745  d :    -0.022371
      dxz     :     0.003637
      dyz     :     0.017170
      dx2y2   :    -0.009809
      dxy     :    -0.034114
  4 C s       :     2.945930  s :     2.945930
      pz      :     0.943776  p :     2.835777
      px      :     0.888090
      py      :     1.003911
      dz2     :     0.002975  d :     0.009541
      dxz     :     0.013461
      dyz     :    -0.007178
      dx2y2   :    -0.001837
      dxy     :     0.002120
  5 H s       :     1.095659  s :     1.095659
      pz      :    -0.013768  p :     0.001814
      px      :     0.004983
      py      :     0.010598
  6 H s       :     0.971286  s :     0.971286
      pz      :     0.010213  p :    -0.001057
      px      :    -0.002736
      py      :    -0.008534
  7 H s       :     0.971285  s :     0.971285
      pz      :     0.010213  p :    -0.001056
      px      :    -0.002736
      py      :    -0.008534
  8 H s       :     1.392766  s :     1.392766
      pz      :     0.008352  p :    -0.023812
      px      :    -0.009484
      py      :    -0.022680
  9 H s       :     1.299666  s :     1.299666
      pz      :     0.018565  p :     0.011679
      px      :    -0.000931
      py      :    -0.005954

SPIN
  0 S s       :    -0.020596  s :    -0.020596
      pz      :     0.932869  p :     0.957775
      px      :     0.008960
      py      :     0.015946
      dz2     :     0.006698  d :     0.005835
      dxz     :    -0.001277
      dyz     :     0.000727
      dx2y2   :     0.001221
      dxy     :    -0.001533
  1 O s       :    -0.002727  s :    -0.002727
      pz      :     0.054085  p :     0.055273
      px      :    -0.002263
      py      :     0.003451
      dz2     :     0.000833  d :    -0.005326
      dxz     :    -0.002007
      dyz     :    -0.001172
      dx2y2   :    -0.001083
      dxy     :    -0.001897
  2 C s       :    -0.024081  s :    -0.024081
      pz      :    -0.097561  p :    -0.112664
      px      :     0.003826
      py      :    -0.018929
      dz2     :    -0.000198  d :    -0.022787
      dxz     :    -0.004895
      dyz     :    -0.002982
      dx2y2   :    -0.009768
      dxy     :    -0.004944
  3 C s       :     0.024017  s :     0.024017
      pz      :     0.120255  p :     0.149613
      px      :     0.019412
      py      :     0.009947
      dz2     :    -0.001164  d :     0.007397
      dxz     :     0.000587
      dyz     :    -0.000135
      dx2y2   :     0.006512
      dxy     :     0.001597
  4 C s       :     0.016056  s :     0.016056
      pz      :     0.003261  p :     0.019725
      px      :     0.009335
      py      :     0.007130
      dz2     :    -0.000347  d :     0.001153
      dxz     :    -0.000037
      dyz     :     0.001277
      dx2y2   :     0.000631
      dxy     :    -0.000371
  5 H s       :    -0.001692  s :    -0.001692
      pz      :    -0.000059  p :     0.000446
      px      :     0.000401
      py      :     0.000104
  6 H s       :    -0.003543  s :    -0.003543
      pz      :     0.000069  p :     0.000672
      px      :     0.000106
      py      :     0.000497
  7 H s       :    -0.003543  s :    -0.003543
      pz      :     0.000069  p :     0.000672
      px      :     0.000106
      py      :     0.000497
  8 H s       :    -0.025460  s :    -0.025460
      pz      :     0.001640  p :    -0.006054
      px      :    -0.001838
      py      :    -0.005855
  9 H s       :    -0.010208  s :    -0.010208
      pz      :     0.000727  p :     0.000047
      px      :    -0.000408
      py      :    -0.000272


                     *******************************
                     * LOEWDIN POPULATION ANALYSIS *
                     *******************************

-------------------------------------------
LOEWDIN ATOMIC CHARGES AND SPIN POPULATIONS
-------------------------------------------
   0 S :    0.599962    0.854982
   1 O :   -0.374194    0.135183
   2 C :   -0.400704   -0.060183
   3 C :    0.159374    0.069595
   4 C :    0.164057   -0.005796
   5 H :   -0.010421   -0.000121
   6 H :   -0.006798   -0.002031
   7 H :   -0.006798   -0.002031
   8 H :   -0.083950    0.005625
   9 H :   -0.040527    0.004776

----------------------------------------------------
LOEWDIN REDUCED ORBITAL CHARGES AND SPIN POPULATIONS
----------------------------------------------------
CHARGE
  0 S s       :     5.466690  s :     5.466690
      pz      :     3.019947  p :     9.565449
      px      :     2.879328
      py      :     3.666174
      dz2     :     0.048997  d :     0.367899
      dxz     :     0.081953
      dyz     :     0.016351
      dx2y2   :     0.096276
      dxy     :     0.124322
  1 O s       :     3.328676  s :     3.328676
      pz      :     1.649418  p :     4.651887
      px      :     1.394662
      py      :     1.607808
      dz2     :     0.039816  d :     0.393631
      dxz     :     0.068052
      dyz     :     0.020217
      dx2y2   :     0.132544
      dxy     :     0.133002
  2 C s       :     2.602269  s :     2.602269
      pz      :     0.743087  p :     2.558962
      px      :     0.821238
      py      :     0.994637
      dz2     :     0.102925  d :     1.239472
      dxz     :     0.142899
      dyz     :     0.244757
      dx2y2   :     0.335351
      dxy     :     0.413539
  3 C s       :     2.646857  s :     2.646857
      pz      :     0.815919  p :     2.768206
      px      :     0.954742
      py      :     0.997544
      dz2     :     0.046802  d :     0.425563
      dxz     :     0.001776
      dyz     :     0.063728
      dx2y2   :     0.126923
      dxy     :     0.186335
  4 C s       :     2.592795  s :     2.592795
      pz      :     0.931908  p :     2.766339
      px      :     0.913918
      py      :     0.920512
      dz2     :     0.074186  d :     0.476809
      dxz     :     0.048889
      dyz     :     0.129695
      dx2y2   :     0.094001
      dxy     :     0.130039
  5 H s       :     0.732752  s :     0.732752
      pz      :     0.073031  p :     0.277669
      px      :     0.111700
      py      :     0.092938
  6 H s       :     0.730048  s :     0.730048
      pz      :     0.118759  p :     0.276751
      px      :     0.065462
      py      :     0.092530
  7 H s       :     0.730047  s :     0.730047
      pz      :     0.118759  p :     0.276751
      px      :     0.065462
      py      :     0.092530
  8 H s       :     0.753478  s :     0.753478
      pz      :     0.083838  p :     0.330472
      px      :     0.155244
      py      :     0.091390
  9 H s       :     0.749822  s :     0.749822
      pz      :     0.086395  p :     0.290705
      px      :     0.126130
      py      :     0.078180

SPIN
  0 S s       :     0.010311  s :     0.010311
      pz      :     0.836829  p :     0.822891
      px      :    -0.016659
      py      :     0.002721
      dz2     :     0.007959  d :     0.021780
      dxz     :     0.012980
      dyz     :     0.002811
      dx2y2   :     0.000015
      dxy     :    -0.001986
  1 O s       :     0.006414  s :     0.006414
      pz      :     0.100504  p :     0.104725
      px      :     0.001757
      py      :     0.002464
      dz2     :     0.000279  d :     0.024044
      dxz     :     0.020751
      dyz     :     0.002691
      dx2y2   :     0.000691
      dxy     :    -0.000368
  2 C s       :    -0.004546  s :    -0.004546
      pz      :    -0.059729  p :    -0.070395
      px      :    -0.006147
      py      :    -0.004518
      dz2     :     0.000406  d :     0.014757
      dxz     :    -0.002423
      dyz     :     0.015693
      dx2y2   :     0.000389
      dxy     :     0.000693
  3 C s       :     0.003432  s :     0.003432
      pz      :     0.071914  p :     0.078636
      px      :     0.002630
      py      :     0.004092
      dz2     :    -0.001389  d :    -0.012473
      dxz     :     0.000450
      dyz     :    -0.008531
      dx2y2   :    -0.001449
      dxy     :    -0.001553
  4 C s       :     0.000638  s :     0.000638
      pz      :     0.001684  p :     0.005209
      px      :     0.001900
      py      :     0.001625
      dz2     :    -0.000347  d :    -0.011642
      dxz     :    -0.003559
      dyz     :    -0.006223
      dx2y2   :    -0.000644
      dxy     :    -0.000870
  5 H s       :    -0.000565  s :    -0.000565
      pz      :     0.000206  p :     0.000444
      px      :     0.000138
      py      :     0.000100
  6 H s       :    -0.002199  s :    -0.002199
      pz      :     0.000014  p :     0.000168
      px      :     0.000259
      py      :    -0.000105
  7 H s       :    -0.002199  s :    -0.002199
      pz      :     0.000014  p :     0.000168
      px      :     0.000259
      py      :    -0.000105
  8 H s       :    -0.003807  s :    -0.003807
      pz      :     0.010422  p :     0.009432
      px      :    -0.001030
      py      :     0.000040
  9 H s       :    -0.003420  s :    -0.003420
      pz      :     0.007136  p :     0.008196
      px      :     0.000672
      py      :     0.000388


                      *****************************
                      * MAYER POPULATION ANALYSIS *
                      *****************************

  NA   - Mulliken gross atomic population
  ZA   - Total nuclear charge
  QA   - Mulliken gross atomic charge
  VA   - Mayer's total valence
  BVA  - Mayer's bonded valence
  FA   - Mayer's free valence

  ATOM       NA         ZA         QA         VA         BVA        FA
  0 S     15.5907    16.0000     0.4093     1.6805     0.7800     0.9005
  1 O      9.0927     8.0000    -1.0927     1.0588     1.0382     0.0206
  2 C      5.6473     6.0000     0.3527     3.9070     3.8926     0.0144
  3 C      5.1598     6.0000     0.8402     3.3438     3.3274     0.0165
  4 C      5.7912     6.0000     0.2088     4.0522     4.0518     0.0005
  5 H      1.0975     1.0000    -0.0975     0.8968     0.8967     0.0000
  6 H      0.9702     1.0000     0.0298     0.8938     0.8938     0.0000
  7 H      0.9702     1.0000     0.0298     0.8938     0.8938     0.0000
  8 H      1.3690     1.0000    -0.3690     0.6099     0.6091     0.0008
  9 H      1.3113     1.0000    -0.3113     0.7267     0.7265     0.0001

  Mayer bond orders larger than 0.100000
B(  0-S ,  1-O ) :   0.7154 B(  1-O ,  2-C ) :   0.3158 B(  2-C ,  3-C ) :   1.8238 
B(  2-C ,  4-C ) :   1.2158 B(  2-C ,  5-H ) :   0.1006 B(  2-C ,  8-H ) :   0.2229 
B(  3-C ,  8-H ) :   0.5935 B(  3-C ,  9-H ) :   0.9061 B(  4-C ,  5-H ) :   0.9242 
B(  4-C ,  6-H ) :   0.8939 B(  4-C ,  7-H ) :   0.8939 B(  8-H ,  9-H ) :  -0.1742 


-------
TIMINGS
-------

Total SCF time: 0 days 0 hours 0 min 31 sec 

Total time                  ....      31.175 sec
Sum of individual times     ....      27.988 sec  ( 89.8%)

Fock matrix formation       ....      10.843 sec  ( 34.8%)
Diagonalization             ....       1.260 sec  (  4.0%)
Density matrix formation    ....       0.013 sec  (  0.0%)
Population analysis         ....       0.056 sec  (  0.2%)
Initial guess               ....       0.078 sec  (  0.2%)
Orbital Transformation      ....       0.000 sec  (  0.0%)
Orbital Orthonormalization  ....       0.000 sec  (  0.0%)
DIIS solution               ....       0.327 sec  (  1.0%)
SCF Stability Analysis      ....      13.716 sec  ( 44.0%)

Maximum memory used throughout the entire SCF-calculation: 230.2 MB


           ************************************************************
           *        Program running with 16 parallel MPI-processes    *
           *              working on a common directory               *
           ************************************************************

------------------------------------------------------------------------------
                                ORCA  MP2 
------------------------------------------------------------------------------

Freezing NCore=18 chemical core electrons

-------------
RI-MP2 ENERGY
-------------
Dimension of the basis                    ...  164
Memory devoted to MP2                     ... 3800 MB   
Data format for buffers                   ... DOUBLE
Compression type for matrix containers    ... UNCOMPRESSED
Overall scaling of the MP2 energy         ...   1.000e+00
Calculating two index integrals           ... done (    0.002 sec)
Cholesky decomposition of V**-1           ... done (    0.035 sec)

-----------------
RI-TRANSFORMATION (AUX index driven)
-----------------

Dimension of the orbital-basis         ... 164
Dimension of the aux-basis             ... 495
Transformation of internal/external MOs...    9-  23 to   24- 163
Number Format for Storage              ... Double (8 Byte)
Integral mode                          ... Direct

First Phase: integral generation and transformation of MO indices
  Aux angular momentum 0               ... done (    0.005 sec)
  Aux angular momentum 1               ... done (    0.005 sec)
  Aux angular momentum 2               ... done (    0.007 sec)
  Aux angular momentum 3               ... done (    0.003 sec)
Closing buffer VIA ( 0.01 GB; CompressionRatio= 1.00)
  Phase 1 completed in     1.627 sec
Second Phase: sorting and transformation of aux index

IA-Transformation
Memory available                       ... 3756 MB 
Max. # MO pairs treated in a batch     ... 1    
# of internal orbitals                 ... 15
# batches for internal orbitals        ... 1
Closing buffer IAV ( 0.01 GB; CompressionRatio= 1.00)
(ia|v) transformation done in     0.345 sec

  Phase 2 completed in     0.554 sec
RI-Integral transformation completed in     2.201 sec

-----------------
RI-TRANSFORMATION (AUX index driven)
-----------------

Dimension of the orbital-basis         ... 164
Dimension of the aux-basis             ... 495
Transformation of internal/external MOs...    9-  22 to   23- 163
Number Format for Storage              ... Double (8 Byte)
Integral mode                          ... Direct

First Phase: integral generation and transformation of MO indices
  Aux angular momentum 0               ... done (    0.005 sec)
  Aux angular momentum 1               ... done (    0.005 sec)
  Aux angular momentum 2               ... done (    0.007 sec)
  Aux angular momentum 3               ... done (    0.003 sec)
Closing buffer VIA ( 0.01 GB; CompressionRatio= 1.00)
  Phase 1 completed in     0.986 sec
Second Phase: sorting and transformation of aux index

IA-Transformation
Memory available                       ... 3756 MB 
Max. # MO pairs treated in a batch     ... 1    
# of internal orbitals                 ... 14
# batches for internal orbitals        ... 1
Closing buffer IAV ( 0.01 GB; CompressionRatio= 1.00)
(ia|v) transformation done in     0.092 sec

  Phase 2 completed in     0.145 sec
RI-Integral transformation completed in     1.149 sec
Opening buffers                              ... done

Starting loop over batches of integrals:

Operator 0  - window                       ... (  9- 23)x( 24-163)
Operator 0  - Memory available             ...  3800 MB
Operator 0  - Memory needed per MO         ...   0.5 MB
Operator 0  - Number of orbitals per batch ... 1
Operator 0  - Number of batches            ... 1

OPERATOR  0   PASS   0:  MOs     9 ...    9 +   10 ...   10 +   11 ...   11 +   12 ...   12
                            +   13 ...   13 +   14 ...   14 +   15 ...   15 +   16 ...   16
                            +   17 ...   17 +   18 ...   18 +   19 ...   19 +   20 ...   20
                            +   21 ...   21 +   22 ...   22 +   23 ...   23
  Reading integrals       ... ok

Operator 1  - window                       ... (  9- 22)x( 23-163)
Operator 1  - Memory available             ...  3800 MB
Operator 1  - Memory needed per MO         ...   0.5 MB
Operator 1  - Number of orbitals per batch ... 1
Operator 1  - Number of batches            ... 1

OPERATOR  1   PASS   0:  MOs     9 ...    9 +   10 ...   10 +   11 ...   11 +   12 ...   12
                            +   13 ...   13 +   14 ...   14 +   15 ...   15 +   16 ...   16
                            +   17 ...   17 +   18 ...   18 +   19 ...   19 +   20 ...   20
                            +   21 ...   21 +   22 ...   22
  Reading integrals       ... ok
Time spent in pair loops =     0.363 sec
Deleting buffer (Ka|jb)[aa] ...done
Deleting buffer (Ka|jb)[ba] ...done
Deleting buffer (Ka|jb)[ab] ...done
Deleting buffer (Ka|jb)[bb] ...done

Correlation energy components}
 E2 and T2 for alpha/alpha pairs :     -0.096137559 Eh      0.000000000
 E2 and T2 for beta/beta   pairs :     -0.090795354 Eh      0.000000000
 E2 and T2 for alpha/beta  pairs :     -0.550305492 Eh      0.000000000


-----------------------------------------------
 RI-MP2 CORRELATION ENERGY:     -0.737238404 Eh
-----------------------------------------------


-------
TIMINGS
-------

Total time                :    3.901 sec
Integral trafo            :    3.370 sec ( 86.4%)
I/O of integrals          :    0.002 sec (  0.0%)
K(i,j) Operators          :    0.018 sec (  0.5%)
T(i,j) pair energies      :    0.001 sec (  0.0%)
V-calculation             :    0.002 sec (  0.1%)
V**(-1/2)                 :    0.035 sec (  0.9%)
Gamma(ia|P)               :    0.000 sec (  0.0%)
Gamma-Trafo               :    0.000 sec (  0.0%)
D(virtual)                :    0.000 sec (  0.0%)
D(internal)               :    0.000 sec (  0.0%)
W(virtual)                :    0.000 sec (  0.0%)
W(internal)               :    0.000 sec (  0.0%)
L(virtual)                :    0.000 sec (  0.0%)
L(internal)               :    0.000 sec (  0.0%)
G(D)                      :    0.000 sec (  0.0%)
G(Z)                      :    0.000 sec (  0.0%)
Z-Vector Solution         :    0.000 sec (  0.0%)
3-Index Derivative        :    0.000 sec (  0.0%)
2-Index Derivative        :    0.000 sec (  0.0%)
Separable Gradient        :    0.000 sec (  0.0%)


---------------------------------------
MP2 TOTAL ENERGY:     -589.601735430 Eh
---------------------------------------

Maximum memory used throughout the entire MP2-calculation: 86.7 MB

-------------------------   --------------------
FINAL SINGLE POINT ENERGY      -589.601735429782
-------------------------   --------------------


                            ***************************************
                            *     ORCA property calculations      *
                            ***************************************


  WARNING: The energy has been calculated at the MP2 level but the densities
           used in the property calculations are still SCF densities
           MP2 response densities have not been calculated 
           use %mp2 Density relaxed end
           or  %mp2 Density unrelaxed end

                                    ---------------------
                                    Active property flags
                                    ---------------------
   (+) Dipole Moment


------------------------------------------------------------------------------
                       ORCA ELECTRIC PROPERTIES CALCULATION
------------------------------------------------------------------------------

Dipole Moment Calculation                       ... on
[...]
      f+1     :     0.006595
      f-1     :     0.014302
      f+2     :     0.012441
      f-2     :     0.032660
      f+3     :     0.013750
      f-3     :     0.002821
  8 H s       :     0.650630  s :     0.650630
      pz      :     0.089728  p :     0.362377
      px      :     0.171560
      py      :     0.101089
      dz2     :     0.035154  d :     0.303079
      dxz     :     0.050121
      dyz     :     0.032072
      dx2y2   :     0.098621
      dxy     :     0.087112
      f0      :     0.013403  f :     0.134380
      f+1     :     0.012507
      f-1     :     0.008809
      f+2     :     0.001375
      f-2     :     0.019430
      f+3     :     0.059365
      f-3     :     0.019490
  9 H s       :     0.645607  s :     0.645607
      pz      :     0.093997  p :     0.325162
      px      :     0.141639
      py      :     0.089527
      dz2     :     0.028970  d :     0.271150
      dxz     :     0.046692
      dyz     :     0.033512
      dx2y2   :     0.096735
      dxy     :     0.065241
      f0      :     0.013706  f :     0.125592
      f+1     :     0.011348
      f-1     :     0.007968
      f+2     :     0.000914
      f-2     :     0.018596
      f+3     :     0.057555
      f-3     :     0.015504

SPIN
  0 S s       :     0.008307  s :     0.008307
      pz      :     0.705538  p :     0.681378
      px      :    -0.023472
      py      :    -0.000688
      dz2     :     0.009119  d :     0.041738
      dxz     :     0.031700
      dyz     :     0.004315
      dx2y2   :    -0.000167
      dxy     :    -0.003229
      f0      :     0.006041  f :     0.012234
      f+1     :    -0.000521
      f-1     :     0.001260
      f+2     :     0.003080
      f-2     :     0.001997
      f+3     :     0.000059
      f-3     :     0.000317
      g0      :     0.000002  g :     0.004878
      g+1     :     0.002322
      g-1     :     0.000240
      g+2     :     0.000028
      g-2     :    -0.000038
      g+3     :     0.000385
      g-3     :     0.001494
      g+4     :     0.000128
      g-4     :     0.000317
  1 O s       :     0.004846  s :     0.004846
      pz      :     0.088156  p :     0.097060
      px      :     0.005188
      py      :     0.003716
      dz2     :    -0.000882  d :     0.073142
      dxz     :     0.061422
      dyz     :     0.008490
      dx2y2   :     0.002633
      dxy     :     0.001478
      f0      :     0.012910  f :     0.037744
      f+1     :    -0.000895
      f-1     :    -0.000163
      f+2     :     0.013715
      f-2     :     0.009204
      f+3     :     0.001244
      f-3     :     0.001728
      g0      :    -0.000042  g :     0.003266
      g+1     :     0.001615
      g-1     :     0.000161
      g+2     :    -0.000045
      g-2     :    -0.000037
      g+3     :     0.000188
      g-3     :     0.001197
      g+4     :     0.000193
      g-4     :     0.000037
  2 C s       :    -0.002570  s :    -0.002570
      pz      :    -0.036461  p :    -0.043772
      px      :    -0.004109
      py      :    -0.003202
      dz2     :     0.000162  d :     0.016793
      dxz     :     0.003317
      dyz     :     0.011733
      dx2y2   :     0.001186
      dxy     :     0.000395
      f0      :     0.001909  f :     0.010213
      f+1     :     0.000162
      f-1     :    -0.000143
      f+2     :     0.003661
      f-2     :     0.003755
      f+3     :     0.000199
      f-3     :     0.000670
      g0      :     0.000011  g :     0.006884
      g+1     :     0.000966
      g-1     :     0.002215
      g+2     :     0.000026
      g-2     :     0.000034
      g+3     :     0.001120
      g-3     :     0.001901
      g+4     :     0.000296
      g-4     :     0.000315
  3 C s       :     0.001820  s :     0.001820
      pz      :     0.044172  p :     0.047940
      px      :     0.001311
      py      :     0.002456
      dz2     :    -0.000957  d :    -0.008906
      dxz     :     0.001681
      dyz     :    -0.007115
      dx2y2   :    -0.001584
      dxy     :    -0.000932
      f0      :    -0.001470  f :    -0.005694
      f+1     :    -0.000316
      f-1     :    -0.000094
      f+2     :    -0.002296
      f-2     :    -0.000465
      f+3     :    -0.000571
      f-3     :    -0.000482
      g0      :    -0.000014  g :    -0.002161
      g+1     :    -0.000001
      g-1     :    -0.000717
      g+2     :    -0.000012
      g-2     :    -0.000053
      g+3     :     0.000032
      g-3     :    -0.001030
      g+4     :    -0.000067
      g-4     :    -0.000298
  4 C s       :     0.000233  s :     0.000233
      pz      :     0.001204  p :     0.003365
      px      :     0.001222
      py      :     0.000939
      dz2     :    -0.000307  d :    -0.009065
      dxz     :    -0.002666
      dyz     :    -0.004781
      dx2y2   :    -0.000607
      dxy     :    -0.000705
      f0      :    -0.001164  f :    -0.003964
      f+1     :    -0.000078
      f-1     :    -0.000108
      f+2     :     0.000631
      f-2     :    -0.002504
      f+3     :    -0.000337
      f-3     :    -0.000403
      g0      :    -0.000004  g :    -0.001565
      g+1     :    -0.000477
      g-1     :    -0.000229
      g+2     :    -0.000043
      g-2     :     0.000005
      g+3     :     0.000065
      g-3     :    -0.000611
      g+4     :    -0.000127
      g-4     :    -0.000142
  5 H s       :    -0.000417  s :    -0.000417
      pz      :     0.000332  p :     0.000518
      px      :     0.000100
      py      :     0.000086
      dz2     :    -0.000003  d :    -0.000540
      dxz     :    -0.000147
      dyz     :    -0.000536
      dx2y2   :     0.000157
      dxy     :    -0.000012
      f0      :     0.000004  f :    -0.000301
      f+1     :     0.000010
      f-1     :     0.000003
      f+2     :    -0.000252
      f-2     :    -0.000150
      f+3     :     0.000069
      f-3     :     0.000015
  6 H s       :    -0.001705  s :    -0.001705
      pz      :     0.000035  p :    -0.000085
      px      :    -0.000045
      py      :    -0.000075
      dz2     :    -0.000022  d :    -0.000233
      dxz     :     0.000088
      dyz     :     0.000030
      dx2y2   :    -0.000040
      dxy     :    -0.000289
      f0      :    -0.000017  f :    -0.000123
      f+1     :     0.000010
      f-1     :    -0.000061
      f+2     :     0.000019
      f-2     :     0.000044
      f+3     :    -0.000136
      f-3     :     0.000017
  7 H s       :    -0.001705  s :    -0.001705
      pz      :     0.000035  p :    -0.000085
      px      :    -0.000045
      py      :    -0.000075
      dz2     :    -0.000022  d :    -0.000233
      dxz     :     0.000088
      dyz     :     0.000030
      dx2y2   :    -0.000040
      dxy     :    -0.000289
      f0      :    -0.000017  f :    -0.000123
      f+1     :     0.000010
      f-1     :    -0.000061
      f+2     :     0.000019
      f-2     :     0.000044
      f+3     :    -0.000136
      f-3     :     0.000017
  8 H s       :    -0.002680  s :    -0.002680
      pz      :     0.011607  p :     0.011665
      px      :    -0.000510
      py      :     0.000568
      dz2     :    -0.000387  d :     0.005360
      dxz     :     0.003887
      dyz     :     0.001809
      dx2y2   :     0.000041
      dxy     :     0.000008
      f0      :     0.001113  f :     0.002245
      f+1     :    -0.000115
      f-1     :    -0.000049
      f+2     :     0.000321
      f-2     :     0.000883
      f+3     :     0.000192
      f-3     :    -0.000101
  9 H s       :    -0.002497  s :    -0.002497
      pz      :     0.008078  p :     0.009290
      px      :     0.000810
      py      :     0.000402
      dz2     :    -0.000098  d :     0.005292
      dxz     :     0.004583
      dyz     :     0.000228
      dx2y2   :     0.000236
      dxy     :     0.000342
      f0      :     0.000665  f :     0.002216
      f+1     :    -0.000047
      f-1     :     0.000003
      f+2     :     0.000319
      f-2     :     0.001036
      f+3     :     0.000167
      f-3     :     0.000073


                      *****************************
                      * MAYER POPULATION ANALYSIS *
                      *****************************

  NA   - Mulliken gross atomic population
  ZA   - Total nuclear charge
  QA   - Mulliken gross atomic charge
  VA   - Mayer's total valence
  BVA  - Mayer's bonded valence
  FA   - Mayer's free valence

  ATOM       NA         ZA         QA         VA         BVA        FA
  0 S     15.7769    16.0000     0.2231     1.7892     0.8835     0.9057
  1 O      8.6779     8.0000    -0.6779     1.6917     1.6688     0.0229
  2 C      5.5241     6.0000     0.4759     2.6695     2.6601     0.0094
  3 C      6.8809     6.0000    -0.8809     3.7198     3.7087     0.0111
  4 C      6.6748     6.0000    -0.6748     3.6513     3.6512     0.0001
  5 H      0.7506     1.0000     0.2494     0.9912     0.9912     0.0000
  6 H      0.7218     1.0000     0.2782     0.9838     0.9838     0.0000
  7 H      0.7218     1.0000     0.2782     0.9838     0.9838     0.0000
  8 H      0.5768     1.0000     0.4232     0.7936     0.7935     0.0001
  9 H      0.6943     1.0000     0.3057     0.9383     0.9381     0.0001

  Mayer bond orders larger than 0.100000
B(  0-S ,  1-O ) :   0.9020 B(  1-O ,  2-C ) :   0.5991 B(  1-O ,  3-C ) :   0.1127 
B(  2-C ,  3-C ) :   1.6162 B(  2-C ,  4-C ) :   0.7418 B(  3-C ,  8-H ) :   0.8828 
B(  3-C ,  9-H ) :   1.0013 B(  4-C ,  5-H ) :   1.0036 B(  4-C ,  6-H ) :   0.9331 
B(  4-C ,  7-H ) :   0.9331 

-------
TIMINGS
-------

Total SCF time: 0 days 0 hours 43 min 46 sec 

Total time                  ....    2626.710 sec
Sum of individual times     ....    2624.577 sec  ( 99.9%)

Fock matrix formation       ....     511.988 sec  ( 19.5%)
Diagonalization             ....       4.857 sec  (  0.2%)
Density matrix formation    ....       0.243 sec  (  0.0%)
Population analysis         ....       0.503 sec  (  0.0%)
Initial guess               ....       0.268 sec  (  0.0%)
Orbital Transformation      ....       0.000 sec  (  0.0%)
Orbital Orthonormalization  ....       0.000 sec  (  0.0%)
DIIS solution               ....       2.075 sec  (  0.1%)
SCF Stability Analysis      ....    2104.643 sec  ( 80.1%)

Maximum memory used throughout the entire SCF-calculation: 269.3 MB


           ************************************************************
           *        Program running with 16 parallel MPI-processes    *
           *              working on a common directory               *
           ************************************************************

------------------------------------------------------------------------------
                                ORCA  MP2 
------------------------------------------------------------------------------

Freezing NCore=18 chemical core electrons

-------------
RI-MP2 ENERGY
-------------
Dimension of the basis                    ...  634
Memory devoted to MP2                     ... 3800 MB   
Data format for buffers                   ... DOUBLE
Compression type for matrix containers    ... UNCOMPRESSED
Overall scaling of the MP2 energy         ...   1.000e+00
Calculating two index integrals           ... done (    0.015 sec)
Cholesky decomposition of V**-1           ... done (    0.282 sec)

-----------------
RI-TRANSFORMATION (AUX index driven)
-----------------

Dimension of the orbital-basis         ... 634
Dimension of the aux-basis             ... 1266
Transformation of internal/external MOs...    9-  23 to   24- 633
Number Format for Storage              ... Double (8 Byte)
Integral mode                          ... Direct

First Phase: integral generation and transformation of MO indices
  Aux angular momentum 0               ... done (    0.051 sec)
  Aux angular momentum 1               ... done (    0.103 sec)
  Aux angular momentum 2               ... done (    0.133 sec)
  Aux angular momentum 3               ... done (    0.150 sec)
  Aux angular momentum 4               ... done (    0.136 sec)
  Aux angular momentum 5               ... done (    0.103 sec)
Closing buffer VIA ( 0.09 GB; CompressionRatio= 1.00)
  Phase 1 completed in     1.911 sec
Second Phase: sorting and transformation of aux index

IA-Transformation
Memory available                       ... 3737 MB 
Max. # MO pairs treated in a batch     ... 1    
# of internal orbitals                 ... 15
# batches for internal orbitals        ... 1
Closing buffer IAV ( 0.09 GB; CompressionRatio= 1.00)
(ia|v) transformation done in     0.811 sec

  Phase 2 completed in     0.868 sec
RI-Integral transformation completed in     2.789 sec

-----------------
RI-TRANSFORMATION (AUX index driven)
-----------------

Dimension of the orbital-basis         ... 634
Dimension of the aux-basis             ... 1266
Transformation of internal/external MOs...    9-  22 to   23- 633
Number Format for Storage              ... Double (8 Byte)
Integral mode                          ... Direct

First Phase: integral generation and transformation of MO indices
  Aux angular momentum 0               ... done (    0.038 sec)
  Aux angular momentum 1               ... done (    0.091 sec)
  Aux angular momentum 2               ... done (    0.130 sec)
  Aux angular momentum 3               ... done (    0.141 sec)
  Aux angular momentum 4               ... done (    0.130 sec)
  Aux angular momentum 5               ... done (    0.100 sec)
Closing buffer VIA ( 0.08 GB; CompressionRatio= 1.00)
  Phase 1 completed in     0.812 sec
Second Phase: sorting and transformation of aux index

IA-Transformation
Memory available                       ... 3737 MB 
Max. # MO pairs treated in a batch     ... 1    
# of internal orbitals                 ... 14
# batches for internal orbitals        ... 1
Closing buffer IAV ( 0.08 GB; CompressionRatio= 1.00)
(ia|v) transformation done in     0.157 sec

  Phase 2 completed in     0.204 sec
RI-Integral transformation completed in     1.033 sec
Opening buffers                              ... done

Starting loop over batches of integrals:

Operator 0  - window                       ... (  9- 23)x( 24-633)
Operator 0  - Memory available             ...  3800 MB
Operator 0  - Memory needed per MO         ...   5.9 MB
Operator 0  - Number of orbitals per batch ... 1
Operator 0  - Number of batches            ... 1

OPERATOR  0   PASS   0:  MOs     9 ...    9 +   10 ...   10 +   11 ...   11 +   12 ...   12
                            +   13 ...   13 +   14 ...   14 +   15 ...   15 +   16 ...   16
                            +   17 ...   17 +   18 ...   18 +   19 ...   19 +   20 ...   20
                            +   21 ...   21 +   22 ...   22 +   23 ...   23
  Reading integrals       ... ok

Operator 1  - window                       ... (  9- 22)x( 23-633)
Operator 1  - Memory available             ...  3800 MB
Operator 1  - Memory needed per MO         ...   5.9 MB
Operator 1  - Number of orbitals per batch ... 1
Operator 1  - Number of batches            ... 1

OPERATOR  1   PASS   0:  MOs     9 ...    9 +   10 ...   10 +   11 ...   11 +   12 ...   12
                            +   13 ...   13 +   14 ...   14 +   15 ...   15 +   16 ...   16
                            +   17 ...   17 +   18 ...   18 +   19 ...   19 +   20 ...   20
                            +   21 ...   21 +   22 ...   22
  Reading integrals       ... ok
Time spent in pair loops =     1.179 sec
Deleting buffer (Ka|jb)[aa] ...done
Deleting buffer (Ka|jb)[ba] ...done
Deleting buffer (Ka|jb)[ab] ...done
Deleting buffer (Ka|jb)[bb] ...done

Correlation energy components}
 E2 and T2 for alpha/alpha pairs :     -0.115054771 Eh      0.000000000
 E2 and T2 for beta/beta   pairs :     -0.106670094 Eh      0.000000000
 E2 and T2 for alpha/beta  pairs :     -0.727013806 Eh      0.000000000


-----------------------------------------------
 RI-MP2 CORRELATION ENERGY:     -0.948738671 Eh
-----------------------------------------------


-------
TIMINGS
-------

Total time                :    5.665 sec
Integral trafo            :    3.837 sec ( 67.7%)
I/O of integrals          :    0.006 sec (  0.1%)
K(i,j) Operators          :    0.721 sec ( 12.7%)
T(i,j) pair energies      :    0.014 sec (  0.2%)
V-calculation             :    0.015 sec (  0.3%)
V**(-1/2)                 :    0.282 sec (  5.0%)
Gamma(ia|P)               :    0.000 sec (  0.0%)
Gamma-Trafo               :    0.000 sec (  0.0%)
D(virtual)                :    0.000 sec (  0.0%)
D(internal)               :    0.000 sec (  0.0%)
W(virtual)                :    0.000 sec (  0.0%)
W(internal)               :    0.000 sec (  0.0%)
L(virtual)                :    0.000 sec (  0.0%)
L(internal)               :    0.000 sec (  0.0%)
G(D)                      :    0.000 sec (  0.0%)
G(Z)                      :    0.000 sec (  0.0%)
Z-Vector Solution         :    0.000 sec (  0.0%)
3-Index Derivative        :    0.000 sec (  0.0%)
2-Index Derivative        :    0.000 sec (  0.0%)
Separable Gradient        :    0.000 sec (  0.0%)


---------------------------------------
MP2 TOTAL ENERGY:     -589.895732315 Eh
---------------------------------------

Maximum memory used throughout the entire MP2-calculation: 149.0 MB

-------------------------   --------------------
FINAL SINGLE POINT ENERGY      -589.895732314747
-------------------------   --------------------


                            ***************************************
                            *     ORCA property calculations      *
                            ***************************************


  WARNING: The energy has been calculated at the MP2 level but the densities
           used in the property calculations are still SCF densities
           MP2 response densities have not been calculated 
           use %mp2 Density relaxed end
           or  %mp2 Density unrelaxed end

                                    ---------------------
                                    Active property flags
                                    ---------------------
   (+) Dipole Moment


------------------------------------------------------------------------------
                       ORCA ELECTRIC PROPERTIES CALCULATION
------------------------------------------------------------------------------

Dipole Moment Calculation                       ... on
Quadrupole Moment Calculation                   ... off
Polarizability Calculation                      ... off
GBWName                                         ... QZ_P-S_1_A.gbw
Electron density                                ... QZ_P-S_1_A.scfp
The origin for moment calculation is the CENTER OF MASS  = ( 0.184620, -0.024496 -0.000001)

-------------
DIPOLE MOMENT
-------------
                                X             Y             Z
Electronic contribution:      8.17312      -0.95316      -0.00001
Nuclear contribution   :     -8.67716       1.15133       0.00001
                        -----------------------------------------
Total Dipole Moment    :     -0.50404       0.19817       0.00000
                        -----------------------------------------
Magnitude (a.u.)       :      0.54160
Magnitude (Debye)      :      1.37663



--------------------
Rotational spectrum 
--------------------
 
Rotational constants in cm-1:     0.318142     0.087246     0.069348 
Rotational constants in MHz :  9537.650096  2615.568840  2078.997512 

 Dipole components along the rotational axes: 
x,y,z [a.u.] :    -0.507572    -0.188939     0.000003 
x,y,z [Debye]:    -1.290144    -0.480244     0.000007 

 

Timings for individual modules:

Sum of individual times         ...     2638.638 sec (=  43.977 min)
GTO integral calculation        ...        3.813 sec (=   0.064 min)   0.1 %
SCF iterations                  ...     2627.770 sec (=  43.796 min)  99.6 %
MP2 module                      ...        7.055 sec (=   0.118 min)   0.3 %



                             ****ORCA TERMINATED NORMALLY****
TOTAL RUN TIME: 0 days 0 hours 49 minutes 47 seconds 247 msec
