
                                 *****************
                                 * O   R   C   A *
                                 *****************

                                            #,                                       
                                            ###                                      
                                            ####                                     
                                            #####                                    
                                            ######                                   
                                           ########,                                 
                                     ,,################,,,,,                         
                               ,,#################################,,                 
                          ,,##########################################,,             
                       ,#########################################, ''#####,          
                    ,#############################################,,   '####,        
                  ,##################################################,,,,####,       
                ,###########''''           ''''###############################       
              ,#####''   ,,,,##########,,,,          '''####'''          '####       
            ,##' ,,,,###########################,,,                        '##       
           ' ,,###''''                  '''############,,,                           
         ,,##''                                '''############,,,,        ,,,,,,###''
      ,#''                                            '''#######################'''  
     '                                                          ''''####''''         
             ,#######,   #######,   ,#######,      ##                                
            ,#'     '#,  ##    ##  ,#'     '#,    #''#        ######   ,####,        
            ##       ##  ##   ,#'  ##            #'  '#       #        #'  '#        
            ##       ##  #######   ##           ,######,      #####,   #    #        
            '#,     ,#'  ##    ##  '#,     ,#' ,#      #,         ##   #,  ,#        
             '#######'   ##     ##  '#######'  #'      '#     #####' # '####'        



                  #######################################################
                  #                        -***-                        #
                  #          Department of theory and spectroscopy      #
                  #    Directorship and core code : Frank Neese         #
                  #        Max Planck Institute fuer Kohlenforschung    #
                  #                Kaiser Wilhelm Platz 1               #
                  #                 D-45470 Muelheim/Ruhr               #
                  #                      Germany                        #
                  #                                                     #
                  #                  All rights reserved                #
                  #                        -***-                        #
                  #######################################################


                         Program Version 5.0.4 -  RELEASE  -


 With contributions from (in alphabetic order):
   Daniel Aravena         : Magnetic Suceptibility
   Michael Atanasov       : Ab Initio Ligand Field Theory (pilot matlab implementation)
   Alexander A. Auer      : GIAO ZORA, VPT2 properties, NMR spectrum
   Ute Becker             : Parallelization
   Giovanni Bistoni       : ED, misc. LED, open-shell LED, HFLD
   Martin Brehm           : Molecular dynamics
   Dmytro Bykov           : SCF Hessian
   Vijay G. Chilkuri      : MRCI spin determinant printing, contributions to CSF-ICE
   Dipayan Datta          : RHF DLPNO-CCSD density
   Achintya Kumar Dutta   : EOM-CC, STEOM-CC
   Dmitry Ganyushin       : Spin-Orbit,Spin-Spin,Magnetic field MRCI
   Miquel Garcia          : C-PCM and meta-GGA Hessian, CC/C-PCM, Gaussian charge scheme
   Yang Guo               : DLPNO-NEVPT2, F12-NEVPT2, CIM, IAO-localization
   Andreas Hansen         : Spin unrestricted coupled pair/coupled cluster methods
   Benjamin Helmich-Paris : MC-RPA, TRAH-SCF, COSX integrals
   Lee Huntington         : MR-EOM, pCC
   Robert Izsak           : Overlap fitted RIJCOSX, COSX-SCS-MP3, EOM
   Marcus Kettner         : VPT2
   Christian Kollmar      : KDIIS, OOCD, Brueckner-CCSD(T), CCSD density, CASPT2, CASPT2-K
   Simone Kossmann        : Meta GGA functionals, TD-DFT gradient, OOMP2, MP2 Hessian
   Martin Krupicka        : Initial AUTO-CI
   Lucas Lang             : DCDCAS
   Marvin Lechner         : AUTO-CI (C++ implementation), FIC-MRCC
   Dagmar Lenk            : GEPOL surface, SMD
   Dimitrios Liakos       : Extrapolation schemes; Compound Job, initial MDCI parallelization
   Dimitrios Manganas     : Further ROCIS development; embedding schemes
   Dimitrios Pantazis     : SARC Basis sets
   Anastasios Papadopoulos: AUTO-CI, single reference methods and gradients
   Taras Petrenko         : DFT Hessian,TD-DFT gradient, ASA, ECA, R-Raman, ABS, FL, XAS/XES, NRVS
   Peter Pinski           : DLPNO-MP2, DLPNO-MP2 Gradient
   Christoph Reimann      : Effective Core Potentials
   Marius Retegan         : Local ZFS, SOC
   Christoph Riplinger    : Optimizer, TS searches, QM/MM, DLPNO-CCSD(T), (RO)-DLPNO pert. Triples
   Tobias Risthaus        : Range-separated hybrids, TD-DFT gradient, RPA, STAB
   Michael Roemelt        : Original ROCIS implementation
   Masaaki Saitow         : Open-shell DLPNO-CCSD energy and density
   Barbara Sandhoefer     : DKH picture change effects
   Avijit Sen             : IP-ROCIS
   Kantharuban Sivalingam : CASSCF convergence, NEVPT2, FIC-MRCI
   Bernardo de Souza      : ESD, SOC TD-DFT
   Georgi Stoychev        : AutoAux, RI-MP2 NMR, DLPNO-MP2 response
   Willem Van den Heuvel  : Paramagnetic NMR
   Boris Wezisla          : Elementary symmetry handling
   Frank Wennmohs         : Technical directorship


 We gratefully acknowledge several colleagues who have allowed us to
 interface, adapt or use parts of their codes:
   Stefan Grimme, W. Hujo, H. Kruse, P. Pracht,  : VdW corrections, initial TS optimization,
                  C. Bannwarth, S. Ehlert          DFT functionals, gCP, sTDA/sTD-DF
   Ed Valeev, F. Pavosevic, A. Kumar             : LibInt (2-el integral package), F12 methods
   Garnet Chan, S. Sharma, J. Yang, R. Olivares  : DMRG
   Ulf Ekstrom                                   : XCFun DFT Library
   Mihaly Kallay                                 : mrcc  (arbitrary order and MRCC methods)
   Jiri Pittner, Ondrej Demel                    : Mk-CCSD
   Frank Weinhold                                : gennbo (NPA and NBO analysis)
   Christopher J. Cramer and Donald G. Truhlar   : smd solvation model
   Lars Goerigk                                  : TD-DFT with DH, B97 family of functionals
   V. Asgeirsson, H. Jonsson                     : NEB implementation
   FAccTs GmbH                                   : IRC, NEB, NEB-TS, DLPNO-Multilevel, CI-OPT
                                                   MM, QMMM, 2- and 3-layer-ONIOM, Crystal-QMMM,
                                                   LR-CPCM, SF, NACMEs, symmetry and pop. for TD-DFT,
                                                   nearIR, NL-DFT gradient (VV10), updates on ESD,
                                                   ML-optimized integration grids
   S Lehtola, MJT Oliveira, MAL Marques          : LibXC Library
   Liviu Ungur et al                             : ANISO software


 Your calculation uses the libint2 library for the computation of 2-el integrals
 For citations please refer to: http://libint.valeyev.net

 Your ORCA version has been built with support for libXC version: 5.1.0
 For citations please refer to: https://tddft.org/programs/libxc/

 This ORCA versions uses:
   CBLAS   interface :  Fast vector & matrix operations
   LAPACKE interface :  Fast linear algebra routines
   SCALAPACK package :  Parallel linear algebra routines
   Shared memory     :  Shared parallel matrices
   BLAS/LAPACK       :  OpenBLAS 0.3.15  USE64BITINT DYNAMIC_ARCH NO_AFFINITY Zen SINGLE_THREADED
        Core in use  :  Zen
   Copyright (c) 2011-2014, The OpenBLAS Project


================================================================================

----- Orbital basis set information -----
Your calculation utilizes the basis: aug-cc-pVDZ 
    H, B-Ne : Obtained from the ccRepo (grant-hill.group.shef.ac.uk/ccrepo) Feb. 2017
              R. A. Kendall, T. H. Dunning, Jr., R. J. Harrison, J. Chem. Phys. 96, 6796 (1992)
         He : Obtained from the ccRepo (grant-hill.group.shef.ac.uk/ccrepo) Feb. 2017
              D. E. Woon, T. H. Dunning, Jr., J. Chem. Phys. 100, 2975 (1994)
  Li-Be, Na : Obtained from the ccRepo (grant-hill.group.shef.ac.uk/ccrepo) Feb. 2017
              B. P. Prascher, D. E. Woon, K. A. Peterson, T. H. Dunning, Jr., A. K. Wilson, Theor. Chem. Acc. 128, 69 (2011)
         Mg : Obtained from the Peterson Research Group Website (tyr0.chem.wsu.edu/~kipeters) Feb. 2017
              B. P. Prascher, D. E. Woon, K. A. Peterson, T. H. Dunning, Jr., A. K. Wilson, Theor. Chem. Acc. 128, 69 (2011)
      Al-Ar : Obtained from the ccRepo (grant-hill.group.shef.ac.uk/ccrepo) Feb. 2017
              D. E. Woon, T. H. Dunning, Jr., J. Chem. Phys. 98, 1358 (1993)
      Sc-Zn : Obtained from the ccRepo (grant-hill.group.shef.ac.uk/ccrepo) Feb. 2017
              N. B. Balabanov, K. A. Peterson, J. Chem. Phys. 123, 064107 (2005)
              N. B. Balabanov, K. A. Peterson, J. Chem. Phys. 125, 074110 (2006)
      Ga-Kr : Obtained from the ccRepo (grant-hill.group.shef.ac.uk/ccrepo) Feb. 2017
              A. K. Wilson, D. E. Woon, K. A. Peterson, T. H. Dunning, Jr., J. Chem. Phys. 110, 7667 (1999)

----- AuxC basis set information -----
Your calculation utilizes the auxiliary basis: aug-cc-pVDZ/C 
  H-He, B, Ne, Al-Ar, Ga-Ge, Se-Br : Obtained from the EMSL Basis Set Exchange (bse.pnl.gov) Feb. 2017
                                     F. Weigend, A. Kohn, C. Hattig, J. Chem. Phys. 116, 3175 (2002)
                            Be, Mg : Obtained from the TURBOMOLE 7.0 basis set library
                                     C. Haettig, Phys. Chem. Chem. Phys. 7, 59 (2005)
                               C-F : Obtained from the EMSL Basis Set Exchange (bse.pnl.gov) Feb. 2017
                                     C. Haettig, Phys. Chem. Chem. Phys. 7, 59 (2005)
                                     F. Weigend, A. Kohn, C. Hattig, J. Chem. Phys. 116, 3175 (2002)
                                As : Obtained from the EMSL Basis Set Exchange (bse.pnl.gov) Feb. 2017
                                     C. Haettig, G. Schmitz, J. Kossmann, Phys. Chem. Chem. Phys. 14, 6549 (2012)
                                Kr : Obtained from the TURBOMOLE 7.0 basis set library
                                     F. Weigend, A. Kohn, C. Hattig, J. Chem. Phys. 116, 3175 (2002)
                                     S function revised in Sep. 2009

================================================================================
                                        WARNINGS
                       Please study these warnings very carefully!
================================================================================


WARNING: No MP2 level density has been requested!
         To caclulate MP2 level properties use
         %mp2 Density relaxed end
         or
         %mp2 Density unrelaxed end

WARNING: Post HF methods need fully converged wavefunctions
  ===> : Setting SCFConvForced true
         You can overwrite this default with %scf ConvForced false 


INFO   : the flag for use of the SHARK integral package has been found!

================================================================================

----- Orbital basis set information -----
Your calculation utilizes the basis: aug-cc-pVTZ 
    H, B-Ne : Obtained from the ccRepo (grant-hill.group.shef.ac.uk/ccrepo) Feb. 2017
              R. A. Kendall, T. H. Dunning, Jr., R. J. Harrison, J. Chem. Phys. 96, 6796 (1992)
         He : Obtained from the ccRepo (grant-hill.group.shef.ac.uk/ccrepo) Feb. 2017
              D. E. Woon, T. H. Dunning, Jr., J. Chem. Phys. 100, 2975 (1994)
  Li-Be, Na : Obtained from the ccRepo (grant-hill.group.shef.ac.uk/ccrepo) Feb. 2017
              B. P. Prascher, D. E. Woon, K. A. Peterson, T. H. Dunning, Jr., A. K. Wilson, Theor. Chem. Acc. 128, 69 (2011)
         Mg : Obtained from the Peterson Research Group Website (tyr0.chem.wsu.edu/~kipeters) Feb. 2017
              B. P. Prascher, D. E. Woon, K. A. Peterson, T. H. Dunning, Jr., A. K. Wilson, Theor. Chem. Acc. 128, 69 (2011)
      Al-Ar : Obtained from the ccRepo (grant-hill.group.shef.ac.uk/ccrepo) Feb. 2017
              D. E. Woon, T. H. Dunning, Jr., J. Chem. Phys. 98, 1358 (1993)
      Sc-Zn : Obtained from the ccRepo (grant-hill.group.shef.ac.uk/ccrepo) Feb. 2017
              N. B. Balabanov, K. A. Peterson, J. Chem. Phys. 123, 064107 (2005)
              N. B. Balabanov, K. A. Peterson, J. Chem. Phys. 125, 074110 (2006)
      Ga-Kr : Obtained from the ccRepo (grant-hill.group.shef.ac.uk/ccrepo) Feb. 2017
              A. K. Wilson, D. E. Woon, K. A. Peterson, T. H. Dunning, Jr., J. Chem. Phys. 110, 7667 (1999)
     Ag, Au : Obtained from the Peterson Research Group Website (tyr0.chem.wsu.edu/~kipeters) Feb. 2017
              K. A. Peterson, C. Puzzarini, Theor. Chem. Acc. 114, 283 (2005)

----- AuxC basis set information -----
Your calculation utilizes the auxiliary basis: aug-cc-pVTZ/C 
  H-He, B-F, Al-Ar, Ga-Kr : Obtained from the EMSL Basis Set Exchange (bse.pnl.gov) Feb. 2017
                            F. Weigend, A. Kohn, C. Hattig, J. Chem. Phys. 116, 3175 (2002)
                   Be, Mg : Obtained from the TURBOMOLE 7.0 basis set library
                            C. Haettig, Phys. Chem. Chem. Phys. 7, 59 (2005)
                       Ne : Obtained from the EMSL Basis Set Exchange (bse.pnl.gov) Feb. 2017
                            C. Haettig, Phys. Chem. Chem. Phys. 7, 59 (2005)
                            F. Weigend, A. Kohn, C. Hattig, J. Chem. Phys. 116, 3175 (2002)
                    Sc-Zn : Obtained from the EMSL Basis Set Exchange (bse.pnl.gov) Feb. 2017
                            J. G. Hill, J. A. Platts, J. Chem. Phys. 128, 044104 (2008)

================================================================================
                                        WARNINGS
                       Please study these warnings very carefully!
================================================================================


WARNING: No MP2 level density has been requested!
         To caclulate MP2 level properties use
         %mp2 Density relaxed end
         or
         %mp2 Density unrelaxed end

INFO   : the flag for use of the SHARK integral package has been found!

================================================================================

----- Orbital basis set information -----
Your calculation utilizes the basis: aug-cc-pVQZ 
    H, B-Ne : Obtained from the ccRepo (grant-hill.group.shef.ac.uk/ccrepo) Feb. 2017
              R. A. Kendall, T. H. Dunning, Jr., R. J. Harrison, J. Chem. Phys. 96, 6796 (1992)
         He : Obtained from the ccRepo (grant-hill.group.shef.ac.uk/ccrepo) Feb. 2017
              D. E. Woon, T. H. Dunning, Jr., J. Chem. Phys. 100, 2975 (1994)
  Li-Be, Na : Obtained from the ccRepo (grant-hill.group.shef.ac.uk/ccrepo) Feb. 2017
              B. P. Prascher, D. E. Woon, K. A. Peterson, T. H. Dunning, Jr., A. K. Wilson, Theor. Chem. Acc. 128, 69 (2011)
         Mg : Obtained from the Peterson Research Group Website (tyr0.chem.wsu.edu/~kipeters) Feb. 2017
              B. P. Prascher, D. E. Woon, K. A. Peterson, T. H. Dunning, Jr., A. K. Wilson, Theor. Chem. Acc. 128, 69 (2011)
      Al-Ar : Obtained from the ccRepo (grant-hill.group.shef.ac.uk/ccrepo) Feb. 2017
              D. E. Woon, T. H. Dunning, Jr., J. Chem. Phys. 98, 1358 (1993)
      Sc-Zn : Obtained from the ccRepo (grant-hill.group.shef.ac.uk/ccrepo) Feb. 2017
              N. B. Balabanov, K. A. Peterson, J. Chem. Phys. 123, 064107 (2005)
              N. B. Balabanov, K. A. Peterson, J. Chem. Phys. 125, 074110 (2006)
      Ga-Kr : Obtained from the ccRepo (grant-hill.group.shef.ac.uk/ccrepo) Feb. 2017
              A. K. Wilson, D. E. Woon, K. A. Peterson, T. H. Dunning, Jr., J. Chem. Phys. 110, 7667 (1999)

----- AuxC basis set information -----
Your calculation utilizes the auxiliary basis: aug-cc-pVQZ/C 
  H-He, B-F, Al-Ar, Ga-Kr : Obtained from the EMSL Basis Set Exchange (bse.pnl.gov) Feb. 2017
                            F. Weigend, A. Kohn, C. Hattig, J. Chem. Phys. 116, 3175 (2002)
                   Be, Mg : Obtained from the TURBOMOLE 7.0 basis set library
                            C. Haettig, Phys. Chem. Chem. Phys. 7, 59 (2005)
                       Ne : Obtained from the EMSL Basis Set Exchange (bse.pnl.gov) Feb. 2017
                            C. Haettig, Phys. Chem. Chem. Phys. 7, 59 (2005)
                            F. Weigend, A. Kohn, C. Hattig, J. Chem. Phys. 116, 3175 (2002)
                    Sc-Zn : Obtained from the EMSL Basis Set Exchange (bse.pnl.gov) Feb. 2017
                            D. H. Bross, J. G. Hill, H. J. Werner, K. A. Peterson, J. Chem. Phys. 139, 094302 (2013)

================================================================================
                                        WARNINGS
                       Please study these warnings very carefully!
================================================================================


WARNING: No MP2 level density has been requested!
         To caclulate MP2 level properties use
         %mp2 Density relaxed end
         or
         %mp2 Density unrelaxed end

INFO   : the flag for use of the SHARK integral package has been found!

================================================================================
                                       INPUT FILE
================================================================================
NAME = P-Si_25_AB.inp
|  1> ! ri-mp2 aug-cc-pvdz aug-cc-pvdz/c tightscf
|  2> %pal nprocs 16 end
|  3> %maxcore 3800
|  4> %base "DZ_P-Si_25_AB"
|  5> %scf
|  6> STABPerform true 
|  7> STABRestartUHFifUnstable true
|  8> end
|  9> 
| 10> *xyz 0 1
| 11> P        -1.944410    0.000001   -0.454375
| 12> Si        -0.038602   -0.000001    0.750888
| 13> C         1.225836   -1.198871    0.040456
| 14> C         1.225836    1.198870    0.040461
| 15> C         1.755614    0.000001   -0.798398
| 16> H         1.952399    1.502378    0.795485
| 17> H         0.926706    2.079151   -0.522992
| 18> H         1.284630    0.000003   -1.781509
| 19> H         2.834745    0.000002   -0.953510
| 20> H         0.926706   -2.079149   -0.523000
| 21> H         1.952399   -1.502381    0.795480
| 22> H        -2.555708    1.034357    0.293527
| 23> H        -2.555708   -1.034358    0.293523
| 24> H        -0.303311   -0.000004    2.211074
| 25> *
| 26> 
| 27> $new_job
| 28> ! ri-mp2 aug-cc-pvtz aug-cc-pvtz/c tightscf
| 29> %pal nprocs 16 end
| 30> %maxcore 3800
| 31> %base "TZ_P-Si_25_AB"
| 32> 
| 33> *xyz 0 1
| 34> P        -1.944410    0.000001   -0.454375
| 35> Si        -0.038602   -0.000001    0.750888
| 36> C         1.225836   -1.198871    0.040456
| 37> C         1.225836    1.198870    0.040461
| 38> C         1.755614    0.000001   -0.798398
| 39> H         1.952399    1.502378    0.795485
| 40> H         0.926706    2.079151   -0.522992
| 41> H         1.284630    0.000003   -1.781509
| 42> H         2.834745    0.000002   -0.953510
| 43> H         0.926706   -2.079149   -0.523000
| 44> H         1.952399   -1.502381    0.795480
| 45> H        -2.555708    1.034357    0.293527
| 46> H        -2.555708   -1.034358    0.293523
| 47> H        -0.303311   -0.000004    2.211074
| 48> *
| 49> 
| 50> $new_job
| 51> ! ri-mp2 aug-cc-pvqz aug-cc-pvqz/c tightscf
| 52> %pal nprocs 16 end
| 53> %maxcore 3800
| 54> %base "QZ_P-Si_25_AB"
| 55> 
| 56> *xyz 0 1
| 57> P        -1.944410    0.000001   -0.454375
| 58> Si        -0.038602   -0.000001    0.750888
| 59> C         1.225836   -1.198871    0.040456
| 60> C         1.225836    1.198870    0.040461
| 61> C         1.755614    0.000001   -0.798398
| 62> H         1.952399    1.502378    0.795485
| 63> H         0.926706    2.079151   -0.522992
| 64> H         1.284630    0.000003   -1.781509
| 65> H         2.834745    0.000002   -0.953510
| 66> H         0.926706   -2.079149   -0.523000
| 67> H         1.952399   -1.502381    0.795480
| 68> H        -2.555708    1.034357    0.293527
| 69> H        -2.555708   -1.034358    0.293523
| 70> H        -0.303311   -0.000004    2.211074
| 71> *
| 72> 
| 73> 
| 74> 
| 75> 
| 76>                          ****END OF INPUT****
================================================================================


                 $$$$$$$$$$$$$$$$$$$$$$$$$$$$$$$$$$$$$$$$$$$$$$ 
                 $ THERE ARE  3 JOBS TO BE PROCESSED THIS RUN $
                 $$$$$$$$$$$$$$$$$$$$$$$$$$$$$$$$$$$$$$$$$$$$$$ 




                 $$$$$$$$$$$$$$$$  JOB NUMBER  1 $$$$$$$$$$$$$$


                       ****************************
                       * Single Point Calculation *
                       ****************************

---------------------------------
CARTESIAN COORDINATES (ANGSTROEM)
---------------------------------
  P     -1.944410    0.000001   -0.454375
  Si    -0.038602   -0.000001    0.750888
  C      1.225836   -1.198871    0.040456
  C      1.225836    1.198870    0.040461
  C      1.755614    0.000001   -0.798398
  H      1.952399    1.502378    0.795485
  H      0.926706    2.079151   -0.522992
  H      1.284630    0.000003   -1.781509
  H      2.834745    0.000002   -0.953510
  H      0.926706   -2.079149   -0.523000
  H      1.952399   -1.502381    0.795480
  H     -2.555708    1.034357    0.293527
  H     -2.555708   -1.034358    0.293523
  H     -0.303311   -0.000004    2.211074

----------------------------
CARTESIAN COORDINATES (A.U.)
----------------------------
  NO LB      ZA    FRAG     MASS         X           Y           Z
   0 P    15.0000    0    30.974   -3.674402    0.000002   -0.858644
   1 Si   14.0000    0    28.086   -0.072947   -0.000002    1.418973
   2 C     6.0000    0    12.011    2.316494   -2.265538    0.076451
   3 C     6.0000    0    12.011    2.316494    2.265536    0.076460
   4 C     6.0000    0    12.011    3.317630    0.000002   -1.508754
   5 H     1.0000    0     1.008    3.689499    2.839083    1.503249
   6 H     1.0000    0     1.008    1.751221    3.929026   -0.988312
   7 H     1.0000    0     1.008    2.427599    0.000006   -3.366564
   8 H     1.0000    0     1.008    5.356892    0.000004   -1.801873
   9 H     1.0000    0     1.008    1.751221   -3.929022   -0.988327
  10 H     1.0000    0     1.008    3.689499   -2.839089    1.503239
  11 H     1.0000    0     1.008   -4.829588    1.954651    0.554686
  12 H     1.0000    0     1.008   -4.829588   -1.954653    0.554678
  13 H     1.0000    0     1.008   -0.573175   -0.000008    4.178324

--------------------------------
INTERNAL COORDINATES (ANGSTROEM)
--------------------------------
 P      0   0   0     0.000000000000     0.00000000     0.00000000
 Si     1   0   0     2.254941913229     0.00000000     0.00000000
 C      2   1   0     1.881703047606   111.47690154     0.00000000
 C      2   1   3     1.881701796995   111.47693439    86.41764742
 C      3   2   1     1.556160285762    86.64295072    91.29806086
 H      4   2   1     1.090904276098   111.31513057   157.29761002
 H      4   2   1     1.087130479322   121.78135877    27.38190529
 H      5   3   2     1.090106951900   109.81950826   265.72428206
 H      5   3   2     1.090221742448   114.43564358   144.84311892
 H      3   2   1     1.087129605024   121.78137927   332.61813819
 H      3   2   1     1.090904832534   111.31505395   202.70237798
 H      1   2   3     1.415250854493    94.73799354   183.96091599
 H      1   2   3     1.415250933258    94.73800559    89.62139496
 H      2   1   3     1.483985852118   112.03466412   223.20885426

---------------------------
INTERNAL COORDINATES (A.U.)
---------------------------
 P      0   0   0     0.000000000000     0.00000000     0.00000000
 Si     1   0   0     4.261222663903     0.00000000     0.00000000
 C      2   1   0     3.555903425339   111.47690154     0.00000000
 C      2   1   3     3.555901062028   111.47693439    86.41764742
 C      3   2   1     2.940716760576    86.64295072    91.29806086
 H      4   2   1     2.061510320149   111.31513057   157.29761002
 H      4   2   1     2.054378877756   121.78135877    27.38190529
 H      5   3   2     2.060003595775   109.81950826   265.72428206
 H      5   3   2     2.060220518473   114.43564358   144.84311892
 H      3   2   1     2.054377225574   121.78137927   332.61813819
 H      3   2   1     2.061511371660   111.31505395   202.70237798
 H      1   2   3     2.674436525790    94.73799354   183.96091599
 H      1   2   3     2.674436674635    94.73800559    89.62139496
 H      2   1   3     2.804326847117   112.03466412   223.20885426

---------------------
BASIS SET INFORMATION
---------------------
There are 4 groups of distinct atoms

 Group   1 Type P   : 35s16p2d contracted to 5s4p2d pattern {11111111/7711/11}
 Group   2 Type Si  : 35s16p2d contracted to 5s4p2d pattern {11111111/7711/11}
 Group   3 Type C   : 18s5p2d contracted to 4s3p2d pattern {8811/311/11}
 Group   4 Type H   : 5s2p contracted to 3s2p pattern {311/11}

Atom   0P    basis set group =>   1
Atom   1Si   basis set group =>   2
Atom   2C    basis set group =>   3
Atom   3C    basis set group =>   3
Atom   4C    basis set group =>   3
Atom   5H    basis set group =>   4
Atom   6H    basis set group =>   4
Atom   7H    basis set group =>   4
Atom   8H    basis set group =>   4
Atom   9H    basis set group =>   4
Atom  10H    basis set group =>   4
Atom  11H    basis set group =>   4
Atom  12H    basis set group =>   4
Atom  13H    basis set group =>   4
---------------------------------
AUXILIARY/C BASIS SET INFORMATION
---------------------------------
There are 4 groups of distinct atoms

 Group   1 Type P   : 10s8p6d4f contracted to 10s8p6d4f pattern {1111111111/11111111/111111/1111}
 Group   2 Type Si  : 10s8p6d4f contracted to 10s8p6d4f pattern {1111111111/11111111/111111/1111}
 Group   3 Type C   : 8s6p5d3f contracted to 8s6p5d3f pattern {11111111/111111/11111/111}
 Group   4 Type H   : 4s3p2d contracted to 4s3p2d pattern {1111/111/11}

Atom   0P    basis set group =>   1
Atom   1Si   basis set group =>   2
Atom   2C    basis set group =>   3
Atom   3C    basis set group =>   3
Atom   4C    basis set group =>   3
Atom   5H    basis set group =>   4
Atom   6H    basis set group =>   4
Atom   7H    basis set group =>   4
Atom   8H    basis set group =>   4
Atom   9H    basis set group =>   4
Atom  10H    basis set group =>   4
Atom  11H    basis set group =>   4
Atom  12H    basis set group =>   4
Atom  13H    basis set group =>   4


           ************************************************************
           *        Program running with 16 parallel MPI-processes    *
           *              working on a common directory               *
           ************************************************************
------------------------------------------------------------------------------
                           ORCA GTO INTEGRAL CALCULATION
------------------------------------------------------------------------------
------------------------------------------------------------------------------
                   ___                                                        
                  /   \      - P O W E R E D   B Y -                         
                 /     \                                                     
                 |  |  |   _    _      __       _____    __    __             
                 |  |  |  | |  | |    /  \     |  _  \  |  |  /  |          
                  \  \/   | |  | |   /    \    | | | |  |  | /  /          
                 / \  \   | |__| |  /  /\  \   | |_| |  |  |/  /          
                |  |  |   |  __  | /  /__\  \  |    /   |      \           
                |  |  |   | |  | | |   __   |  |    \   |  |\   \          
                \     /   | |  | | |  |  |  |  | |\  \  |  | \   \       
                 \___/    |_|  |_| |__|  |__|  |_| \__\ |__|  \__/        
                                                                              
                      - O R C A' S   B I G   F R I E N D -                    
                                      &                                       
                       - I N T E G R A L  F E E D E R -                       
                                                                              
 v1 FN, 2020, v2 2021                                                         
------------------------------------------------------------------------------


Reading SHARK input file DZ_P-Si_25_AB.SHARKINP.tmp ... ok
----------------------
SHARK INTEGRAL PACKAGE
----------------------

Number of atoms                             ...     14
Number of basis functions                   ...    268
Number of shells                            ...    138
Maximum angular momentum                    ...      2
Integral batch strategy                     ... SHARK/LIBINT Hybrid
RI-J (if used) integral strategy            ... SPLIT-RIJ (Revised 2003 algorithm where possible)
Printlevel                                  ...      1
Contraction scheme used                     ... PARTIAL GENERAL contraction
Coulomb Range Separation                    ... NOT USED
Exchange Range Separation                   ... NOT USED
Finite Nucleus Model                        ... NOT USED
Auxiliary Coulomb fitting basis             ... NOT available
Auxiliary J/K fitting basis                 ... NOT available
Auxiliary Correlation fitting basis         ... AVAILABLE
   # of basis functions in Aux-C            ...    607
   # of shells in Aux-C                     ...    203
   Maximum angular momentum in Aux-C        ...      3
Auxiliary 'external' fitting basis          ... NOT available
Integral threshold                          ...     2.500000e-11
Primitive cut-off                           ...     2.500000e-12
Primitive pair pre-selection threshold      ...     2.500000e-12

Calculating pre-screening integrals         ... done (  0.0 sec) Dimension = 138
Calculating pre-screening integrals (ORCA)  ... done (  0.1 sec) Dimension = 94
Organizing shell pair data                  ... done (  0.1 sec)
Shell pair information
Total number of shell pairs                 ...      9591
Shell pairs after pre-screening             ...      8370
Total number of primitive shell pairs       ...     13239
Primitive shell pairs kept                  ...     10659
          la=0 lb=0:   2797 shell pairs
          la=1 lb=0:   3267 shell pairs
          la=1 lb=1:    973 shell pairs
          la=2 lb=0:    828 shell pairs
          la=2 lb=1:    450 shell pairs
          la=2 lb=2:     55 shell pairs

Calculating one electron integrals          ... done (  0.0 sec)
Calculating RI/C V-Matrix + Cholesky decomp.... done (  0.5 sec)
Calculating Nuclear repulsion               ... done (  0.3 sec) ENN=    287.366610081442 Eh

SHARK setup successfully completed in   1.7 seconds

Maximum memory used throughout the entire GTOINT-calculation: 31.1 MB


           ************************************************************
           *        Program running with 16 parallel MPI-processes    *
           *              working on a common directory               *
           ************************************************************
-------------------------------------------------------------------------------
                                 ORCA SCF
-------------------------------------------------------------------------------

------------
SCF SETTINGS
------------
Hamiltonian:
 Ab initio Hamiltonian  Method          .... Hartree-Fock(GTOs)


General Settings:
 Integral files         IntName         .... DZ_P-Si_25_AB
 Hartree-Fock type      HFTyp           .... RHF
 Total Charge           Charge          ....    0
 Multiplicity           Mult            ....    1
 Number of Electrons    NEL             ....   56
 Basis Dimension        Dim             ....  204
 Nuclear Repulsion      ENuc            ....    287.3666100814 Eh

Convergence Acceleration:
 DIIS                   CNVDIIS         .... on
   Start iteration      DIISMaxIt       ....    12
   Startup error        DIISStart       ....  0.200000
   # of expansion vecs  DIISMaxEq       ....     5
   Bias factor          DIISBfac        ....   1.050
   Max. coefficient     DIISMaxC        ....  10.000
 Trust-Rad. Augm. Hess. CNVTRAH         .... auto
   Auto Start mean grad. ratio tolernc. ....  1.125000
   Auto Start start iteration           ....    20
   Auto Start num. interpolation iter.  ....    10
   Max. Number of Micro iterations      ....    16
   Max. Number of Macro iterations      .... Maxiter - #DIIS iter
   Number of Davidson start vectors     ....     2
   Converg. threshold I  (grad. norm)   ....   1.000e-05
   Converg. threshold II (energy diff.) ....   1.000e-08
   Grad. Scal. Fac. for Micro threshold ....   0.100
   Minimum threshold for Micro iter.    ....   0.010
   NR start threshold (gradient norm)   ....   0.001
   Initial trust radius                 ....   0.400
   Minimum AH scaling param. (alpha)    ....   1.000
   Maximum AH scaling param. (alpha)    .... 1000.000
   Orbital update algorithm             .... Taylor
   White noise on init. David. guess    .... on
   Maximum white noise                  ....   0.010
   Quad. conv. algorithm                .... NR
 SOSCF                  CNVSOSCF        .... on
   Start iteration      SOSCFMaxIt      ....   150
   Startup grad/error   SOSCFStart      ....  0.003300
 Level Shifting         CNVShift        .... on
   Level shift para.    LevelShift      ....    0.2500
   Turn off err/grad.   ShiftErr        ....    0.0010
 Zerner damping         CNVZerner       .... off
 Static damping         CNVDamp         .... on
   Fraction old density DampFac         ....    0.7000
   Max. Damping (<1)    DampMax         ....    0.9800
   Min. Damping (>=0)   DampMin         ....    0.0000
   Turn off err/grad.   DampErr         ....    0.1000
 Fernandez-Rico         CNVRico         .... off

SCF Procedure:
 Maximum # iterations   MaxIter         ....   125
 SCF integral mode      SCFMode         .... Direct
   Integral package                     .... SHARK and LIBINT hybrid scheme
 Reset frequency        DirectResetFreq ....    20
 Integral Threshold     Thresh          ....  2.500e-11 Eh
 Primitive CutOff       TCut            ....  2.500e-12 Eh

Convergence Tolerance:
 Convergence Check Mode ConvCheckMode   .... Total+1el-Energy
 Convergence forced     ConvForced      .... 1
 Energy Change          TolE            ....  1.000e-08 Eh
 1-El. energy change                    ....  1.000e-05 Eh
 Orbital Gradient       TolG            ....  1.000e-05
 Orbital Rotation angle TolX            ....  1.000e-05
 DIIS Error             TolErr          ....  5.000e-07


Diagonalization of the overlap matrix:
Smallest eigenvalue                        ... 3.518e-05
Time for diagonalization                   ...    0.004 sec
Threshold for overlap eigenvalues          ... 1.000e-08
Number of eigenvalues below threshold      ... 0
Time for construction of square roots      ...    0.057 sec
Total time needed                          ...    0.062 sec

Time for model grid setup =    0.176 sec

------------------------------
INITIAL GUESS: MODEL POTENTIAL
------------------------------
Loading Hartree-Fock densities                     ... done
Calculating cut-offs                               ... done
Initializing the effective Hamiltonian             ... done
Setting up the integral package (SHARK)            ... done
Starting the Coulomb interaction                   ... done (   0.4 sec)
Reading the grid                                   ... done
Mapping shells                                     ... done
Starting the XC term evaluation                    ... done (   0.0 sec)
Transforming the Hamiltonian                       ... done (   0.1 sec)
Diagonalizing the Hamiltonian                      ... done (   0.0 sec)
Back transforming the eigenvectors                 ... done (   0.0 sec)
Now organizing SCF variables                       ... done
                      ------------------
                      INITIAL GUESS DONE (   0.8 sec)
                      ------------------
--------------
SCF ITERATIONS
--------------
ITER       Energy         Delta-E        Max-DP      RMS-DP      [F,P]     Damp
               ***  Starting incremental Fock matrix formation  ***
  0   -748.2466851974   0.000000000000 0.14834558  0.00441831  0.1837517 0.7000
  1   -748.3401752197  -0.093490022306 0.11638853  0.00327082  0.1161347 0.7000
                               ***Turning on DIIS***
  2   -748.3954491606  -0.055273940881 0.28742702  0.00766188  0.0658596 0.0000
  3   -747.8881991430   0.507250017598 0.03180878  0.00086986  0.0356654 0.0000
  4   -748.4618159165  -0.573616773484 0.02346104  0.00042779  0.0061600 0.0000
                      *** Initiating the SOSCF procedure ***
                           *** Shutting down DIIS ***
                      *** Re-Reading the Fockian *** 
                      *** Removing any level shift *** 
ITER      Energy       Delta-E        Grad      Rot      Max-DP    RMS-DP
  5   -748.49653629  -0.0347203708  0.001538  0.001538  0.007955  0.000152
               *** Restarting incremental Fock matrix formation ***
  6   -748.50861783  -0.0120815433  0.000408  0.000880  0.002090  0.000072
  7   -748.50863759  -0.0000197591  0.000148  0.000583  0.001761  0.000048
  8   -748.50864131  -0.0000037194  0.000062  0.000042  0.000234  0.000008
  9   -748.50864150  -0.0000001878  0.000016  0.000019  0.000073  0.000002
 10   -748.50864151  -0.0000000137  0.000004  0.000008  0.000018  0.000001
                 **** Energy Check signals convergence ****
              ***Rediagonalizing the Fockian in SOSCF/NRSCF***

               *****************************************************
               *                     SUCCESS                       *
               *           SCF CONVERGED AFTER  11 CYCLES          *
               *****************************************************


------------------------------------------------------------------------------
                          SCF STABILITY ANALYSIS                              
------------------------------------------------------------------------------


                       ****Iteration    0****

   Memory handling for direct AO based CIS:
   Memory per vector needed      ...     1 MB
   Memory needed                 ...     5 MB
   Memory available              ...  3800 MB
   Number of vectors per batch   ...  3800
   Number of batches             ...     1
   Time for densities:     0.002
   Using LibInt in JK Direct
   Time for K (Direct):     2.812
   Time for Sigma-Completion:     0.278
   Lowest Energy          :     0.268071930605
   Maximum Energy change  :     0.301630950814 (vector 2)
   Maximum residual norm  :     0.003581668411

                       ****Iteration    1****
   Time for densities:     0.001
   Using LibInt in JK Direct
   Time for K (Direct):     1.931
   Time for Sigma-Completion:     0.132
   Lowest Energy          :     0.228822838922
   Maximum Energy change  :     0.066385562672 (vector 1)
   Maximum residual norm  :     0.008996277580

                       ****Iteration    2****
   Time for densities:     0.001
   Using LibInt in JK Direct
   Time for K (Direct):     1.930
   Time for Sigma-Completion:     0.205
   Lowest Energy          :     0.153505834770
   Maximum Energy change  :     0.075317004152 (vector 0)
   Maximum residual norm  :     0.004416181732

                       ****Iteration    3****
   Time for densities:     0.001
   Using LibInt in JK Direct
   Time for K (Direct):     1.920
   Time for Sigma-Completion:     0.078
   Lowest Energy          :     0.141131214558
   Maximum Energy change  :     0.029525103182 (vector 2)
   Maximum residual norm  :     0.002824683563

                       ****Iteration    4****
   Time for densities:     0.001
   Using LibInt in JK Direct
   Time for K (Direct):     1.917
   Time for Sigma-Completion:     0.088
   Lowest Energy          :     0.139292971662
   Maximum Energy change  :     0.013429027281 (vector 1)
   Maximum residual norm  :     0.003878915902

                       ****Iteration    5****
   Time for densities:     0.001
   Using LibInt in JK Direct
   Time for K (Direct):     1.973
   Time for Sigma-Completion:     0.144
   Lowest Energy          :     0.138961249989
   Maximum Energy change  :     0.039858835313 (vector 1)
   Maximum residual norm  :     0.005179172516

                       ****Iteration    6****
   Time for densities:     0.001
   Using LibInt in JK Direct
   Time for K (Direct):     1.937
   Time for Sigma-Completion:     0.031
   Lowest Energy          :     0.138872106197
   Maximum Energy change  :     0.015150219110 (vector 1)
   Maximum residual norm  :     0.001878684992

                       ****Iteration    7****
   Time for densities:     0.001
   Using LibInt in JK Direct
   Time for K (Direct):     1.917
   Time for Sigma-Completion:     0.055
   Lowest Energy          :     0.138853401459
   Maximum Energy change  :     0.006483031417 (vector 1)
   Maximum residual norm  :     0.000803768529

                       ****Iteration    8****
   Time for densities:     0.001
   Using LibInt in JK Direct
   Time for K (Direct):     1.937
   Time for Sigma-Completion:     0.156
   Lowest Energy          :     0.138847189869
   Maximum Energy change  :     0.001870085950 (vector 1)
   Maximum residual norm  :     0.000226875687

                       ****Iteration    9****
   Time for densities:     0.001
   Using LibInt in JK Direct
   Time for K (Direct):     1.933
   Time for Sigma-Completion:     0.122
   Lowest Energy          :     0.138845862816
   Maximum Energy change  :     0.000489442686 (vector 1)
   Maximum residual norm  :     0.000054896659

      *** CONVERGENCE OF RESIDUAL NORM REACHED ***

----------------------------- 
SCF STABILITY ANALYSIS RESULT 
----------------------------- 

RHF/RKS->UHF/UKS - triplet - external

   Root    Eigenvalue (au) 
     0       0.138846 
     1       0.140112 
     2       0.198932 

Stability Analysis indicates a stable HF/KS wave function.


Total time for performing the stability analysis:    23.767sec


----------------
TOTAL SCF ENERGY
----------------

Total Energy       :         -748.50864151 Eh          -20367.95562 eV

Components:
Nuclear Repulsion  :          287.36661008 Eh            7819.64300 eV
Electronic Energy  :        -1035.87525160 Eh          -28187.59863 eV
One Electron Energy:        -1603.80658008 Eh          -43641.79575 eV
Two Electron Energy:          567.93132848 Eh           15454.19712 eV

Virial components:
Potential Energy   :        -1496.93791856 Eh          -40733.75163 eV
Kinetic Energy     :          748.42927704 Eh           20365.79601 eV
Virial Ratio       :            2.00010604


---------------
SCF CONVERGENCE
---------------

  Last Energy change         ...   -4.1650e-09  Tolerance :   1.0000e-08
  Last MAX-Density change    ...    5.3115e-06  Tolerance :   1.0000e-07
  Last RMS-Density change    ...    1.8020e-07  Tolerance :   5.0000e-09
  Last Orbital Gradient      ...    1.5576e-06  Tolerance :   1.0000e-05
  Last Orbital Rotation      ...    4.1746e-06  Tolerance :   1.0000e-05

             **** THE GBW FILE WAS UPDATED (DZ_P-Si_25_AB.gbw) ****
             **** DENSITY DZ_P-Si_25_AB.scfp WAS UPDATED ****
             **** ENERGY FILE WAS UPDATED (DZ_P-Si_25_AB.en.tmp) ****
             **** THE GBW FILE WAS UPDATED (DZ_P-Si_25_AB.gbw) ****
             **** DENSITY DZ_P-Si_25_AB.scfp WAS UPDATED ****
----------------
ORBITAL ENERGIES
----------------

  NO   OCC          E(Eh)            E(eV) 
   0   2.0000     -79.937120     -2175.1996 
   1   2.0000     -68.781891     -1871.6504 
   2   2.0000     -11.236152      -305.7513 
   3   2.0000     -11.211692      -305.0856 
   4   2.0000     -11.211672      -305.0851 
   5   2.0000      -7.479762      -203.5347 
   6   2.0000      -6.129590      -166.7946 
   7   2.0000      -5.373802      -146.2286 
   8   2.0000      -5.373272      -146.2142 
   9   2.0000      -5.372337      -146.1887 
  10   2.0000      -4.235844      -115.2632 
  11   2.0000      -4.235328      -115.2491 
  12   2.0000      -4.234581      -115.2288 
  13   2.0000      -1.073854       -29.2211 
  14   2.0000      -0.900421       -24.5017 
  15   2.0000      -0.853093       -23.2138 
  16   2.0000      -0.802689       -21.8423 
  17   2.0000      -0.666265       -18.1300 
  18   2.0000      -0.629390       -17.1266 
  19   2.0000      -0.584908       -15.9162 
  20   2.0000      -0.544843       -14.8259 
  21   2.0000      -0.521778       -14.1983 
  22   2.0000      -0.487339       -13.2612 
  23   2.0000      -0.476243       -12.9592 
  24   2.0000      -0.454595       -12.3702 
  25   2.0000      -0.415360       -11.3025 
  26   2.0000      -0.389109       -10.5882 
  27   2.0000      -0.359036        -9.7699 
  28   0.0000       0.033059         0.8996 
  29   0.0000       0.045896         1.2489 
  30   0.0000       0.046365         1.2617 
  31   0.0000       0.048620         1.3230 
  32   0.0000       0.064687         1.7602 
  33   0.0000       0.066689         1.8147 
  34   0.0000       0.067398         1.8340 
  35   0.0000       0.072478         1.9722 
  36   0.0000       0.075423         2.0524 
  37   0.0000       0.096340         2.6215 
  38   0.0000       0.104386         2.8405 
  39   0.0000       0.109745         2.9863 
  40   0.0000       0.112246         3.0544 
  41   0.0000       0.124389         3.3848 
  42   0.0000       0.125692         3.4202 
  43   0.0000       0.136374         3.7109 
  44   0.0000       0.144025         3.9191 
  45   0.0000       0.156649         4.2626 
  46   0.0000       0.160973         4.3803 
  47   0.0000       0.169060         4.6004 
  48   0.0000       0.175793         4.7836 
  49   0.0000       0.176044         4.7904 
  50   0.0000       0.180492         4.9114 
  51   0.0000       0.182754         4.9730 
  52   0.0000       0.184138         5.0106 
  53   0.0000       0.198421         5.3993 
  54   0.0000       0.203716         5.5434 
  55   0.0000       0.206255         5.6125 
  56   0.0000       0.212761         5.7895 
  57   0.0000       0.215756         5.8710 
  58   0.0000       0.221554         6.0288 
  59   0.0000       0.244901         6.6641 
  60   0.0000       0.258680         7.0390 
  61   0.0000       0.265167         7.2156 
  62   0.0000       0.287335         7.8188 
  63   0.0000       0.290167         7.8958 
  64   0.0000       0.322044         8.7633 
  65   0.0000       0.341745         9.2994 
  66   0.0000       0.355259         9.6671 
  67   0.0000       0.355816         9.6822 
  68   0.0000       0.367177         9.9914 
  69   0.0000       0.383131        10.4255 
  70   0.0000       0.388245        10.5647 
  71   0.0000       0.398686        10.8488 
  72   0.0000       0.414368        11.2755 
  73   0.0000       0.424856        11.5609 
  74   0.0000       0.430769        11.7218 
  75   0.0000       0.432522        11.7695 
  76   0.0000       0.441311        12.0087 
  77   0.0000       0.447500        12.1771 
  78   0.0000       0.447566        12.1789 
  79   0.0000       0.460105        12.5201 
  80   0.0000       0.463599        12.6152 
  81   0.0000       0.467139        12.7115 
  82   0.0000       0.472982        12.8705 
  83   0.0000       0.475541        12.9401 
  84   0.0000       0.479875        13.0581 
  85   0.0000       0.492423        13.3995 
  86   0.0000       0.498651        13.5690 
  87   0.0000       0.511110        13.9080 
  88   0.0000       0.518215        14.1014 
  89   0.0000       0.532191        14.4816 
  90   0.0000       0.534309        14.5393 
  91   0.0000       0.542725        14.7683 
  92   0.0000       0.567873        15.4526 
  93   0.0000       0.578202        15.7337 
  94   0.0000       0.578724        15.7479 
  95   0.0000       0.602009        16.3815 
  96   0.0000       0.602031        16.3821 
  97   0.0000       0.606605        16.5066 
  98   0.0000       0.612521        16.6676 
  99   0.0000       0.624030        16.9807 
 100   0.0000       0.628629        17.1059 
 101   0.0000       0.642626        17.4868 
 102   0.0000       0.650145        17.6913 
 103   0.0000       0.654691        17.8150 
 104   0.0000       0.683700        18.6044 
 105   0.0000       0.693122        18.8608 
 106   0.0000       0.706837        19.2340 
 107   0.0000       0.713613        19.4184 
 108   0.0000       0.719380        19.5753 
 109   0.0000       0.753260        20.4972 
 110   0.0000       0.755593        20.5607 
 111   0.0000       0.757574        20.6146 
 112   0.0000       0.762367        20.7451 
 113   0.0000       0.774456        21.0740 
 114   0.0000       0.793119        21.5819 
 115   0.0000       0.803482        21.8638 
 116   0.0000       0.820460        22.3259 
 117   0.0000       0.831246        22.6194 
 118   0.0000       0.846346        23.0303 
 119   0.0000       0.861498        23.4426 
 120   0.0000       0.869850        23.6698 
 121   0.0000       0.884038        24.0559 
 122   0.0000       0.896121        24.3847 
 123   0.0000       0.907856        24.7040 
 124   0.0000       0.939349        25.5610 
 125   0.0000       0.946813        25.7641 
 126   0.0000       0.957096        26.0439 
 127   0.0000       0.969439        26.3798 
 128   0.0000       0.981608        26.7109 
 129   0.0000       0.988341        26.8941 
 130   0.0000       1.016413        27.6580 
 131   0.0000       1.033972        28.1358 
 132   0.0000       1.061750        28.8917 
 133   0.0000       1.064539        28.9676 
 134   0.0000       1.086364        29.5615 
 135   0.0000       1.102912        30.0118 
 136   0.0000       1.115385        30.3512 
 137   0.0000       1.127086        30.6696 
 138   0.0000       1.129019        30.7222 
 139   0.0000       1.173392        31.9296 
 140   0.0000       1.177274        32.0353 
 141   0.0000       1.209074        32.9006 
 142   0.0000       1.258394        34.2426 
 143   0.0000       1.272661        34.6309 
 144   0.0000       1.282100        34.8877 
 145   0.0000       1.325733        36.0750 
 146   0.0000       1.328313        36.1452 
 147   0.0000       1.357841        36.9487 
 148   0.0000       1.394508        37.9465 
 149   0.0000       1.415305        38.5124 
 150   0.0000       1.425601        38.7926 
 151   0.0000       1.503835        40.9214 
 152   0.0000       1.525307        41.5057 
 153   0.0000       1.530837        41.6562 
 154   0.0000       1.577747        42.9327 
 155   0.0000       1.694474        46.1090 
 156   0.0000       1.747453        47.5506 
 157   0.0000       1.749184        47.5977 
 158   0.0000       1.790148        48.7124 
 159   0.0000       1.814496        49.3750 
 160   0.0000       1.836343        49.9694 
 161   0.0000       1.858134        50.5624 
 162   0.0000       1.892668        51.5021 
 163   0.0000       1.940383        52.8005 
 164   0.0000       1.942118        52.8477 
 165   0.0000       1.955606        53.2147 
 166   0.0000       1.964206        53.4488 
 167   0.0000       2.012670        54.7675 
 168   0.0000       2.026228        55.1365 
 169   0.0000       2.043031        55.5937 
 170   0.0000       2.067652        56.2637 
 171   0.0000       2.076419        56.5022 
 172   0.0000       2.094594        56.9968 
 173   0.0000       2.101906        57.1958 
 174   0.0000       2.108301        57.3698 
 175   0.0000       2.165012        58.9130 
 176   0.0000       2.185886        59.4810 
 177   0.0000       2.190401        59.6038 
 178   0.0000       2.226307        60.5809 
 179   0.0000       2.268952        61.7413 
 180   0.0000       2.279407        62.0258 
 181   0.0000       2.330419        63.4139 
 182   0.0000       2.334420        63.5228 
 183   0.0000       2.366139        64.3859 
 184   0.0000       2.368037        64.4376 
 185   0.0000       2.393077        65.1189 
 186   0.0000       2.412675        65.6522 
 187   0.0000       2.429576        66.1121 
 188   0.0000       2.456727        66.8509 
 189   0.0000       2.490070        67.7582 
 190   0.0000       2.519959        68.5716 
 191   0.0000       2.576460        70.1090 
 192   0.0000       2.648545        72.0706 
 193   0.0000       2.649485        72.0961 
 194   0.0000       2.780051        75.6490 
 195   0.0000       2.835867        77.1679 
 196   0.0000       2.870732        78.1166 
 197   0.0000       2.930812        79.7515 
 198   0.0000       2.958272        80.4987 
 199   0.0000       2.997821        81.5749 
 200   0.0000       3.027052        82.3703 
 201   0.0000       3.091381        84.1208 
 202   0.0000       3.241446        88.2042 
 203   0.0000       3.395501        92.3963 

                    ********************************
                    * MULLIKEN POPULATION ANALYSIS *
                    ********************************

-----------------------
MULLIKEN ATOMIC CHARGES
-----------------------
   0 P :   -0.790472
   1 Si:    0.787142
   2 C :    0.379848
   3 C :    0.379846
   4 C :    0.247721
   5 H :   -0.305342
   6 H :   -0.263621
   7 H :   -0.246296
   8 H :   -0.169947
   9 H :   -0.263624
  10 H :   -0.305340
  11 H :    0.246264
  12 H :    0.246264
  13 H :    0.057557
Sum of atomic charges:    0.0000000

--------------------------------
MULLIKEN REDUCED ORBITAL CHARGES
--------------------------------
  0 P s       :     5.704636  s :     5.704636
      pz      :     3.478231  p :     9.862005
      px      :     3.217361
      py      :     3.166413
      dz2     :     0.001267  d :     0.223831
      dxz     :     0.057559
      dyz     :     0.099129
      dx2y2   :     0.034229
      dxy     :     0.031647
  1 Sis       :     4.622173  s :     4.622173
      pz      :     2.849321  p :     8.259078
      px      :     2.828483
      py      :     2.581274
      dz2     :     0.124301  d :     0.331606
      dxz     :     0.077417
      dyz     :     0.019517
      dx2y2   :     0.033531
      dxy     :     0.076841
  2 C s       :     2.714757  s :     2.714757
      pz      :     0.964347  p :     2.919446
      px      :     1.054329
      py      :     0.900770
      dz2     :     0.009574  d :    -0.014051
      dxz     :    -0.012220
      dyz     :     0.014816
      dx2y2   :    -0.041198
      dxy     :     0.014978
  3 C s       :     2.714758  s :     2.714758
      pz      :     0.964348  p :     2.919446
      px      :     1.054328
      py      :     0.900770
      dz2     :     0.009574  d :    -0.014051
      dxz     :    -0.012220
      dyz     :     0.014816
      dx2y2   :    -0.041198
      dxy     :     0.014978
  4 C s       :     2.838574  s :     2.838574
      pz      :     0.952120  p :     2.868530
      px      :     0.858913
      py      :     1.057496
      dz2     :    -0.021130  d :     0.045175
      dxz     :    -0.009199
      dyz     :     0.055350
      dx2y2   :    -0.002743
      dxy     :     0.022897
  5 H s       :     1.309249  s :     1.309249
      pz      :    -0.010915  p :    -0.003907
      px      :     0.019900
      py      :    -0.012893
  6 H s       :     1.279351  s :     1.279351
      pz      :    -0.008755  p :    -0.015730
      px      :    -0.018226
      py      :     0.011251
  7 H s       :     1.250727  s :     1.250727
      pz      :     0.026062  p :    -0.004431
      px      :    -0.014287
      py      :    -0.016207
  8 H s       :     1.201601  s :     1.201601
      pz      :    -0.019650  p :    -0.031654
      px      :    -0.008299
      py      :    -0.003706
  9 H s       :     1.279354  s :     1.279354
      pz      :    -0.008755  p :    -0.015730
      px      :    -0.018226
      py      :     0.011251
 10 H s       :     1.309247  s :     1.309247
      pz      :    -0.010915  p :    -0.003907
      px      :     0.019900
      py      :    -0.012893
 11 H s       :     0.737057  s :     0.737057
      pz      :    -0.000077  p :     0.016680
      px      :    -0.005456
      py      :     0.022212
 12 H s       :     0.737057  s :     0.737057
      pz      :    -0.000077  p :     0.016680
      px      :    -0.005456
      py      :     0.022212
 13 H s       :     0.889709  s :     0.889709
      pz      :     0.039304  p :     0.052734
      px      :     0.008353
      py      :     0.005077


                     *******************************
                     * LOEWDIN POPULATION ANALYSIS *
                     *******************************

----------------------
LOEWDIN ATOMIC CHARGES
----------------------
   0 P :    0.541369
   1 Si:    0.624294
   2 C :   -0.135146
   3 C :   -0.135147
   4 C :   -0.151906
   5 H :   -0.049304
   6 H :   -0.052572
   7 H :   -0.003687
   8 H :   -0.006686
   9 H :   -0.052572
  10 H :   -0.049303
  11 H :   -0.209826
  12 H :   -0.209826
  13 H :   -0.109687

-------------------------------
LOEWDIN REDUCED ORBITAL CHARGES
-------------------------------
  0 P s       :     4.972364  s :     4.972364
      pz      :     3.313235  p :     9.136530
      px      :     2.959652
      py      :     2.863643
      dz2     :     0.025715  d :     0.349737
      dxz     :     0.090071
      dyz     :     0.094618
      dx2y2   :     0.057303
      dxy     :     0.082030
  1 Sis       :     4.460727  s :     4.460727
      pz      :     2.686070  p :     7.848572
      px      :     2.618027
      py      :     2.544475
      dz2     :     0.296134  d :     1.066407
      dxz     :     0.253078
      dyz     :     0.104740
      dx2y2   :     0.173774
      dxy     :     0.238681
  2 C s       :     2.638019  s :     2.638019
      pz      :     0.950673  p :     2.901723
      px      :     0.991477
      py      :     0.959573
      dz2     :     0.089637  d :     0.595404
      dxz     :     0.112247
      dyz     :     0.143154
      dx2y2   :     0.124406
      dxy     :     0.125960
  3 C s       :     2.638019  s :     2.638019
      pz      :     0.950673  p :     2.901723
      px      :     0.991477
      py      :     0.959574
      dz2     :     0.089638  d :     0.595404
      dxz     :     0.112247
      dyz     :     0.143154
      dx2y2   :     0.124406
      dxy     :     0.125960
  4 C s       :     2.585842  s :     2.585842
      pz      :     0.917507  p :     2.748352
      px      :     0.940338
      py      :     0.890507
      dz2     :     0.167303  d :     0.817712
      dxz     :     0.137246
      dyz     :     0.166716
      dx2y2   :     0.205456
      dxy     :     0.140991
  5 H s       :     0.749195  s :     0.749195
      pz      :     0.108468  p :     0.300109
      px      :     0.117858
      py      :     0.073784
  6 H s       :     0.758054  s :     0.758054
      pz      :     0.094524  p :     0.294518
      px      :     0.087989
      py      :     0.112004
  7 H s       :     0.735527  s :     0.735527
      pz      :     0.121170  p :     0.268160
      px      :     0.086536
      py      :     0.060453
  8 H s       :     0.745382  s :     0.745382
      pz      :     0.066908  p :     0.261304
      px      :     0.134190
      py      :     0.060206
  9 H s       :     0.758054  s :     0.758054
      pz      :     0.094525  p :     0.294518
      px      :     0.087989
      py      :     0.112004
 10 H s       :     0.749195  s :     0.749195
      pz      :     0.108467  p :     0.300109
      px      :     0.117858
      py      :     0.073783
 11 H s       :     0.882417  s :     0.882417
      pz      :     0.135232  p :     0.327409
      px      :     0.088337
      py      :     0.103839
 12 H s       :     0.882417  s :     0.882417
      pz      :     0.135232  p :     0.327408
      px      :     0.088337
      py      :     0.103840
 13 H s       :     0.946201  s :     0.946201
      pz      :     0.108480  p :     0.163486
      px      :     0.030022
      py      :     0.024984


                      *****************************
                      * MAYER POPULATION ANALYSIS *
                      *****************************

  NA   - Mulliken gross atomic population
  ZA   - Total nuclear charge
  QA   - Mulliken gross atomic charge
  VA   - Mayer's total valence
  BVA  - Mayer's bonded valence
  FA   - Mayer's free valence

  ATOM       NA         ZA         QA         VA         BVA        FA
  0 P     15.7905    15.0000    -0.7905     2.8813     2.8813     0.0000
  1 Si    13.2129    14.0000     0.7871     3.5823     3.5823     0.0000
  2 C      5.6202     6.0000     0.3798     3.6785     3.6785     0.0000
  3 C      5.6202     6.0000     0.3798     3.6785     3.6785     0.0000
  4 C      5.7523     6.0000     0.2477     4.3404     4.3404     0.0000
  5 H      1.3053     1.0000    -0.3053     0.7917     0.7917     0.0000
  6 H      1.2636     1.0000    -0.2636     0.7648     0.7648    -0.0000
  7 H      1.2463     1.0000    -0.2463     0.7629     0.7629     0.0000
  8 H      1.1699     1.0000    -0.1699     0.7315     0.7315     0.0000
  9 H      1.2636     1.0000    -0.2636     0.7648     0.7648     0.0000
 10 H      1.3053     1.0000    -0.3053     0.7917     0.7917    -0.0000
 11 H      0.7537     1.0000     0.2463     0.9423     0.9423    -0.0000
 12 H      0.7537     1.0000     0.2463     0.9423     0.9423     0.0000
 13 H      0.9424     1.0000     0.0576     1.1718     1.1718     0.0000

  Mayer bond orders larger than 0.100000
B(  0-P ,  1-Si) :   0.9631 B(  0-P , 11-H ) :   0.9105 B(  0-P , 12-H ) :   0.9105 
B(  1-Si,  2-C ) :   0.8874 B(  1-Si,  3-C ) :   0.8874 B(  1-Si, 13-H ) :   0.9158 
B(  2-C ,  4-C ) :   1.0968 B(  2-C ,  9-H ) :   0.8231 B(  2-C , 10-H ) :   0.8706 
B(  3-C ,  4-C ) :   1.0968 B(  3-C ,  5-H ) :   0.8706 B(  3-C ,  6-H ) :   0.8231 
B(  4-C ,  7-H ) :   0.8448 B(  4-C ,  8-H ) :   0.8842 B(  5-H ,  6-H ) :  -0.1089 
B(  7-H ,  8-H ) :  -0.1498 B(  9-H , 10-H ) :  -0.1089 

-------
TIMINGS
-------

Total SCF time: 0 days 0 hours 0 min 38 sec 

Total time                  ....      38.623 sec
Sum of individual times     ....      36.783 sec  ( 95.2%)

Fock matrix formation       ....       9.757 sec  ( 25.3%)
Diagonalization             ....       0.574 sec  (  1.5%)
Density matrix formation    ....       0.067 sec  (  0.2%)
Population analysis         ....       1.413 sec  (  3.7%)
Initial guess               ....       0.600 sec  (  1.6%)
Orbital Transformation      ....       0.000 sec  (  0.0%)
Orbital Orthonormalization  ....       0.000 sec  (  0.0%)
DIIS solution               ....       0.321 sec  (  0.8%)
SOSCF solution              ....       0.109 sec  (  0.3%)
SCF Stability Analysis      ....      23.767 sec  ( 61.5%)

Maximum memory used throughout the entire SCF-calculation: 232.5 MB


           ************************************************************
           *        Program running with 16 parallel MPI-processes    *
           *              working on a common directory               *
           ************************************************************

------------------------------------------------------------------------------
                                ORCA  MP2 
------------------------------------------------------------------------------

Freezing NCore=26 chemical core electrons

-------------
RI-MP2 ENERGY
-------------
Dimension of the basis                    ...  204
Memory devoted to MP2                     ... 3800 MB   
Data format for buffers                   ... DOUBLE
Compression type for matrix containers    ... UNCOMPRESSED
Overall scaling of the MP2 energy         ...   1.000e+00
Calculating two index integrals           ... done (    0.003 sec)
Cholesky decomposition of V**-1           ... done (    0.064 sec)

-----------------
RI-TRANSFORMATION (AUX index driven)
-----------------

Dimension of the orbital-basis         ... 204
Dimension of the aux-basis             ... 607
Transformation of internal/external MOs...   13-  27 to   28- 203
Number Format for Storage              ... Double (8 Byte)
Integral mode                          ... Direct

First Phase: integral generation and transformation of MO indices
  Aux angular momentum 0               ... done (    0.009 sec)
  Aux angular momentum 1               ... done (    0.011 sec)
  Aux angular momentum 2               ... done (    0.012 sec)
  Aux angular momentum 3               ... done (    0.011 sec)
Closing buffer VIA ( 0.01 GB; CompressionRatio= 1.00)
  Phase 1 completed in     0.333 sec
Second Phase: sorting and transformation of aux index

IA-Transformation
Memory available                       ... 3754 MB 
Max. # MO pairs treated in a batch     ... 1    
# of internal orbitals                 ... 15
# batches for internal orbitals        ... 1
Closing buffer IAV ( 0.01 GB; CompressionRatio= 1.00)
(ia|v) transformation done in     4.039 sec

  Phase 2 completed in     4.425 sec
RI-Integral transformation completed in     4.945 sec
Opening buffers                              ... done

Starting loop over batches of integrals:

Operator 0  - window                       ... ( 13- 27)x( 28-203)
Operator 0  - Memory available             ...  3800 MB
Operator 0  - Memory needed per MO         ...   0.8 MB
Operator 0  - Number of orbitals per batch ... 1
Operator 0  - Number of batches            ... 1

OPERATOR  0   PASS   0:  MOs    13 ...   13 +   14 ...   14 +   15 ...   15 +   16 ...   16
                            +   17 ...   17 +   18 ...   18 +   19 ...   19 +   20 ...   20
                            +   21 ...   21 +   22 ...   22 +   23 ...   23 +   24 ...   24
                            +   25 ...   25 +   26 ...   26 +   27 ...   27
  Reading integrals       ... ok
Time spent in pair loops =     0.025 sec
Deleting buffer (Ka|jb)[aa] ...done

-----------------------------------------------
 RI-MP2 CORRELATION ENERGY:     -0.675627268 Eh
-----------------------------------------------


-------
TIMINGS
-------

Total time                :    5.366 sec
Integral trafo            :    4.956 sec ( 92.4%)
I/O of integrals          :    0.000 sec (  0.0%)
K(i,j) Operators          :    0.001 sec (  0.0%)
T(i,j) pair energies      :    0.000 sec (  0.0%)
V-calculation             :    0.003 sec (  0.1%)
V**(-1/2)                 :    0.064 sec (  1.2%)
Gamma(ia|P)               :    0.000 sec (  0.0%)
Gamma-Trafo               :    0.000 sec (  0.0%)
D(virtual)                :    0.000 sec (  0.0%)
D(internal)               :    0.000 sec (  0.0%)
W(virtual)                :    0.000 sec (  0.0%)
W(internal)               :    0.000 sec (  0.0%)
L(virtual)                :    0.000 sec (  0.0%)
L(internal)               :    0.000 sec (  0.0%)
G(D)                      :    0.000 sec (  0.0%)
G(Z)                      :    0.000 sec (  0.0%)
Z-Vector Solution         :    0.000 sec (  0.0%)
3-Index Derivative        :    0.000 sec (  0.0%)
2-Index Derivative        :    0.000 sec (  0.0%)
Separable Gradient        :    0.000 sec (  0.0%)


---------------------------------------
MP2 TOTAL ENERGY:     -749.184268783 Eh
---------------------------------------

Maximum memory used throughout the entire MP2-calculation: 91.2 MB

-------------------------   --------------------
FINAL SINGLE POINT ENERGY      -749.184268782749
-------------------------   --------------------


                            ***************************************
                            *     ORCA property calculations      *
                            ***************************************


  WARNING: The energy has been calculated at the MP2 level but the densities
           used in the property calculations are still SCF densities
           MP2 response densities have not been calculated 
           use %mp2 Density relaxed end
           or  %mp2 Density unrelaxed end

                                    ---------------------
                                    Active property flags
                                    ---------------------
   (+) Dipole Moment


------------------------------------------------------------------------------
                       ORCA ELECTRIC PROPERTIES CALCULATION
------------------------------------------------------------------------------

Dipole Moment Calculation                       ... on
Quadrupole Moment Calculation                   ... off
Polarizability Calculation                      ... off
GBWName                                         ... DZ_P-Si_25_AB.gbw
Electron density                                ... DZ_P-Si_25_AB.scfp
The origin for moment calculation is the CENTER OF MASS  = (-0.113894,  0.000000 -0.017944)

-------------
DIPOLE MOMENT
-------------
                                X             Y             Z
Electronic contribution:     -6.12707       0.00000      -0.70881
Nuclear contribution   :      6.37808      -0.00000       1.00485
                        -----------------------------------------
Total Dipole Moment    :      0.25100       0.00000       0.29604
                        -----------------------------------------
Magnitude (a.u.)       :      0.38813
Magnitude (Debye)      :      0.98654



--------------------
Rotational spectrum 
--------------------
 
Rotational constants in cm-1:     0.185809     0.064028     0.061872 
Rotational constants in MHz :  5570.399334  1919.504557  1854.888680 

 Dipole components along the rotational axes: 
x,y,z [a.u.] :     0.260300    -0.000002     0.287898 
x,y,z [Debye]:     0.661630    -0.000004     0.731779 

 

Timings for individual modules:

Sum of individual times         ...       49.961 sec (=   0.833 min)
GTO integral calculation        ...        3.004 sec (=   0.050 min)   6.0 %
SCF iterations                  ...       39.801 sec (=   0.663 min)  79.7 %
MP2 module                      ...        7.156 sec (=   0.119 min)  14.3 %


                 $$$$$$$$$$$$$$$$  JOB NUMBER  2 $$$$$$$$$$$$$$


                       ****************************
                       * Single Point Calculation *
                       ****************************

---------------------------------
CARTESIAN COORDINATES (ANGSTROEM)
---------------------------------
  P     -1.944410    0.000001   -0.454375
  Si    -0.038602   -0.000001    0.750888
  C      1.225836   -1.198871    0.040456
  C      1.225836    1.198870    0.040461
  C      1.755614    0.000001   -0.798398
  H      1.952399    1.502378    0.795485
  H      0.926706    2.079151   -0.522992
  H      1.284630    0.000003   -1.781509
  H      2.834745    0.000002   -0.953510
  H      0.926706   -2.079149   -0.523000
  H      1.952399   -1.502381    0.795480
  H     -2.555708    1.034357    0.293527
  H     -2.555708   -1.034358    0.293523
  H     -0.303311   -0.000004    2.211074

----------------------------
CARTESIAN COORDINATES (A.U.)
----------------------------
  NO LB      ZA    FRAG     MASS         X           Y           Z
   0 P    15.0000    0    30.974   -3.674402    0.000002   -0.858644
   1 Si   14.0000    0    28.086   -0.072947   -0.000002    1.418973
   2 C     6.0000    0    12.011    2.316494   -2.265538    0.076451
   3 C     6.0000    0    12.011    2.316494    2.265536    0.076460
   4 C     6.0000    0    12.011    3.317630    0.000002   -1.508754
   5 H     1.0000    0     1.008    3.689499    2.839083    1.503249
   6 H     1.0000    0     1.008    1.751221    3.929026   -0.988312
   7 H     1.0000    0     1.008    2.427599    0.000006   -3.366564
   8 H     1.0000    0     1.008    5.356892    0.000004   -1.801873
   9 H     1.0000    0     1.008    1.751221   -3.929022   -0.988327
  10 H     1.0000    0     1.008    3.689499   -2.839089    1.503239
  11 H     1.0000    0     1.008   -4.829588    1.954651    0.554686
  12 H     1.0000    0     1.008   -4.829588   -1.954653    0.554678
  13 H     1.0000    0     1.008   -0.573175   -0.000008    4.178324

--------------------------------
INTERNAL COORDINATES (ANGSTROEM)
--------------------------------
 P      0   0   0     0.000000000000     0.00000000     0.00000000
 Si     1   0   0     2.254941913229     0.00000000     0.00000000
 C      2   1   0     1.881703047606   111.47690154     0.00000000
 C      2   1   3     1.881701796995   111.47693439    86.41764742
 C      3   2   1     1.556160285762    86.64295072    91.29806086
 H      4   2   1     1.090904276098   111.31513057   157.29761002
 H      4   2   1     1.087130479322   121.78135877    27.38190529
 H      5   3   2     1.090106951900   109.81950826   265.72428206
 H      5   3   2     1.090221742448   114.43564358   144.84311892
 H      3   2   1     1.087129605024   121.78137927   332.61813819
 H      3   2   1     1.090904832534   111.31505395   202.70237798
 H      1   2   3     1.415250854493    94.73799354   183.96091599
 H      1   2   3     1.415250933258    94.73800559    89.62139496
 H      2   1   3     1.483985852118   112.03466412   223.20885426

---------------------------
INTERNAL COORDINATES (A.U.)
---------------------------
 P      0   0   0     0.000000000000     0.00000000     0.00000000
 Si     1   0   0     4.261222663903     0.00000000     0.00000000
 C      2   1   0     3.555903425339   111.47690154     0.00000000
 C      2   1   3     3.555901062028   111.47693439    86.41764742
 C      3   2   1     2.940716760576    86.64295072    91.29806086
 H      4   2   1     2.061510320149   111.31513057   157.29761002
 H      4   2   1     2.054378877756   121.78135877    27.38190529
 H      5   3   2     2.060003595775   109.81950826   265.72428206
 H      5   3   2     2.060220518473   114.43564358   144.84311892
 H      3   2   1     2.054377225574   121.78137927   332.61813819
 H      3   2   1     2.061511371660   111.31505395   202.70237798
 H      1   2   3     2.674436525790    94.73799354   183.96091599
 H      1   2   3     2.674436674635    94.73800559    89.62139496
 H      2   1   3     2.804326847117   112.03466412   223.20885426

---------------------
BASIS SET INFORMATION
---------------------
There are 4 groups of distinct atoms

 Group   1 Type P   : 42s17p3d2f contracted to 6s5p3d2f pattern {131313111/77111/111/11}
 Group   2 Type Si  : 42s17p3d2f contracted to 6s5p3d2f pattern {131313111/77111/111/11}
 Group   3 Type C   : 19s6p3d2f contracted to 5s4p3d2f pattern {88111/3111/111/11}
 Group   4 Type H   : 6s3p2d contracted to 4s3p2d pattern {3111/111/11}

Atom   0P    basis set group =>   1
Atom   1Si   basis set group =>   2
Atom   2C    basis set group =>   3
Atom   3C    basis set group =>   3
Atom   4C    basis set group =>   3
Atom   5H    basis set group =>   4
Atom   6H    basis set group =>   4
Atom   7H    basis set group =>   4
Atom   8H    basis set group =>   4
Atom   9H    basis set group =>   4
Atom  10H    basis set group =>   4
Atom  11H    basis set group =>   4
Atom  12H    basis set group =>   4
Atom  13H    basis set group =>   4
---------------------------------
AUXILIARY/C BASIS SET INFORMATION
---------------------------------
There are 4 groups of distinct atoms

 Group   1 Type P   : 11s9p8d6f3g contracted to 11s9p8d6f3g pattern {11111111111/111111111/11111111/111111/111}
 Group   2 Type Si  : 11s9p8d6f3g contracted to 11s9p8d6f3g pattern {11111111111/111111111/11111111/111111/111}
 Group   3 Type C   : 9s7p6d4f2g contracted to 9s7p6d4f2g pattern {111111111/1111111/111111/1111/11}
 Group   4 Type H   : 5s4p3d2f contracted to 5s4p3d2f pattern {11111/1111/111/11}

Atom   0P    basis set group =>   1
Atom   1Si   basis set group =>   2
Atom   2C    basis set group =>   3
Atom   3C    basis set group =>   3
Atom   4C    basis set group =>   3
Atom   5H    basis set group =>   4
Atom   6H    basis set group =>   4
Atom   7H    basis set group =>   4
Atom   8H    basis set group =>   4
Atom   9H    basis set group =>   4
Atom  10H    basis set group =>   4
Atom  11H    basis set group =>   4
Atom  12H    basis set group =>   4
Atom  13H    basis set group =>   4


           ************************************************************
           *        Program running with 16 parallel MPI-processes    *
           *              working on a common directory               *
           ************************************************************
------------------------------------------------------------------------------
                           ORCA GTO INTEGRAL CALCULATION
------------------------------------------------------------------------------
------------------------------------------------------------------------------
                   ___                                                        
                  /   \      - P O W E R E D   B Y -                         
                 /     \                                                     
                 |  |  |   _    _      __       _____    __    __             
                 |  |  |  | |  | |    /  \     |  _  \  |  |  /  |          
                  \  \/   | |  | |   /    \    | | | |  |  | /  /          
                 / \  \   | |__| |  /  /\  \   | |_| |  |  |/  /          
                |  |  |   |  __  | /  /__\  \  |    /   |      \           
                |  |  |   | |  | | |   __   |  |    \   |  |\   \          
                \     /   | |  | | |  |  |  |  | |\  \  |  | \   \       
                 \___/    |_|  |_| |__|  |__|  |_| \__\ |__|  \__/        
                                                                              
                      - O R C A' S   B I G   F R I E N D -                    
                                      &                                       
                       - I N T E G R A L  F E E D E R -                       
                                                                              
 v1 FN, 2020, v2 2021                                                         
------------------------------------------------------------------------------


Reading SHARK input file TZ_P-Si_25_AB.SHARKINP.tmp ... ok
----------------------
SHARK INTEGRAL PACKAGE
----------------------

Number of atoms                             ...     14
Number of basis functions                   ...    513
Number of shells                            ...    203
Maximum angular momentum                    ...      3
Integral batch strategy                     ... SHARK/LIBINT Hybrid
RI-J (if used) integral strategy            ... SPLIT-RIJ (Revised 2003 algorithm where possible)
Printlevel                                  ...      1
Contraction scheme used                     ... PARTIAL GENERAL contraction
Coulomb Range Separation                    ... NOT USED
Exchange Range Separation                   ... NOT USED
Finite Nucleus Model                        ... NOT USED
Auxiliary Coulomb fitting basis             ... NOT available
Auxiliary J/K fitting basis                 ... NOT available
Auxiliary Correlation fitting basis         ... AVAILABLE
[...]
      dxz     :     0.000167
      dyz     :    -0.000816
      dx2y2   :     0.000420
      dxy     :    -0.000413
      f0      :     0.000090  f :    -0.000308
      f+1     :    -0.000134
      f-1     :    -0.000319
      f+2     :     0.000066
      f-2     :     0.000007
      f+3     :    -0.000001
      f-3     :    -0.000017


                     *******************************
                     * LOEWDIN POPULATION ANALYSIS *
                     *******************************

----------------------
LOEWDIN ATOMIC CHARGES
----------------------
   0 P :    1.481950
   1 Si:    0.249767
   2 C :    0.535532
   3 C :    0.535531
   4 C :    0.389990
   5 H :   -0.331615
   6 H :   -0.321874
   7 H :   -0.296582
   8 H :   -0.262860
   9 H :   -0.321875
  10 H :   -0.331615
  11 H :   -0.554462
  12 H :   -0.554462
  13 H :   -0.217426

-------------------------------
LOEWDIN REDUCED ORBITAL CHARGES
-------------------------------
  0 P s       :     4.620252  s :     4.620252
      pz      :     2.945408  p :     8.245939
      px      :     2.679197
      py      :     2.621335
      dz2     :     0.050200  d :     0.417886
      dxz     :     0.094553
      dyz     :     0.088734
      dx2y2   :     0.075009
      dxy     :     0.109390
      f0      :     0.019653  f :     0.187785
      f+1     :     0.042162
      f-1     :     0.003583
      f+2     :     0.033381
      f-2     :     0.038323
      f+3     :     0.024519
      f-3     :     0.026163
      g0      :     0.003226  g :     0.046188
      g+1     :     0.007847
      g-1     :     0.002378
      g+2     :     0.006612
      g-2     :     0.002588
      g+3     :     0.010450
      g-3     :     0.004005
      g+4     :     0.003008
      g-4     :     0.006075
  1 Sis       :     4.270496  s :     4.270496
      pz      :     2.515187  p :     7.298869
      px      :     2.440315
      py      :     2.343366
      dz2     :     0.294538  d :     1.065596
      dxz     :     0.256890
      dyz     :     0.091013
      dx2y2   :     0.189172
      dxy     :     0.233983
      f0      :     0.094217  f :     0.806723
      f+1     :     0.182270
      f-1     :     0.041601
      f+2     :     0.119305
      f-2     :     0.105180
      f+3     :     0.099106
      f-3     :     0.165043
      g0      :     0.034914  g :     0.308550
      g+1     :     0.031302
      g-1     :     0.009490
      g+2     :     0.028246
      g-2     :     0.041492
      g+3     :     0.036398
      g-3     :     0.046315
      g+4     :     0.028194
      g-4     :     0.052197
  2 C s       :     2.394820  s :     2.394820
      pz      :     0.662640  p :     2.046273
      px      :     0.682579
      py      :     0.701055
      dz2     :     0.086650  d :     0.609264
      dxz     :     0.120491
      dyz     :     0.145690
      dx2y2   :     0.134692
      dxy     :     0.121741
      f0      :     0.031661  f :     0.333713
      f+1     :     0.029521
      f-1     :     0.068623
      f+2     :     0.044219
      f-2     :     0.047012
      f+3     :     0.043556
      f-3     :     0.069120
      g0      :     0.004940  g :     0.080397
      g+1     :     0.004141
      g-1     :     0.012228
      g+2     :     0.008643
      g-2     :     0.007199
      g+3     :     0.008804
      g-3     :     0.015432
      g+4     :     0.010848
      g-4     :     0.008161
  3 C s       :     2.394820  s :     2.394820
      pz      :     0.662639  p :     2.046274
      px      :     0.682579
      py      :     0.701055
      dz2     :     0.086651  d :     0.609264
      dxz     :     0.120491
      dyz     :     0.145690
      dx2y2   :     0.134692
      dxy     :     0.121741
      f0      :     0.031662  f :     0.333713
      f+1     :     0.029521
      f-1     :     0.068623
      f+2     :     0.044219
      f-2     :     0.047012
      f+3     :     0.043556
      f-3     :     0.069120
      g0      :     0.004940  g :     0.080397
      g+1     :     0.004141
      g-1     :     0.012228
      g+2     :     0.008643
      g-2     :     0.007199
      g+3     :     0.008804
      g-3     :     0.015432
      g+4     :     0.010848
      g-4     :     0.008161
  4 C s       :     2.356375  s :     2.356375
      pz      :     0.650383  p :     1.916002
      px      :     0.687761
      py      :     0.577858
      dz2     :     0.161882  d :     0.769783
      dxz     :     0.131501
      dyz     :     0.154969
      dx2y2   :     0.204165
      dxy     :     0.117265
      f0      :     0.021022  f :     0.461570
      f+1     :     0.045887
      f-1     :     0.106452
      f+2     :     0.078349
      f-2     :     0.077130
      f+3     :     0.070489
      f-3     :     0.062241
      g0      :     0.008901  g :     0.106280
      g+1     :     0.004608
      g-1     :     0.011188
      g+2     :     0.014980
      g-2     :     0.015090
      g+3     :     0.008936
      g-3     :     0.025265
      g+4     :     0.007275
      g-4     :     0.010037
  5 H s       :     0.607055  s :     0.607055
      pz      :     0.111929  p :     0.321486
      px      :     0.122401
      py      :     0.087156
      dz2     :     0.063970  d :     0.278559
      dxz     :     0.058448
      dyz     :     0.061204
      dx2y2   :     0.043073
      dxy     :     0.051863
      f0      :     0.009790  f :     0.124516
      f+1     :     0.030542
      f-1     :     0.017106
      f+2     :     0.021509
      f-2     :     0.023708
      f+3     :     0.006791
      f-3     :     0.015068
  6 H s       :     0.622832  s :     0.622832
      pz      :     0.100796  p :     0.312813
      px      :     0.094371
      py      :     0.117645
      dz2     :     0.044126  d :     0.265895
      dxz     :     0.052459
      dyz     :     0.061363
      dx2y2   :     0.049280
      dxy     :     0.058667
      f0      :     0.005738  f :     0.120335
      f+1     :     0.010106
      f-1     :     0.028013
      f+2     :     0.019704
      f-2     :     0.023839
      f+3     :     0.018474
      f-3     :     0.014461
  7 H s       :     0.591530  s :     0.591530
      pz      :     0.123358  p :     0.297777
      px      :     0.101171
      py      :     0.073247
      dz2     :     0.066071  d :     0.277037
      dxz     :     0.064564
      dyz     :     0.083867
      dx2y2   :     0.050315
      dxy     :     0.012219
      f0      :     0.030848  f :     0.130238
      f+1     :     0.016487
      f-1     :     0.037014
      f+2     :     0.028174
      f-2     :     0.010402
      f+3     :     0.006179
      f-3     :     0.001134
  8 H s       :     0.607666  s :     0.607666
      pz      :     0.077781  p :     0.281488
      px      :     0.134956
      py      :     0.068751
      dz2     :     0.017321  d :     0.252320
      dxz     :     0.092706
      dyz     :     0.017874
      dx2y2   :     0.050840
      dxy     :     0.073579
      f0      :     0.019162  f :     0.121386
      f+1     :     0.008309
      f-1     :     0.002006
      f+2     :     0.029220
      f-2     :     0.010830
      f+3     :     0.018643
      f-3     :     0.033215
  9 H s       :     0.622832  s :     0.622832
      pz      :     0.100796  p :     0.312813
      px      :     0.094371
      py      :     0.117645
      dz2     :     0.044126  d :     0.265895
      dxz     :     0.052459
      dyz     :     0.061363
      dx2y2   :     0.049280
      dxy     :     0.058667
      f0      :     0.005738  f :     0.120335
      f+1     :     0.010106
      f-1     :     0.028013
      f+2     :     0.019705
      f-2     :     0.023839
      f+3     :     0.018474
      f-3     :     0.014461
 10 H s       :     0.607055  s :     0.607055
      pz      :     0.111929  p :     0.321485
      px      :     0.122401
      py      :     0.087155
      dz2     :     0.063970  d :     0.278559
      dxz     :     0.058448
      dyz     :     0.061204
      dx2y2   :     0.043073
      dxy     :     0.051863
      f0      :     0.009790  f :     0.124516
      f+1     :     0.030542
      f-1     :     0.017106
      f+2     :     0.021510
      f-2     :     0.023708
      f+3     :     0.006791
      f-3     :     0.015068
 11 H s       :     0.769394  s :     0.769394
      pz      :     0.162414  p :     0.399978
      px      :     0.108021
      py      :     0.129544
      dz2     :     0.072214  d :     0.280275
      dxz     :     0.025310
      dyz     :     0.056325
      dx2y2   :     0.075516
      dxy     :     0.050909
      f0      :     0.007432  f :     0.104815
      f+1     :     0.008809
      f-1     :     0.025026
      f+2     :     0.010641
      f-2     :     0.017652
      f+3     :     0.009966
      f-3     :     0.025290
 12 H s       :     0.769394  s :     0.769394
      pz      :     0.162413  p :     0.399978
      px      :     0.108021
      py      :     0.129544
      dz2     :     0.072214  d :     0.280275
      dxz     :     0.025310
      dyz     :     0.056326
      dx2y2   :     0.075516
      dxy     :     0.050910
      f0      :     0.007432  f :     0.104815
      f+1     :     0.008808
      f-1     :     0.025026
      f+2     :     0.010641
      f-2     :     0.017652
      f+3     :     0.009966
      f-3     :     0.025290
 13 H s       :     0.835243  s :     0.835243
      pz      :     0.108375  p :     0.180117
      px      :     0.043673
      py      :     0.028070
      dz2     :     0.046135  d :     0.128384
      dxz     :     0.043382
      dyz     :     0.029858
      dx2y2   :     0.001673
      dxy     :     0.007337
      f0      :     0.034978  f :     0.073682
      f+1     :     0.020792
      f-1     :     0.012194
      f+2     :     0.001004
      f-2     :     0.004081
      f+3     :     0.000280
      f-3     :     0.000352


                      *****************************
                      * MAYER POPULATION ANALYSIS *
                      *****************************

  NA   - Mulliken gross atomic population
  ZA   - Total nuclear charge
  QA   - Mulliken gross atomic charge
  VA   - Mayer's total valence
  BVA  - Mayer's bonded valence
  FA   - Mayer's free valence

  ATOM       NA         ZA         QA         VA         BVA        FA
  0 P     15.0053    15.0000    -0.0053     2.7892     2.7892     0.0000
  1 Si    12.7453    14.0000     1.2547     3.3800     3.3800    -0.0000
  2 C      6.9139     6.0000    -0.9139     3.7213     3.7213     0.0000
  3 C      6.9139     6.0000    -0.9139     3.7213     3.7213     0.0000
  4 C      6.5322     6.0000    -0.5322     3.7311     3.7311    -0.0000
  5 H      0.7662     1.0000     0.2338     1.0235     1.0235     0.0000
  6 H      0.6956     1.0000     0.3044     1.0433     1.0433     0.0000
  7 H      0.7317     1.0000     0.2683     0.9290     0.9290    -0.0000
  8 H      0.6548     1.0000     0.3452     0.9596     0.9596     0.0000
  9 H      0.6956     1.0000     0.3044     1.0433     1.0433     0.0000
 10 H      0.7662     1.0000     0.2338     1.0235     1.0235     0.0000
 11 H      1.0688     1.0000    -0.0688     0.9033     0.9033     0.0000
 12 H      1.0688     1.0000    -0.0688     0.9033     0.9033     0.0000
 13 H      1.4419     1.0000    -0.4419     0.7774     0.7774    -0.0000

  Mayer bond orders larger than 0.100000
B(  0-P ,  1-Si) :   0.9770 B(  0-P , 11-H ) :   0.9092 B(  0-P , 12-H ) :   0.9092 
B(  1-Si,  2-C ) :   0.7739 B(  1-Si,  3-C ) :   0.7739 B(  1-Si, 13-H ) :   0.7856 
B(  2-C ,  4-C ) :   0.9967 B(  2-C ,  9-H ) :   0.9237 B(  2-C , 10-H ) :   0.9456 
B(  3-C ,  4-C ) :   0.9967 B(  3-C ,  5-H ) :   0.9456 B(  3-C ,  6-H ) :   0.9237 
B(  4-C ,  7-H ) :   0.9125 B(  4-C ,  8-H ) :   0.8033 

-------
TIMINGS
-------

Total SCF time: 0 days 0 hours 54 min 29 sec 

Total time                  ....    3269.025 sec
Sum of individual times     ....    3262.745 sec  ( 99.8%)

Fock matrix formation       ....     636.725 sec  ( 19.5%)
Diagonalization             ....       0.775 sec  (  0.0%)
Density matrix formation    ....       0.054 sec  (  0.0%)
Population analysis         ....       1.006 sec  (  0.0%)
Initial guess               ....       0.346 sec  (  0.0%)
Orbital Transformation      ....       0.000 sec  (  0.0%)
Orbital Orthonormalization  ....       0.000 sec  (  0.0%)
DIIS solution               ....       0.231 sec  (  0.0%)
SOSCF solution              ....       1.033 sec  (  0.0%)
SCF Stability Analysis      ....    2622.575 sec  ( 80.2%)

Maximum memory used throughout the entire SCF-calculation: 284.3 MB


           ************************************************************
           *        Program running with 16 parallel MPI-processes    *
           *              working on a common directory               *
           ************************************************************

------------------------------------------------------------------------------
                                ORCA  MP2 
------------------------------------------------------------------------------

Freezing NCore=26 chemical core electrons

-------------
RI-MP2 ENERGY
-------------
Dimension of the basis                    ...  822
Memory devoted to MP2                     ... 3800 MB   
Data format for buffers                   ... DOUBLE
Compression type for matrix containers    ... UNCOMPRESSED
Overall scaling of the MP2 energy         ...   1.000e+00
Calculating two index integrals           ... done (    0.021 sec)
Cholesky decomposition of V**-1           ... done (    0.248 sec)

-----------------
RI-TRANSFORMATION (AUX index driven)
-----------------

Dimension of the orbital-basis         ... 822
Dimension of the aux-basis             ... 1612
Transformation of internal/external MOs...   13-  27 to   28- 821
Number Format for Storage              ... Double (8 Byte)
Integral mode                          ... Direct

First Phase: integral generation and transformation of MO indices
  Aux angular momentum 0               ... done (    0.094 sec)
  Aux angular momentum 1               ... done (    0.204 sec)
  Aux angular momentum 2               ... done (    0.278 sec)
  Aux angular momentum 3               ... done (    0.322 sec)
  Aux angular momentum 4               ... done (    0.312 sec)
  Aux angular momentum 5               ... done (    0.169 sec)
Closing buffer VIA ( 0.14 GB; CompressionRatio= 1.00)
  Phase 1 completed in     3.023 sec
Second Phase: sorting and transformation of aux index

IA-Transformation
Memory available                       ... 3726 MB 
Max. # MO pairs treated in a batch     ... 1    
# of internal orbitals                 ... 15
# batches for internal orbitals        ... 1
Closing buffer IAV ( 0.14 GB; CompressionRatio= 1.00)
(ia|v) transformation done in     1.658 sec

  Phase 2 completed in     1.939 sec
RI-Integral transformation completed in     5.060 sec
Opening buffers                              ... done

Starting loop over batches of integrals:

Operator 0  - window                       ... ( 13- 27)x( 28-821)
Operator 0  - Memory available             ...  3800 MB
Operator 0  - Memory needed per MO         ...   9.8 MB
Operator 0  - Number of orbitals per batch ... 1
Operator 0  - Number of batches            ... 1

OPERATOR  0   PASS   0:  MOs    13 ...   13 +   14 ...   14 +   15 ...   15 +   16 ...   16
                            +   17 ...   17 +   18 ...   18 +   19 ...   19 +   20 ...   20
                            +   21 ...   21 +   22 ...   22 +   23 ...   23 +   24 ...   24
                            +   25 ...   25 +   26 ...   26 +   27 ...   27
  Reading integrals       ... ok
Time spent in pair loops =     0.064 sec
Deleting buffer (Ka|jb)[aa] ...done

-----------------------------------------------
 RI-MP2 CORRELATION ENERGY:     -0.855909591 Eh
-----------------------------------------------


-------
TIMINGS
-------

Total time                :    6.474 sec
Integral trafo            :    5.071 sec ( 78.3%)
I/O of integrals          :    0.003 sec (  0.0%)
K(i,j) Operators          :    0.052 sec (  0.8%)
T(i,j) pair energies      :    0.003 sec (  0.0%)
V-calculation             :    0.021 sec (  0.3%)
V**(-1/2)                 :    0.248 sec (  3.8%)
Gamma(ia|P)               :    0.000 sec (  0.0%)
Gamma-Trafo               :    0.000 sec (  0.0%)
D(virtual)                :    0.000 sec (  0.0%)
D(internal)               :    0.000 sec (  0.0%)
W(virtual)                :    0.000 sec (  0.0%)
W(internal)               :    0.000 sec (  0.0%)
L(virtual)                :    0.000 sec (  0.0%)
L(internal)               :    0.000 sec (  0.0%)
G(D)                      :    0.000 sec (  0.0%)
G(Z)                      :    0.000 sec (  0.0%)
Z-Vector Solution         :    0.000 sec (  0.0%)
3-Index Derivative        :    0.000 sec (  0.0%)
2-Index Derivative        :    0.000 sec (  0.0%)
Separable Gradient        :    0.000 sec (  0.0%)


---------------------------------------
MP2 TOTAL ENERGY:     -749.439643463 Eh
---------------------------------------

Maximum memory used throughout the entire MP2-calculation: 191.3 MB

-------------------------   --------------------
FINAL SINGLE POINT ENERGY      -749.439643463331
-------------------------   --------------------


                            ***************************************
                            *     ORCA property calculations      *
                            ***************************************


  WARNING: The energy has been calculated at the MP2 level but the densities
           used in the property calculations are still SCF densities
           MP2 response densities have not been calculated 
           use %mp2 Density relaxed end
           or  %mp2 Density unrelaxed end

                                    ---------------------
                                    Active property flags
                                    ---------------------
   (+) Dipole Moment


------------------------------------------------------------------------------
                       ORCA ELECTRIC PROPERTIES CALCULATION
------------------------------------------------------------------------------

Dipole Moment Calculation                       ... on
Quadrupole Moment Calculation                   ... off
Polarizability Calculation                      ... off
GBWName                                         ... QZ_P-Si_25_AB.gbw
Electron density                                ... QZ_P-Si_25_AB.scfp
The origin for moment calculation is the CENTER OF MASS  = (-0.113894,  0.000000 -0.017944)

-------------
DIPOLE MOMENT
-------------
                                X             Y             Z
Electronic contribution:     -6.14024       0.00000      -0.71939
Nuclear contribution   :      6.37808      -0.00000       1.00485
                        -----------------------------------------
Total Dipole Moment    :      0.23784       0.00000       0.28546
                        -----------------------------------------
Magnitude (a.u.)       :      0.37156
Magnitude (Debye)      :      0.94442



--------------------
Rotational spectrum 
--------------------
 
Rotational constants in cm-1:     0.185809     0.064028     0.061872 
Rotational constants in MHz :  5570.399334  1919.504557  1854.888680 

 Dipole components along the rotational axes: 
x,y,z [a.u.] :     0.246803    -0.000002     0.277747 
x,y,z [Debye]:     0.627322    -0.000004     0.705977 

 

Timings for individual modules:

Sum of individual times         ...     3284.306 sec (=  54.738 min)
GTO integral calculation        ...        5.746 sec (=   0.096 min)   0.2 %
SCF iterations                  ...     3270.295 sec (=  54.505 min)  99.6 %
MP2 module                      ...        8.264 sec (=   0.138 min)   0.3 %



                             ****ORCA TERMINATED NORMALLY****
TOTAL RUN TIME: 0 days 1 hours 1 minutes 37 seconds 899 msec
