
                                 *****************
                                 * O   R   C   A *
                                 *****************

                                            #,                                       
                                            ###                                      
                                            ####                                     
                                            #####                                    
                                            ######                                   
                                           ########,                                 
                                     ,,################,,,,,                         
                               ,,#################################,,                 
                          ,,##########################################,,             
                       ,#########################################, ''#####,          
                    ,#############################################,,   '####,        
                  ,##################################################,,,,####,       
                ,###########''''           ''''###############################       
              ,#####''   ,,,,##########,,,,          '''####'''          '####       
            ,##' ,,,,###########################,,,                        '##       
           ' ,,###''''                  '''############,,,                           
         ,,##''                                '''############,,,,        ,,,,,,###''
      ,#''                                            '''#######################'''  
     '                                                          ''''####''''         
             ,#######,   #######,   ,#######,      ##                                
            ,#'     '#,  ##    ##  ,#'     '#,    #''#        ######   ,####,        
            ##       ##  ##   ,#'  ##            #'  '#       #        #'  '#        
            ##       ##  #######   ##           ,######,      #####,   #    #        
            '#,     ,#'  ##    ##  '#,     ,#' ,#      #,         ##   #,  ,#        
             '#######'   ##     ##  '#######'  #'      '#     #####' # '####'        



                  #######################################################
                  #                        -***-                        #
                  #          Department of theory and spectroscopy      #
                  #    Directorship and core code : Frank Neese         #
                  #        Max Planck Institute fuer Kohlenforschung    #
                  #                Kaiser Wilhelm Platz 1               #
                  #                 D-45470 Muelheim/Ruhr               #
                  #                      Germany                        #
                  #                                                     #
                  #                  All rights reserved                #
                  #                        -***-                        #
                  #######################################################


                         Program Version 5.0.4 -  RELEASE  -


 With contributions from (in alphabetic order):
   Daniel Aravena         : Magnetic Suceptibility
   Michael Atanasov       : Ab Initio Ligand Field Theory (pilot matlab implementation)
   Alexander A. Auer      : GIAO ZORA, VPT2 properties, NMR spectrum
   Ute Becker             : Parallelization
   Giovanni Bistoni       : ED, misc. LED, open-shell LED, HFLD
   Martin Brehm           : Molecular dynamics
   Dmytro Bykov           : SCF Hessian
   Vijay G. Chilkuri      : MRCI spin determinant printing, contributions to CSF-ICE
   Dipayan Datta          : RHF DLPNO-CCSD density
   Achintya Kumar Dutta   : EOM-CC, STEOM-CC
   Dmitry Ganyushin       : Spin-Orbit,Spin-Spin,Magnetic field MRCI
   Miquel Garcia          : C-PCM and meta-GGA Hessian, CC/C-PCM, Gaussian charge scheme
   Yang Guo               : DLPNO-NEVPT2, F12-NEVPT2, CIM, IAO-localization
   Andreas Hansen         : Spin unrestricted coupled pair/coupled cluster methods
   Benjamin Helmich-Paris : MC-RPA, TRAH-SCF, COSX integrals
   Lee Huntington         : MR-EOM, pCC
   Robert Izsak           : Overlap fitted RIJCOSX, COSX-SCS-MP3, EOM
   Marcus Kettner         : VPT2
   Christian Kollmar      : KDIIS, OOCD, Brueckner-CCSD(T), CCSD density, CASPT2, CASPT2-K
   Simone Kossmann        : Meta GGA functionals, TD-DFT gradient, OOMP2, MP2 Hessian
   Martin Krupicka        : Initial AUTO-CI
   Lucas Lang             : DCDCAS
   Marvin Lechner         : AUTO-CI (C++ implementation), FIC-MRCC
   Dagmar Lenk            : GEPOL surface, SMD
   Dimitrios Liakos       : Extrapolation schemes; Compound Job, initial MDCI parallelization
   Dimitrios Manganas     : Further ROCIS development; embedding schemes
   Dimitrios Pantazis     : SARC Basis sets
   Anastasios Papadopoulos: AUTO-CI, single reference methods and gradients
   Taras Petrenko         : DFT Hessian,TD-DFT gradient, ASA, ECA, R-Raman, ABS, FL, XAS/XES, NRVS
   Peter Pinski           : DLPNO-MP2, DLPNO-MP2 Gradient
   Christoph Reimann      : Effective Core Potentials
   Marius Retegan         : Local ZFS, SOC
   Christoph Riplinger    : Optimizer, TS searches, QM/MM, DLPNO-CCSD(T), (RO)-DLPNO pert. Triples
   Tobias Risthaus        : Range-separated hybrids, TD-DFT gradient, RPA, STAB
   Michael Roemelt        : Original ROCIS implementation
   Masaaki Saitow         : Open-shell DLPNO-CCSD energy and density
   Barbara Sandhoefer     : DKH picture change effects
   Avijit Sen             : IP-ROCIS
   Kantharuban Sivalingam : CASSCF convergence, NEVPT2, FIC-MRCI
   Bernardo de Souza      : ESD, SOC TD-DFT
   Georgi Stoychev        : AutoAux, RI-MP2 NMR, DLPNO-MP2 response
   Willem Van den Heuvel  : Paramagnetic NMR
   Boris Wezisla          : Elementary symmetry handling
   Frank Wennmohs         : Technical directorship


 We gratefully acknowledge several colleagues who have allowed us to
 interface, adapt or use parts of their codes:
   Stefan Grimme, W. Hujo, H. Kruse, P. Pracht,  : VdW corrections, initial TS optimization,
                  C. Bannwarth, S. Ehlert          DFT functionals, gCP, sTDA/sTD-DF
   Ed Valeev, F. Pavosevic, A. Kumar             : LibInt (2-el integral package), F12 methods
   Garnet Chan, S. Sharma, J. Yang, R. Olivares  : DMRG
   Ulf Ekstrom                                   : XCFun DFT Library
   Mihaly Kallay                                 : mrcc  (arbitrary order and MRCC methods)
   Jiri Pittner, Ondrej Demel                    : Mk-CCSD
   Frank Weinhold                                : gennbo (NPA and NBO analysis)
   Christopher J. Cramer and Donald G. Truhlar   : smd solvation model
   Lars Goerigk                                  : TD-DFT with DH, B97 family of functionals
   V. Asgeirsson, H. Jonsson                     : NEB implementation
   FAccTs GmbH                                   : IRC, NEB, NEB-TS, DLPNO-Multilevel, CI-OPT
                                                   MM, QMMM, 2- and 3-layer-ONIOM, Crystal-QMMM,
                                                   LR-CPCM, SF, NACMEs, symmetry and pop. for TD-DFT,
                                                   nearIR, NL-DFT gradient (VV10), updates on ESD,
                                                   ML-optimized integration grids
   S Lehtola, MJT Oliveira, MAL Marques          : LibXC Library
   Liviu Ungur et al                             : ANISO software


 Your calculation uses the libint2 library for the computation of 2-el integrals
 For citations please refer to: http://libint.valeyev.net

 Your ORCA version has been built with support for libXC version: 5.1.0
 For citations please refer to: https://tddft.org/programs/libxc/

 This ORCA versions uses:
   CBLAS   interface :  Fast vector & matrix operations
   LAPACKE interface :  Fast linear algebra routines
   SCALAPACK package :  Parallel linear algebra routines
   Shared memory     :  Shared parallel matrices
   BLAS/LAPACK       :  OpenBLAS 0.3.15  USE64BITINT DYNAMIC_ARCH NO_AFFINITY Zen SINGLE_THREADED
        Core in use  :  Zen
   Copyright (c) 2011-2014, The OpenBLAS Project


================================================================================

----- Orbital basis set information -----
Your calculation utilizes the basis: aug-cc-pVDZ 
    H, B-Ne : Obtained from the ccRepo (grant-hill.group.shef.ac.uk/ccrepo) Feb. 2017
              R. A. Kendall, T. H. Dunning, Jr., R. J. Harrison, J. Chem. Phys. 96, 6796 (1992)
         He : Obtained from the ccRepo (grant-hill.group.shef.ac.uk/ccrepo) Feb. 2017
              D. E. Woon, T. H. Dunning, Jr., J. Chem. Phys. 100, 2975 (1994)
  Li-Be, Na : Obtained from the ccRepo (grant-hill.group.shef.ac.uk/ccrepo) Feb. 2017
              B. P. Prascher, D. E. Woon, K. A. Peterson, T. H. Dunning, Jr., A. K. Wilson, Theor. Chem. Acc. 128, 69 (2011)
         Mg : Obtained from the Peterson Research Group Website (tyr0.chem.wsu.edu/~kipeters) Feb. 2017
              B. P. Prascher, D. E. Woon, K. A. Peterson, T. H. Dunning, Jr., A. K. Wilson, Theor. Chem. Acc. 128, 69 (2011)
      Al-Ar : Obtained from the ccRepo (grant-hill.group.shef.ac.uk/ccrepo) Feb. 2017
              D. E. Woon, T. H. Dunning, Jr., J. Chem. Phys. 98, 1358 (1993)
      Sc-Zn : Obtained from the ccRepo (grant-hill.group.shef.ac.uk/ccrepo) Feb. 2017
              N. B. Balabanov, K. A. Peterson, J. Chem. Phys. 123, 064107 (2005)
              N. B. Balabanov, K. A. Peterson, J. Chem. Phys. 125, 074110 (2006)
      Ga-Kr : Obtained from the ccRepo (grant-hill.group.shef.ac.uk/ccrepo) Feb. 2017
              A. K. Wilson, D. E. Woon, K. A. Peterson, T. H. Dunning, Jr., J. Chem. Phys. 110, 7667 (1999)

----- AuxC basis set information -----
Your calculation utilizes the auxiliary basis: aug-cc-pVDZ/C 
  H-He, B, Ne, Al-Ar, Ga-Ge, Se-Br : Obtained from the EMSL Basis Set Exchange (bse.pnl.gov) Feb. 2017
                                     F. Weigend, A. Kohn, C. Hattig, J. Chem. Phys. 116, 3175 (2002)
                            Be, Mg : Obtained from the TURBOMOLE 7.0 basis set library
                                     C. Haettig, Phys. Chem. Chem. Phys. 7, 59 (2005)
                               C-F : Obtained from the EMSL Basis Set Exchange (bse.pnl.gov) Feb. 2017
                                     C. Haettig, Phys. Chem. Chem. Phys. 7, 59 (2005)
                                     F. Weigend, A. Kohn, C. Hattig, J. Chem. Phys. 116, 3175 (2002)
                                As : Obtained from the EMSL Basis Set Exchange (bse.pnl.gov) Feb. 2017
                                     C. Haettig, G. Schmitz, J. Kossmann, Phys. Chem. Chem. Phys. 14, 6549 (2012)
                                Kr : Obtained from the TURBOMOLE 7.0 basis set library
                                     F. Weigend, A. Kohn, C. Hattig, J. Chem. Phys. 116, 3175 (2002)
                                     S function revised in Sep. 2009

================================================================================
                                        WARNINGS
                       Please study these warnings very carefully!
================================================================================


WARNING: No MP2 level density has been requested!
         To caclulate MP2 level properties use
         %mp2 Density relaxed end
         or
         %mp2 Density unrelaxed end

WARNING: Post HF methods need fully converged wavefunctions
  ===> : Setting SCFConvForced true
         You can overwrite this default with %scf ConvForced false 


INFO   : the flag for use of the SHARK integral package has been found!

================================================================================

----- Orbital basis set information -----
Your calculation utilizes the basis: aug-cc-pVTZ 
    H, B-Ne : Obtained from the ccRepo (grant-hill.group.shef.ac.uk/ccrepo) Feb. 2017
              R. A. Kendall, T. H. Dunning, Jr., R. J. Harrison, J. Chem. Phys. 96, 6796 (1992)
         He : Obtained from the ccRepo (grant-hill.group.shef.ac.uk/ccrepo) Feb. 2017
              D. E. Woon, T. H. Dunning, Jr., J. Chem. Phys. 100, 2975 (1994)
  Li-Be, Na : Obtained from the ccRepo (grant-hill.group.shef.ac.uk/ccrepo) Feb. 2017
              B. P. Prascher, D. E. Woon, K. A. Peterson, T. H. Dunning, Jr., A. K. Wilson, Theor. Chem. Acc. 128, 69 (2011)
         Mg : Obtained from the Peterson Research Group Website (tyr0.chem.wsu.edu/~kipeters) Feb. 2017
              B. P. Prascher, D. E. Woon, K. A. Peterson, T. H. Dunning, Jr., A. K. Wilson, Theor. Chem. Acc. 128, 69 (2011)
      Al-Ar : Obtained from the ccRepo (grant-hill.group.shef.ac.uk/ccrepo) Feb. 2017
              D. E. Woon, T. H. Dunning, Jr., J. Chem. Phys. 98, 1358 (1993)
      Sc-Zn : Obtained from the ccRepo (grant-hill.group.shef.ac.uk/ccrepo) Feb. 2017
              N. B. Balabanov, K. A. Peterson, J. Chem. Phys. 123, 064107 (2005)
              N. B. Balabanov, K. A. Peterson, J. Chem. Phys. 125, 074110 (2006)
      Ga-Kr : Obtained from the ccRepo (grant-hill.group.shef.ac.uk/ccrepo) Feb. 2017
              A. K. Wilson, D. E. Woon, K. A. Peterson, T. H. Dunning, Jr., J. Chem. Phys. 110, 7667 (1999)
     Ag, Au : Obtained from the Peterson Research Group Website (tyr0.chem.wsu.edu/~kipeters) Feb. 2017
              K. A. Peterson, C. Puzzarini, Theor. Chem. Acc. 114, 283 (2005)

----- AuxC basis set information -----
Your calculation utilizes the auxiliary basis: aug-cc-pVTZ/C 
  H-He, B-F, Al-Ar, Ga-Kr : Obtained from the EMSL Basis Set Exchange (bse.pnl.gov) Feb. 2017
                            F. Weigend, A. Kohn, C. Hattig, J. Chem. Phys. 116, 3175 (2002)
                   Be, Mg : Obtained from the TURBOMOLE 7.0 basis set library
                            C. Haettig, Phys. Chem. Chem. Phys. 7, 59 (2005)
                       Ne : Obtained from the EMSL Basis Set Exchange (bse.pnl.gov) Feb. 2017
                            C. Haettig, Phys. Chem. Chem. Phys. 7, 59 (2005)
                            F. Weigend, A. Kohn, C. Hattig, J. Chem. Phys. 116, 3175 (2002)
                    Sc-Zn : Obtained from the EMSL Basis Set Exchange (bse.pnl.gov) Feb. 2017
                            J. G. Hill, J. A. Platts, J. Chem. Phys. 128, 044104 (2008)

================================================================================
                                        WARNINGS
                       Please study these warnings very carefully!
================================================================================


WARNING: No MP2 level density has been requested!
         To caclulate MP2 level properties use
         %mp2 Density relaxed end
         or
         %mp2 Density unrelaxed end

INFO   : the flag for use of the SHARK integral package has been found!

================================================================================

----- Orbital basis set information -----
Your calculation utilizes the basis: aug-cc-pVQZ 
    H, B-Ne : Obtained from the ccRepo (grant-hill.group.shef.ac.uk/ccrepo) Feb. 2017
              R. A. Kendall, T. H. Dunning, Jr., R. J. Harrison, J. Chem. Phys. 96, 6796 (1992)
         He : Obtained from the ccRepo (grant-hill.group.shef.ac.uk/ccrepo) Feb. 2017
              D. E. Woon, T. H. Dunning, Jr., J. Chem. Phys. 100, 2975 (1994)
  Li-Be, Na : Obtained from the ccRepo (grant-hill.group.shef.ac.uk/ccrepo) Feb. 2017
              B. P. Prascher, D. E. Woon, K. A. Peterson, T. H. Dunning, Jr., A. K. Wilson, Theor. Chem. Acc. 128, 69 (2011)
         Mg : Obtained from the Peterson Research Group Website (tyr0.chem.wsu.edu/~kipeters) Feb. 2017
              B. P. Prascher, D. E. Woon, K. A. Peterson, T. H. Dunning, Jr., A. K. Wilson, Theor. Chem. Acc. 128, 69 (2011)
      Al-Ar : Obtained from the ccRepo (grant-hill.group.shef.ac.uk/ccrepo) Feb. 2017
              D. E. Woon, T. H. Dunning, Jr., J. Chem. Phys. 98, 1358 (1993)
      Sc-Zn : Obtained from the ccRepo (grant-hill.group.shef.ac.uk/ccrepo) Feb. 2017
              N. B. Balabanov, K. A. Peterson, J. Chem. Phys. 123, 064107 (2005)
              N. B. Balabanov, K. A. Peterson, J. Chem. Phys. 125, 074110 (2006)
      Ga-Kr : Obtained from the ccRepo (grant-hill.group.shef.ac.uk/ccrepo) Feb. 2017
              A. K. Wilson, D. E. Woon, K. A. Peterson, T. H. Dunning, Jr., J. Chem. Phys. 110, 7667 (1999)

----- AuxC basis set information -----
Your calculation utilizes the auxiliary basis: aug-cc-pVQZ/C 
  H-He, B-F, Al-Ar, Ga-Kr : Obtained from the EMSL Basis Set Exchange (bse.pnl.gov) Feb. 2017
                            F. Weigend, A. Kohn, C. Hattig, J. Chem. Phys. 116, 3175 (2002)
                   Be, Mg : Obtained from the TURBOMOLE 7.0 basis set library
                            C. Haettig, Phys. Chem. Chem. Phys. 7, 59 (2005)
                       Ne : Obtained from the EMSL Basis Set Exchange (bse.pnl.gov) Feb. 2017
                            C. Haettig, Phys. Chem. Chem. Phys. 7, 59 (2005)
                            F. Weigend, A. Kohn, C. Hattig, J. Chem. Phys. 116, 3175 (2002)
                    Sc-Zn : Obtained from the EMSL Basis Set Exchange (bse.pnl.gov) Feb. 2017
                            D. H. Bross, J. G. Hill, H. J. Werner, K. A. Peterson, J. Chem. Phys. 139, 094302 (2013)

================================================================================
                                        WARNINGS
                       Please study these warnings very carefully!
================================================================================


WARNING: No MP2 level density has been requested!
         To caclulate MP2 level properties use
         %mp2 Density relaxed end
         or
         %mp2 Density unrelaxed end

INFO   : the flag for use of the SHARK integral package has been found!

================================================================================
                                       INPUT FILE
================================================================================
NAME = B-Si_53_AB.inp
|  1> ! ri-mp2 aug-cc-pvdz aug-cc-pvdz/c tightscf
|  2> %pal nprocs 16 end
|  3> %maxcore 3800
|  4> %base "DZ_B-Si_53_AB"
|  5> 
|  6> *xyz 0 1
|  7> C        -2.339479   -1.192926    0.658833
|  8> C        -1.070991   -0.691205    0.895997
|  9> C        -3.190783   -0.535074   -0.213605
| 10> C        -2.767459    0.622632   -0.843412
| 11> C        -1.496747    1.119166   -0.602793
| 12> C        -0.623564    0.474491    0.271166
| 13> H        -1.181729    2.026821   -1.102951
| 14> H        -4.183140   -0.923747   -0.400319
| 15> H        -3.429343    1.141963   -1.524110
| 16> H        -2.665987   -2.095575    1.158575
| 17> H        -0.422876   -1.215577    1.590157
| 18> B         2.388952   -0.309556   -0.222141
| 19> O         3.732103   -0.127276   -0.167474
| 20> O         1.920242   -1.451283   -0.803902
| 21> H         0.960528   -1.519811   -0.820739
| 22> H         4.226000   -0.854298   -0.566420
| 23> Si         1.129771    1.083368    0.548070
| 24> H         1.279094    2.396737   -0.121513
| 25> H         1.371283    1.270080    1.998929
| 26> *
| 27> 
| 28> $new_job
| 29> ! ri-mp2 aug-cc-pvtz aug-cc-pvtz/c tightscf
| 30> %pal nprocs 16 end
| 31> %maxcore 3800
| 32> %base "TZ_B-Si_53_AB"
| 33> 
| 34> *xyz 0 1
| 35> C        -2.339479   -1.192926    0.658833
| 36> C        -1.070991   -0.691205    0.895997
| 37> C        -3.190783   -0.535074   -0.213605
| 38> C        -2.767459    0.622632   -0.843412
| 39> C        -1.496747    1.119166   -0.602793
| 40> C        -0.623564    0.474491    0.271166
| 41> H        -1.181729    2.026821   -1.102951
| 42> H        -4.183140   -0.923747   -0.400319
| 43> H        -3.429343    1.141963   -1.524110
| 44> H        -2.665987   -2.095575    1.158575
| 45> H        -0.422876   -1.215577    1.590157
| 46> B         2.388952   -0.309556   -0.222141
| 47> O         3.732103   -0.127276   -0.167474
| 48> O         1.920242   -1.451283   -0.803902
| 49> H         0.960528   -1.519811   -0.820739
| 50> H         4.226000   -0.854298   -0.566420
| 51> Si         1.129771    1.083368    0.548070
| 52> H         1.279094    2.396737   -0.121513
| 53> H         1.371283    1.270080    1.998929
| 54> *
| 55> 
| 56> $new_job
| 57> ! ri-mp2 aug-cc-pvqz aug-cc-pvqz/c tightscf
| 58> %pal nprocs 16 end
| 59> %maxcore 3800
| 60> %base "QZ_B-Si_53_AB"
| 61> 
| 62> *xyz 0 1
| 63> C        -2.339479   -1.192926    0.658833
| 64> C        -1.070991   -0.691205    0.895997
| 65> C        -3.190783   -0.535074   -0.213605
| 66> C        -2.767459    0.622632   -0.843412
| 67> C        -1.496747    1.119166   -0.602793
| 68> C        -0.623564    0.474491    0.271166
| 69> H        -1.181729    2.026821   -1.102951
| 70> H        -4.183140   -0.923747   -0.400319
| 71> H        -3.429343    1.141963   -1.524110
| 72> H        -2.665987   -2.095575    1.158575
| 73> H        -0.422876   -1.215577    1.590157
| 74> B         2.388952   -0.309556   -0.222141
| 75> O         3.732103   -0.127276   -0.167474
| 76> O         1.920242   -1.451283   -0.803902
| 77> H         0.960528   -1.519811   -0.820739
| 78> H         4.226000   -0.854298   -0.566420
| 79> Si         1.129771    1.083368    0.548070
| 80> H         1.279094    2.396737   -0.121513
| 81> H         1.371283    1.270080    1.998929
| 82> *
| 83> 
| 84> 
| 85> 
| 86> 
| 87>                          ****END OF INPUT****
================================================================================


                 $$$$$$$$$$$$$$$$$$$$$$$$$$$$$$$$$$$$$$$$$$$$$$ 
                 $ THERE ARE  3 JOBS TO BE PROCESSED THIS RUN $
                 $$$$$$$$$$$$$$$$$$$$$$$$$$$$$$$$$$$$$$$$$$$$$$ 




                 $$$$$$$$$$$$$$$$  JOB NUMBER  1 $$$$$$$$$$$$$$


                       ****************************
                       * Single Point Calculation *
                       ****************************

---------------------------------
CARTESIAN COORDINATES (ANGSTROEM)
---------------------------------
  C     -2.339479   -1.192926    0.658833
  C     -1.070991   -0.691205    0.895997
  C     -3.190783   -0.535074   -0.213605
  C     -2.767459    0.622632   -0.843412
  C     -1.496747    1.119166   -0.602793
  C     -0.623564    0.474491    0.271166
  H     -1.181729    2.026821   -1.102951
  H     -4.183140   -0.923747   -0.400319
  H     -3.429343    1.141963   -1.524110
  H     -2.665987   -2.095575    1.158575
  H     -0.422876   -1.215577    1.590157
  B      2.388952   -0.309556   -0.222141
  O      3.732103   -0.127276   -0.167474
  O      1.920242   -1.451283   -0.803902
  H      0.960528   -1.519811   -0.820739
  H      4.226000   -0.854298   -0.566420
  Si     1.129771    1.083368    0.548070
  H      1.279094    2.396737   -0.121513
  H      1.371283    1.270080    1.998929

----------------------------
CARTESIAN COORDINATES (A.U.)
----------------------------
  NO LB      ZA    FRAG     MASS         X           Y           Z
   0 C     6.0000    0    12.011   -4.420975   -2.254303    1.245014
   1 C     6.0000    0    12.011   -2.023880   -1.306188    1.693189
   2 C     6.0000    0    12.011   -6.029706   -1.011143   -0.403655
   3 C     6.0000    0    12.011   -5.229740    1.176604   -1.593818
   4 C     6.0000    0    12.011   -2.828442    2.114917   -1.139114
   5 C     6.0000    0    12.011   -1.178365    0.896658    0.512429
   6 H     1.0000    0     1.008   -2.233144    3.830137   -2.084275
   7 H     1.0000    0     1.008   -7.904989   -1.745629   -0.756493
   8 H     1.0000    0     1.008   -6.480519    2.157997   -2.880150
   9 H     1.0000    0     1.008   -5.037985   -3.960063    2.189389
  10 H     1.0000    0     1.008   -0.799120   -2.297108    3.004961
  11 B     5.0000    0    10.810    4.514465   -0.584976   -0.419786
  12 O     8.0000    0    15.999    7.052653   -0.240517   -0.316480
  13 O     8.0000    0    15.999    3.628731   -2.742527   -1.519155
  14 H     1.0000    0     1.008    1.815135   -2.872027   -1.550972
  15 H     1.0000    0     1.008    7.985983   -1.614389   -1.070379
  16 Si   14.0000    0    28.086    2.134958    2.047269    1.035702
  17 H     1.0000    0     1.008    2.417137    4.529177   -0.229626
  18 H     1.0000    0     1.008    2.591349    2.400103    3.777428

--------------------------------
INTERNAL COORDINATES (ANGSTROEM)
--------------------------------
 C      0   0   0     0.000000000000     0.00000000     0.00000000
 C      1   0   0     1.384569438808     0.00000000     0.00000000
 C      1   2   0     1.385148301867   119.92429515     0.00000000
 C      3   1   2     1.384248261209   119.72416264   359.95519925
 C      4   3   1     1.385334798257   120.08270088     0.09233464
 C      5   4   3     1.393505917029   121.19012678   359.88165968
 H      5   4   3     1.083158328368   119.13789485   180.07042516
 H      3   1   2     1.081989479697   120.11690145   180.07296215
 H      4   3   1     1.082194476155   120.03254069   180.15061449
 H      1   2   3     1.082185177236   119.97123152   180.28073841
 H      2   1   3     1.084839690097   118.80244265   179.40180805
 B      6   5   4     3.151719236340   128.01416056   130.92000395
 O     12   6   5     1.356565180185   155.04601292    94.34099539
 O     12   6   5     1.364432287712    86.93620679   274.56586017
 H     14  12   6     0.962304802622   114.18249540     0.47015756
 H     13  12   6     0.965221811818   112.87786269   180.51831301
 Si     6   5   4     1.876590165318   121.86310635   177.00146993
 H     17   6   5     1.481747914586   108.36480066     8.76644111
 H     17   6   5     1.482626471829   109.72166895   126.84345215

---------------------------
INTERNAL COORDINATES (A.U.)
---------------------------
 C      0   0   0     0.000000000000     0.00000000     0.00000000
 C      1   0   0     2.616457052744     0.00000000     0.00000000
 C      1   2   0     2.617550945394   119.92429515     0.00000000
 C      3   1   2     2.615850115042   119.72416264   359.95519925
 C      4   3   1     2.617903372496   120.08270088     0.09233464
 C      5   4   3     2.633344549184   121.19012678   359.88165968
 H      5   4   3     2.046872600292   119.13789485   180.07042516
 H      3   1   2     2.044663796410   120.11690145   180.07296215
 H      4   3   1     2.045051183576   120.03254069   180.15061449
 H      1   2   3     2.045033611165   119.97123152   180.28073841
 H      2   1   3     2.050049913491   118.80244265   179.40180805
 B      6   5   4     5.955886207694   128.01416056   130.92000395
 O     12   6   5     2.563536673363   155.04601292    94.34099539
 O     12   6   5     2.578403352055    86.93620679   274.56586017
 H     14  12   6     1.818492534312   114.18249540     0.47015756
 H     13  12   6     1.824004882823   112.87786269   180.51831301
 Si     6   5   4     3.546241478062   121.86310635   177.00146993
 H     17   6   5     2.800097758076   108.36480066     8.76644111
 H     17   6   5     2.801757990659   109.72166895   126.84345215

---------------------
BASIS SET INFORMATION
---------------------
There are 5 groups of distinct atoms

 Group   1 Type C   : 18s5p2d contracted to 4s3p2d pattern {8811/311/11}
 Group   2 Type H   : 5s2p contracted to 3s2p pattern {311/11}
 Group   3 Type B   : 18s5p2d contracted to 4s3p2d pattern {8811/311/11}
 Group   4 Type O   : 18s5p2d contracted to 4s3p2d pattern {8811/311/11}
 Group   5 Type Si  : 35s16p2d contracted to 5s4p2d pattern {11111111/7711/11}

Atom   0C    basis set group =>   1
Atom   1C    basis set group =>   1
Atom   2C    basis set group =>   1
Atom   3C    basis set group =>   1
Atom   4C    basis set group =>   1
Atom   5C    basis set group =>   1
Atom   6H    basis set group =>   2
Atom   7H    basis set group =>   2
Atom   8H    basis set group =>   2
Atom   9H    basis set group =>   2
Atom  10H    basis set group =>   2
Atom  11B    basis set group =>   3
Atom  12O    basis set group =>   4
Atom  13O    basis set group =>   4
Atom  14H    basis set group =>   2
Atom  15H    basis set group =>   2
Atom  16Si   basis set group =>   5
Atom  17H    basis set group =>   2
Atom  18H    basis set group =>   2
---------------------------------
AUXILIARY/C BASIS SET INFORMATION
---------------------------------
There are 5 groups of distinct atoms

 Group   1 Type C   : 8s6p5d3f contracted to 8s6p5d3f pattern {11111111/111111/11111/111}
 Group   2 Type H   : 4s3p2d contracted to 4s3p2d pattern {1111/111/11}
 Group   3 Type B   : 8s6p5d3f contracted to 8s6p5d3f pattern {11111111/111111/11111/111}
 Group   4 Type O   : 8s6p5d3f contracted to 8s6p5d3f pattern {11111111/111111/11111/111}
 Group   5 Type Si  : 10s8p6d4f contracted to 10s8p6d4f pattern {1111111111/11111111/111111/1111}

Atom   0C    basis set group =>   1
Atom   1C    basis set group =>   1
Atom   2C    basis set group =>   1
Atom   3C    basis set group =>   1
Atom   4C    basis set group =>   1
Atom   5C    basis set group =>   1
Atom   6H    basis set group =>   2
Atom   7H    basis set group =>   2
Atom   8H    basis set group =>   2
Atom   9H    basis set group =>   2
Atom  10H    basis set group =>   2
Atom  11B    basis set group =>   3
Atom  12O    basis set group =>   4
Atom  13O    basis set group =>   4
Atom  14H    basis set group =>   2
Atom  15H    basis set group =>   2
Atom  16Si   basis set group =>   5
Atom  17H    basis set group =>   2
Atom  18H    basis set group =>   2


           ************************************************************
           *        Program running with 16 parallel MPI-processes    *
           *              working on a common directory               *
           ************************************************************
------------------------------------------------------------------------------
                           ORCA GTO INTEGRAL CALCULATION
------------------------------------------------------------------------------
------------------------------------------------------------------------------
                   ___                                                        
                  /   \      - P O W E R E D   B Y -                         
                 /     \                                                     
                 |  |  |   _    _      __       _____    __    __             
                 |  |  |  | |  | |    /  \     |  _  \  |  |  /  |          
                  \  \/   | |  | |   /    \    | | | |  |  | /  /          
                 / \  \   | |__| |  /  /\  \   | |_| |  |  |/  /          
                |  |  |   |  __  | /  /__\  \  |    /   |      \           
                |  |  |   | |  | | |   __   |  |    \   |  |\   \          
                \     /   | |  | | |  |  |  |  | |\  \  |  | \   \       
                 \___/    |_|  |_| |__|  |__|  |_| \__\ |__|  \__/        
                                                                              
                      - O R C A' S   B I G   F R I E N D -                    
                                      &                                       
                       - I N T E G R A L  F E E D E R -                       
                                                                              
 v1 FN, 2020, v2 2021                                                         
------------------------------------------------------------------------------


Reading SHARK input file DZ_B-Si_53_AB.SHARKINP.tmp ... ok
----------------------
SHARK INTEGRAL PACKAGE
----------------------

Number of atoms                             ...     19
Number of basis functions                   ...    392
Number of shells                            ...    204
Maximum angular momentum                    ...      2
Integral batch strategy                     ... SHARK/LIBINT Hybrid
RI-J (if used) integral strategy            ... SPLIT-RIJ (Revised 2003 algorithm where possible)
Printlevel                                  ...      1
Contraction scheme used                     ... PARTIAL GENERAL contraction
Coulomb Range Separation                    ... NOT USED
Exchange Range Separation                   ... NOT USED
Finite Nucleus Model                        ... NOT USED
Auxiliary Coulomb fitting basis             ... NOT available
Auxiliary J/K fitting basis                 ... NOT available
Auxiliary Correlation fitting basis         ... AVAILABLE
   # of basis functions in Aux-C            ...    947
   # of shells in Aux-C                     ...    307
   Maximum angular momentum in Aux-C        ...      3
Auxiliary 'external' fitting basis          ... NOT available
Integral threshold                          ...     2.500000e-11
Primitive cut-off                           ...     2.500000e-12
Primitive pair pre-selection threshold      ...     2.500000e-12

Calculating pre-screening integrals         ... done (  0.0 sec) Dimension = 204
Calculating pre-screening integrals (ORCA)  ... done (  0.5 sec) Dimension = 137
Organizing shell pair data                  ... done (  0.1 sec)
Shell pair information
Total number of shell pairs                 ...     20910
Shell pairs after pre-screening             ...     16421
Total number of primitive shell pairs       ...     28974
Primitive shell pairs kept                  ...     20836
          la=0 lb=0:   5643 shell pairs
          la=1 lb=0:   5871 shell pairs
          la=1 lb=1:   1398 shell pairs
          la=2 lb=0:   2281 shell pairs
          la=2 lb=1:   1025 shell pairs
          la=2 lb=2:    203 shell pairs

Calculating one electron integrals          ... done (  0.0 sec)
Calculating RI/C V-Matrix + Cholesky decomp.... done (  0.1 sec)
Calculating Nuclear repulsion               ... done (  0.1 sec) ENN=    546.699044794803 Eh

SHARK setup successfully completed in   1.3 seconds

Maximum memory used throughout the entire GTOINT-calculation: 37.1 MB


           ************************************************************
           *        Program running with 16 parallel MPI-processes    *
           *              working on a common directory               *
           ************************************************************
-------------------------------------------------------------------------------
                                 ORCA SCF
-------------------------------------------------------------------------------

------------
SCF SETTINGS
------------
Hamiltonian:
 Ab initio Hamiltonian  Method          .... Hartree-Fock(GTOs)


General Settings:
 Integral files         IntName         .... DZ_B-Si_53_AB
 Hartree-Fock type      HFTyp           .... RHF
 Total Charge           Charge          ....    0
 Multiplicity           Mult            ....    1
 Number of Electrons    NEL             ....   80
 Basis Dimension        Dim             ....  315
 Nuclear Repulsion      ENuc            ....    546.6990447948 Eh

Convergence Acceleration:
 DIIS                   CNVDIIS         .... on
   Start iteration      DIISMaxIt       ....    12
   Startup error        DIISStart       ....  0.200000
   # of expansion vecs  DIISMaxEq       ....     5
   Bias factor          DIISBfac        ....   1.050
   Max. coefficient     DIISMaxC        ....  10.000
 Trust-Rad. Augm. Hess. CNVTRAH         .... auto
   Auto Start mean grad. ratio tolernc. ....  1.125000
   Auto Start start iteration           ....    20
   Auto Start num. interpolation iter.  ....    10
   Max. Number of Micro iterations      ....    16
   Max. Number of Macro iterations      .... Maxiter - #DIIS iter
   Number of Davidson start vectors     ....     2
   Converg. threshold I  (grad. norm)   ....   1.000e-05
   Converg. threshold II (energy diff.) ....   1.000e-08
   Grad. Scal. Fac. for Micro threshold ....   0.100
   Minimum threshold for Micro iter.    ....   0.010
   NR start threshold (gradient norm)   ....   0.001
   Initial trust radius                 ....   0.400
   Minimum AH scaling param. (alpha)    ....   1.000
   Maximum AH scaling param. (alpha)    .... 1000.000
   Orbital update algorithm             .... Taylor
   White noise on init. David. guess    .... on
   Maximum white noise                  ....   0.010
   Quad. conv. algorithm                .... NR
 SOSCF                  CNVSOSCF        .... on
   Start iteration      SOSCFMaxIt      ....   150
   Startup grad/error   SOSCFStart      ....  0.003300
 Level Shifting         CNVShift        .... on
   Level shift para.    LevelShift      ....    0.2500
   Turn off err/grad.   ShiftErr        ....    0.0010
 Zerner damping         CNVZerner       .... off
 Static damping         CNVDamp         .... on
   Fraction old density DampFac         ....    0.7000
   Max. Damping (<1)    DampMax         ....    0.9800
   Min. Damping (>=0)   DampMin         ....    0.0000
   Turn off err/grad.   DampErr         ....    0.1000
 Fernandez-Rico         CNVRico         .... off

SCF Procedure:
 Maximum # iterations   MaxIter         ....   125
 SCF integral mode      SCFMode         .... Direct
   Integral package                     .... SHARK and LIBINT hybrid scheme
 Reset frequency        DirectResetFreq ....    20
 Integral Threshold     Thresh          ....  2.500e-11 Eh
 Primitive CutOff       TCut            ....  2.500e-12 Eh

Convergence Tolerance:
 Convergence Check Mode ConvCheckMode   .... Total+1el-Energy
 Convergence forced     ConvForced      .... 1
 Energy Change          TolE            ....  1.000e-08 Eh
 1-El. energy change                    ....  1.000e-05 Eh
 Orbital Gradient       TolG            ....  1.000e-05
 Orbital Rotation angle TolX            ....  1.000e-05
 DIIS Error             TolErr          ....  5.000e-07


Diagonalization of the overlap matrix:
Smallest eigenvalue                        ... 2.154e-06
Time for diagonalization                   ...    0.011 sec
Threshold for overlap eigenvalues          ... 1.000e-08
Number of eigenvalues below threshold      ... 0
Time for construction of square roots      ...    0.012 sec
Total time needed                          ...    0.023 sec

Time for model grid setup =    1.225 sec

------------------------------
INITIAL GUESS: MODEL POTENTIAL
------------------------------
Loading Hartree-Fock densities                     ... done
Calculating cut-offs                               ... done
Initializing the effective Hamiltonian             ... done
Setting up the integral package (SHARK)            ... done
Starting the Coulomb interaction                   ... done (   0.1 sec)
Reading the grid                                   ... done
Mapping shells                                     ... done
Starting the XC term evaluation                    ... done (   0.0 sec)
Transforming the Hamiltonian                       ... done (   0.0 sec)
Diagonalizing the Hamiltonian                      ... done (   0.0 sec)
Back transforming the eigenvectors                 ... done (   0.0 sec)
Now organizing SCF variables                       ... done
                      ------------------
                      INITIAL GUESS DONE (   1.4 sec)
                      ------------------
--------------
SCF ITERATIONS
--------------
ITER       Energy         Delta-E        Max-DP      RMS-DP      [F,P]     Damp
               ***  Starting incremental Fock matrix formation  ***
  0   -695.5561723287   0.000000000000 2.00501996  0.03033887  0.2599917 0.7000
  1   -695.6949586277  -0.138786299007 1.53313152  0.02308570  0.1572404 0.7000
                               ***Turning on DIIS***
  2   -695.7786368574  -0.083678229713 3.66887301  0.05414555  0.0915921 0.0000
  3   -695.0328147869   0.745822070527 0.10739252  0.00181192  0.0473060 0.0000
  4   -695.9157381393  -0.882923352404 0.12583183  0.00143033  0.0056179 0.0000
  5   -695.9345745733  -0.018836433980 0.03483630  0.00042159  0.0036052 0.0000
                      *** Initiating the SOSCF procedure ***
                           *** Shutting down DIIS ***
                      *** Re-Reading the Fockian *** 
                      *** Removing any level shift *** 
ITER      Energy       Delta-E        Grad      Rot      Max-DP    RMS-DP
  6   -695.95019280  -0.0156182253  0.000439  0.000439  0.003594  0.000073
               *** Restarting incremental Fock matrix formation ***
  7   -695.95359804  -0.0034052383  0.000185  0.000339  0.001503  0.000036
  8   -695.95360176  -0.0000037271  0.000067  0.000236  0.001788  0.000029
  9   -695.95360252  -0.0000007541  0.000044  0.000039  0.000332  0.000007
 10   -695.95360258  -0.0000000668  0.000010  0.000020  0.000087  0.000002
 11   -695.95360259  -0.0000000077  0.000006  0.000025  0.000103  0.000002
                  ***Gradient check signals convergence***
              ***Rediagonalizing the Fockian in SOSCF/NRSCF***

               *****************************************************
               *                     SUCCESS                       *
               *           SCF CONVERGED AFTER  12 CYCLES          *
               *****************************************************


----------------
TOTAL SCF ENERGY
----------------

Total Energy       :         -695.95360260 Eh          -18937.86031 eV

Components:
Nuclear Repulsion  :          546.69904479 Eh           14876.43731 eV
Electronic Energy  :        -1242.65264739 Eh          -33814.29762 eV
One Electron Energy:        -2041.08109511 Eh          -55540.64023 eV
Two Electron Energy:          798.42844772 Eh           21726.34261 eV

Virial components:
Potential Energy   :        -1391.85880512 Eh          -37874.40358 eV
Kinetic Energy     :          695.90520252 Eh           18936.54328 eV
Virial Ratio       :            2.00006955


---------------
SCF CONVERGENCE
---------------

  Last Energy change         ...   -5.6709e-09  Tolerance :   1.0000e-08
  Last MAX-Density change    ...    1.2654e-04  Tolerance :   1.0000e-07
  Last RMS-Density change    ...    1.5495e-06  Tolerance :   5.0000e-09
  Last Orbital Gradient      ...    2.2762e-06  Tolerance :   1.0000e-05
  Last Orbital Rotation      ...    1.0790e-05  Tolerance :   1.0000e-05

             **** THE GBW FILE WAS UPDATED (DZ_B-Si_53_AB.gbw) ****
             **** DENSITY DZ_B-Si_53_AB.scfp WAS UPDATED ****
             **** ENERGY FILE WAS UPDATED (DZ_B-Si_53_AB.en.tmp) ****
             **** THE GBW FILE WAS UPDATED (DZ_B-Si_53_AB.gbw) ****
             **** DENSITY DZ_B-Si_53_AB.scfp WAS UPDATED ****
----------------
ORBITAL ENERGIES
----------------

  NO   OCC          E(Eh)            E(eV) 
   0   2.0000     -68.765124     -1871.1942 
   1   2.0000     -20.581807      -560.0594 
   2   2.0000     -20.576599      -559.9177 
   3   2.0000     -11.250345      -306.1375 
   4   2.0000     -11.249007      -306.1011 
   5   2.0000     -11.248295      -306.0817 
   6   2.0000     -11.247268      -306.0537 
   7   2.0000     -11.245906      -306.0166 
   8   2.0000     -11.233058      -305.6671 
   9   2.0000      -7.647529      -208.0998 
  10   2.0000      -6.115279      -166.4052 
  11   2.0000      -4.221445      -114.8714 
  12   2.0000      -4.221295      -114.8673 
  13   2.0000      -4.220693      -114.8509 
  14   2.0000      -1.392319       -37.8869 
  15   2.0000      -1.351102       -36.7654 
  16   2.0000      -1.165243       -31.7079 
  17   2.0000      -1.028206       -27.9789 
  18   2.0000      -1.026333       -27.9279 
  19   2.0000      -0.835960       -22.7476 
  20   2.0000      -0.835268       -22.7288 
  21   2.0000      -0.779114       -21.2008 
  22   2.0000      -0.747395       -20.3376 
  23   2.0000      -0.725174       -19.7330 
  24   2.0000      -0.682004       -18.5583 
  25   2.0000      -0.634859       -17.2754 
  26   2.0000      -0.633813       -17.2469 
  27   2.0000      -0.611017       -16.6266 
  28   2.0000      -0.595990       -16.2177 
  29   2.0000      -0.574865       -15.6429 
  30   2.0000      -0.566628       -15.4187 
  31   2.0000      -0.553830       -15.0705 
  32   2.0000      -0.516639       -14.0585 
  33   2.0000      -0.502199       -13.6655 
  34   2.0000      -0.499840       -13.6013 
  35   2.0000      -0.472042       -12.8449 
  36   2.0000      -0.452060       -12.3012 
  37   2.0000      -0.417266       -11.3544 
  38   2.0000      -0.347628        -9.4594 
  39   2.0000      -0.341688        -9.2978 
  40   0.0000       0.030409         0.8275 
  41   0.0000       0.037860         1.0302 
  42   0.0000       0.040444         1.1005 
  43   0.0000       0.046796         1.2734 
  44   0.0000       0.054890         1.4936 
  45   0.0000       0.057239         1.5576 
  46   0.0000       0.068346         1.8598 
  47   0.0000       0.070276         1.9123 
  48   0.0000       0.071678         1.9505 
  49   0.0000       0.074332         2.0227 
  50   0.0000       0.086339         2.3494 
  51   0.0000       0.090835         2.4717 
  52   0.0000       0.096074         2.6143 
  53   0.0000       0.097324         2.6483 
  54   0.0000       0.103954         2.8287 
  55   0.0000       0.107974         2.9381 
  56   0.0000       0.113985         3.1017 
  57   0.0000       0.127482         3.4690 
  58   0.0000       0.135463         3.6861 
  59   0.0000       0.138515         3.7692 
  60   0.0000       0.146287         3.9807 
  61   0.0000       0.149329         4.0634 
  62   0.0000       0.152727         4.1559 
  63   0.0000       0.153549         4.1783 
  64   0.0000       0.157128         4.2757 
  65   0.0000       0.162181         4.4132 
  66   0.0000       0.168299         4.5797 
  67   0.0000       0.169391         4.6094 
  68   0.0000       0.180804         4.9199 
  69   0.0000       0.181566         4.9406 
  70   0.0000       0.184533         5.0214 
  71   0.0000       0.187512         5.1025 
  72   0.0000       0.196308         5.3418 
  73   0.0000       0.201259         5.4765 
  74   0.0000       0.203570         5.5394 
  75   0.0000       0.206550         5.6205 
  76   0.0000       0.216678         5.8961 
  77   0.0000       0.224391         6.1060 
  78   0.0000       0.232244         6.3197 
  79   0.0000       0.244192         6.6448 
  80   0.0000       0.250099         6.8055 
  81   0.0000       0.254970         6.9381 
  82   0.0000       0.262089         7.1318 
  83   0.0000       0.266624         7.2552 
  84   0.0000       0.271935         7.3997 
  85   0.0000       0.274635         7.4732 
  86   0.0000       0.289412         7.8753 
  87   0.0000       0.298030         8.1098 
  88   0.0000       0.300948         8.1892 
  89   0.0000       0.309761         8.4290 
  90   0.0000       0.313072         8.5191 
  91   0.0000       0.322962         8.7883 
  92   0.0000       0.324341         8.8258 
  93   0.0000       0.328641         8.9428 
  94   0.0000       0.330076         8.9818 
  95   0.0000       0.343334         9.3426 
  96   0.0000       0.349131         9.5004 
  97   0.0000       0.356291         9.6952 
  98   0.0000       0.370469        10.0810 
  99   0.0000       0.371076        10.0975 
 100   0.0000       0.379620        10.3300 
 101   0.0000       0.381329        10.3765 
 102   0.0000       0.383278        10.4295 
 103   0.0000       0.399531        10.8718 
 104   0.0000       0.401912        10.9366 
 105   0.0000       0.403109        10.9692 
 106   0.0000       0.407604        11.0915 
 107   0.0000       0.415903        11.3173 
 108   0.0000       0.422862        11.5067 
 109   0.0000       0.433418        11.7939 
 110   0.0000       0.435804        11.8588 
 111   0.0000       0.439549        11.9607 
 112   0.0000       0.446721        12.1559 
 113   0.0000       0.455903        12.4057 
 114   0.0000       0.461447        12.5566 
 115   0.0000       0.471747        12.8369 
 116   0.0000       0.474714        12.9176 
 117   0.0000       0.489457        13.3188 
 118   0.0000       0.510373        13.8879 
 119   0.0000       0.517697        14.0873 
 120   0.0000       0.523881        14.2555 
 121   0.0000       0.525089        14.2884 
 122   0.0000       0.541471        14.7342 
 123   0.0000       0.556700        15.1486 
 124   0.0000       0.568068        15.4579 
 125   0.0000       0.570132        15.5141 
 126   0.0000       0.578752        15.7486 
 127   0.0000       0.587379        15.9834 
 128   0.0000       0.591435        16.0938 
 129   0.0000       0.593587        16.1523 
 130   0.0000       0.595018        16.1913 
 131   0.0000       0.604747        16.4560 
 132   0.0000       0.606585        16.5060 
 133   0.0000       0.615070        16.7369 
 134   0.0000       0.618901        16.8411 
 135   0.0000       0.621892        16.9225 
 136   0.0000       0.631320        17.1791 
 137   0.0000       0.641722        17.4622 
 138   0.0000       0.647846        17.6288 
 139   0.0000       0.656513        17.8646 
 140   0.0000       0.663924        18.0663 
 141   0.0000       0.666726        18.1425 
 142   0.0000       0.669493        18.2178 
 143   0.0000       0.679922        18.5016 
 144   0.0000       0.689165        18.7531 
 145   0.0000       0.693290        18.8654 
 146   0.0000       0.698543        19.0083 
 147   0.0000       0.701780        19.0964 
 148   0.0000       0.706440        19.2232 
 149   0.0000       0.718188        19.5429 
 150   0.0000       0.724624        19.7180 
 151   0.0000       0.729303        19.8454 
 152   0.0000       0.734513        19.9871 
 153   0.0000       0.742505        20.2046 
 154   0.0000       0.748741        20.3743 
 155   0.0000       0.757020        20.5995 
 156   0.0000       0.767006        20.8713 
 157   0.0000       0.771792        21.0015 
 158   0.0000       0.784620        21.3506 
 159   0.0000       0.794741        21.6260 
 160   0.0000       0.801454        21.8087 
 161   0.0000       0.810226        22.0474 
 162   0.0000       0.823778        22.4161 
 163   0.0000       0.827954        22.5298 
 164   0.0000       0.846446        23.0330 
 165   0.0000       0.851988        23.1838 
 166   0.0000       0.859766        23.3954 
 167   0.0000       0.874226        23.7889 
 168   0.0000       0.888058        24.1653 
 169   0.0000       0.894831        24.3496 
 170   0.0000       0.896811        24.4035 
 171   0.0000       0.921190        25.0668 
 172   0.0000       0.931402        25.3447 
 173   0.0000       0.934245        25.4221 
 174   0.0000       0.938810        25.5463 
 175   0.0000       0.943827        25.6828 
 176   0.0000       0.962655        26.1952 
 177   0.0000       0.972411        26.4607 
 178   0.0000       0.979251        26.6468 
 179   0.0000       0.985384        26.8137 
 180   0.0000       0.988110        26.8878 
 181   0.0000       1.002816        27.2880 
 182   0.0000       1.010225        27.4896 
 183   0.0000       1.018663        27.7192 
 184   0.0000       1.046574        28.4787 
 185   0.0000       1.058421        28.8011 
 186   0.0000       1.070317        29.1248 
 187   0.0000       1.075585        29.2682 
 188   0.0000       1.088555        29.6211 
 189   0.0000       1.095083        29.7987 
 190   0.0000       1.109205        30.1830 
 191   0.0000       1.129805        30.7436 
 192   0.0000       1.145136        31.1607 
 193   0.0000       1.154775        31.4230 
 194   0.0000       1.165937        31.7268 
 195   0.0000       1.184970        32.2447 
 196   0.0000       1.195906        32.5423 
 197   0.0000       1.209691        32.9174 
 198   0.0000       1.234077        33.5809 
 199   0.0000       1.240266        33.7494 
 200   0.0000       1.252809        34.0907 
 201   0.0000       1.275606        34.7110 
 202   0.0000       1.285235        34.9730 
 203   0.0000       1.308359        35.6023 
 204   0.0000       1.315166        35.7875 
 205   0.0000       1.360646        37.0251 
 206   0.0000       1.395741        37.9800 
 207   0.0000       1.417872        38.5823 
 208   0.0000       1.442007        39.2390 
 209   0.0000       1.462941        39.8086 
 210   0.0000       1.481927        40.3253 
 211   0.0000       1.506294        40.9883 
 212   0.0000       1.515298        41.2334 
 213   0.0000       1.527475        41.5647 
 214   0.0000       1.537690        41.8427 
 215   0.0000       1.550715        42.1971 
 216   0.0000       1.564687        42.5773 
 217   0.0000       1.571410        42.7602 
 218   0.0000       1.582168        43.0530 
 219   0.0000       1.593358        43.3575 
 220   0.0000       1.601115        43.5686 
 221   0.0000       1.612624        43.8817 
 222   0.0000       1.624211        44.1970 
 223   0.0000       1.635809        44.5126 
 224   0.0000       1.646042        44.7911 
 225   0.0000       1.651698        44.9450 
 226   0.0000       1.682900        45.7940 
 227   0.0000       1.686483        45.8915 
 228   0.0000       1.697954        46.2037 
 229   0.0000       1.708465        46.4897 
 230   0.0000       1.717528        46.7363 
 231   0.0000       1.729041        47.0496 
 232   0.0000       1.733277        47.1649 
 233   0.0000       1.764465        48.0135 
 234   0.0000       1.779123        48.4124 
 235   0.0000       1.802228        49.0411 
 236   0.0000       1.812548        49.3219 
 237   0.0000       1.821490        49.5653 
 238   0.0000       1.848563        50.3020 
 239   0.0000       1.872748        50.9601 
 240   0.0000       1.875342        51.0307 
 241   0.0000       1.894254        51.5453 
 242   0.0000       1.909830        51.9691 
 243   0.0000       1.930867        52.5416 
 244   0.0000       1.946647        52.9709 
 245   0.0000       1.958041        53.2810 
 246   0.0000       1.970323        53.6152 
 247   0.0000       1.980926        53.9037 
 248   0.0000       1.987435        54.0809 
 249   0.0000       2.014005        54.8039 
 250   0.0000       2.017753        54.9059 
 251   0.0000       2.042610        55.5822 
 252   0.0000       2.068357        56.2828 
 253   0.0000       2.078619        56.5621 
 254   0.0000       2.099578        57.1324 
 255   0.0000       2.108649        57.3793 
 256   0.0000       2.109260        57.3959 
 257   0.0000       2.129793        57.9546 
 258   0.0000       2.132580        58.0305 
 259   0.0000       2.154460        58.6258 
 260   0.0000       2.164249        58.8922 
 261   0.0000       2.176420        59.2234 
 262   0.0000       2.189281        59.5734 
 263   0.0000       2.211369        60.1744 
 264   0.0000       2.238170        60.9037 
 265   0.0000       2.247562        61.1593 
 266   0.0000       2.260458        61.5102 
 267   0.0000       2.269447        61.7548 
 268   0.0000       2.275787        61.9273 
 269   0.0000       2.308675        62.8222 
 270   0.0000       2.319586        63.1191 
 271   0.0000       2.334140        63.5152 
 272   0.0000       2.367573        64.4249 
 273   0.0000       2.379985        64.7627 
 274   0.0000       2.417627        65.7870 
 275   0.0000       2.430746        66.1440 
 276   0.0000       2.446321        66.5678 
 277   0.0000       2.460071        66.9419 
 278   0.0000       2.474546        67.3358 
 279   0.0000       2.525802        68.7306 
 280   0.0000       2.576180        70.1014 
 281   0.0000       2.612581        71.0919 
 282   0.0000       2.640105        71.8409 
 283   0.0000       2.643831        71.9423 
 284   0.0000       2.694627        73.3245 
 285   0.0000       2.709486        73.7289 
 286   0.0000       2.801751        76.2395 
 287   0.0000       2.823650        76.8354 
 288   0.0000       2.835400        77.1552 
 289   0.0000       2.851614        77.5964 
 290   0.0000       2.929242        79.7087 
 291   0.0000       2.984983        81.2255 
 292   0.0000       3.025224        82.3205 
 293   0.0000       3.044706        82.8507 
 294   0.0000       3.126024        85.0634 
 295   0.0000       3.139881        85.4405 
 296   0.0000       3.145528        85.5942 
 297   0.0000       3.185798        86.6900 
 298   0.0000       3.320796        90.3634 
 299   0.0000       3.354826        91.2895 
 300   0.0000       3.489377        94.9508 
 301   0.0000       3.607857        98.1748 
 302   0.0000       3.630814        98.7995 
 303   0.0000       3.663334        99.6844 
 304   0.0000       3.688262       100.3627 
 305   0.0000       3.712903       101.0332 
 306   0.0000       3.753251       102.1312 
 307   0.0000       3.760119       102.3180 
 308   0.0000       3.790803       103.1530 
 309   0.0000       3.857235       104.9607 
 310   0.0000       3.902599       106.1951 
 311   0.0000       3.917455       106.5994 
 312   0.0000       4.269480       116.1785 
 313   0.0000       4.325425       117.7008 
 314   0.0000       4.744651       129.1085 

                    ********************************
                    * MULLIKEN POPULATION ANALYSIS *
                    ********************************

-----------------------
MULLIKEN ATOMIC CHARGES
-----------------------
   0 C :    0.502480
   1 C :    0.978609
   2 C :    0.596689
   3 C :    0.651559
   4 C :    0.648151
   5 C :   -0.793101
   6 H :   -0.585437
   7 H :   -0.442007
   8 H :   -0.451018
   9 H :   -0.459157
  10 H :   -0.640047
  11 B :    1.048251
  12 O :   -0.695689
  13 O :   -0.747356
  14 H :    0.307062
  15 H :    0.230641
  16 Si:   -0.275693
  17 H :    0.027346
  18 H :    0.098715
Sum of atomic charges:    0.0000000

--------------------------------
MULLIKEN REDUCED ORBITAL CHARGES
--------------------------------
  0 C s       :     2.778910  s :     2.778910
      pz      :     0.945995  p :     2.883447
      px      :     1.048625
      py      :     0.888827
      dz2     :     0.004330  d :    -0.164837
      dxz     :    -0.041797
      dyz     :    -0.016565
      dx2y2   :    -0.065562
      dxy     :    -0.045244
  1 C s       :     2.502596  s :     2.502596
      pz      :     0.928164  p :     2.573998
      px      :     0.907937
      py      :     0.737896
      dz2     :    -0.007950  d :    -0.055202
      dxz     :    -0.028508
      dyz     :     0.051422
      dx2y2   :     0.042694
      dxy     :    -0.112860
  2 C s       :     2.873309  s :     2.873309
      pz      :     0.867858  p :     2.591986
      px      :     0.880772
      py      :     0.843356
      dz2     :     0.000687  d :    -0.061984
      dxz     :     0.012840
      dyz     :    -0.025640
      dx2y2   :    -0.037399
      dxy     :    -0.012472
  3 C s       :     2.707143  s :     2.707143
      pz      :     0.908346  p :     2.803341
      px      :     0.957091
      py      :     0.937905
      dz2     :    -0.009749  d :    -0.162044
      dxz     :    -0.037439
      dyz     :    -0.007450
      dx2y2   :    -0.030665
      dxy     :    -0.076741
  4 C s       :     2.735682  s :     2.735682
      pz      :     0.922919  p :     2.676389
      px      :     0.836607
      py      :     0.916863
      dz2     :     0.028813  d :    -0.060223
      dxz     :    -0.056737
      dyz     :     0.021388
      dx2y2   :    -0.055454
      dxy     :     0.001767
  5 C s       :     3.627314  s :     3.627314
      pz      :     1.274445  p :     3.240442
      px      :     0.749399
      py      :     1.216599
      dz2     :     0.008650  d :    -0.074655
      dxz     :     0.004911
      dyz     :    -0.030553
      dx2y2   :    -0.079382
      dxy     :     0.021718
  6 H s       :     1.606445  s :     1.606445
      pz      :     0.000607  p :    -0.021008
      px      :    -0.027780
      py      :     0.006165
  7 H s       :     1.443678  s :     1.443678
      pz      :    -0.001943  p :    -0.001671
      px      :     0.008391
      py      :    -0.008119
  8 H s       :     1.441936  s :     1.441936
      pz      :     0.010364  p :     0.009082
      px      :    -0.000773
      py      :    -0.000509
  9 H s       :     1.449521  s :     1.449521
      pz      :     0.005407  p :     0.009636
      px      :    -0.005690
      py      :     0.009919
 10 H s       :     1.646782  s :     1.646782
      pz      :     0.021166  p :    -0.006736
      px      :    -0.014519
      py      :    -0.013383
 11 B s       :     2.548717  s :     2.548717
      pz      :     0.254398  p :     1.194869
      px      :     0.520887
      py      :     0.419584
      dz2     :     0.009720  d :     0.208163
      dxz     :     0.059733
      dyz     :     0.009595
      dx2y2   :    -0.016031
      dxy     :     0.145146
 12 O s       :     4.005875  s :     4.005875
      pz      :     1.753989  p :     4.678765
      px      :     1.345352
      py      :     1.579424
      dz2     :     0.000813  d :     0.011049
      dxz     :     0.004426
      dyz     :    -0.000683
      dx2y2   :     0.002873
      dxy     :     0.003620
 13 O s       :     4.064672  s :     4.064672
      pz      :     1.778317  p :     4.673780
      px      :     1.291440
      py      :     1.604022
      dz2     :     0.000811  d :     0.008903
      dxz     :     0.000737
      dyz     :     0.004439
      dx2y2   :    -0.000424
      dxy     :     0.003340
 14 H s       :     0.644557  s :     0.644557
      pz      :     0.008120  p :     0.048380
      px      :     0.041750
      py      :    -0.001489
 15 H s       :     0.689069  s :     0.689069
      pz      :     0.026806  p :     0.080290
      px      :     0.015237
      py      :     0.038247
 16 Sis       :     4.798369  s :     4.798369
      pz      :     3.005066  p :     9.127104
      px      :     2.979310
      py      :     3.142728
      dz2     :     0.120602  d :     0.350220
      dxz     :     0.030035
      dyz     :     0.070067
      dx2y2   :     0.074475
      dxy     :     0.055041
 17 H s       :     0.942537  s :     0.942537
      pz      :     0.004623  p :     0.030117
      px      :    -0.001989
      py      :     0.027483
 18 H s       :     0.875147  s :     0.875147
      pz      :     0.024440  p :     0.026137
      px      :     0.004609
      py      :    -0.002912


                     *******************************
                     * LOEWDIN POPULATION ANALYSIS *
                     *******************************

----------------------
LOEWDIN ATOMIC CHARGES
----------------------
   0 C :    0.003050
   1 C :   -0.047130
   2 C :    0.008183
   3 C :    0.005620
   4 C :   -0.038631
   5 C :   -0.323230
   6 H :   -0.003480
   7 H :    0.003506
   8 H :    0.002941
   9 H :    0.002804
  10 H :    0.003816
  11 B :   -0.304810
  12 O :    0.096178
  13 O :    0.112675
  14 H :   -0.085853
  15 H :   -0.055793
  16 Si:    0.812213
  17 H :   -0.095150
  18 H :   -0.096909

-------------------------------
LOEWDIN REDUCED ORBITAL CHARGES
-------------------------------
  0 C s       :     2.604076  s :     2.604076
      pz      :     0.832852  p :     2.655440
      px      :     0.947360
      py      :     0.875227
      dz2     :     0.102654  d :     0.737435
      dxz     :     0.174876
      dyz     :     0.100895
      dx2y2   :     0.188488
      dxy     :     0.170521
  1 C s       :     2.600407  s :     2.600407
      pz      :     0.822400  p :     2.675792
      px      :     0.943737
      py      :     0.909655
      dz2     :     0.084907  d :     0.770931
      dxz     :     0.158257
      dyz     :     0.121807
      dx2y2   :     0.178874
      dxy     :     0.227086
  2 C s       :     2.605193  s :     2.605193
      pz      :     0.837735  p :     2.648853
      px      :     0.907657
      py      :     0.903462
      dz2     :     0.142765  d :     0.737771
      dxz     :     0.099551
      dyz     :     0.155013
      dx2y2   :     0.175405
      dxy     :     0.165036
  3 C s       :     2.604399  s :     2.604399
      pz      :     0.821688  p :     2.654010
      px      :     0.933218
      py      :     0.899103
      dz2     :     0.079648  d :     0.735971
      dxz     :     0.152212
      dyz     :     0.116745
      dx2y2   :     0.174467
      dxy     :     0.212899
  4 C s       :     2.603119  s :     2.603119
      pz      :     0.832213  p :     2.669395
      px      :     0.964265
      py      :     0.872918
      dz2     :     0.104318  d :     0.766117
      dxz     :     0.181676
      dyz     :     0.105458
      dx2y2   :     0.202914
      dxy     :     0.171752
  5 C s       :     2.639750  s :     2.639750
      pz      :     0.863200  p :     2.797888
      px      :     1.004700
      py      :     0.929989
      dz2     :     0.159854  d :     0.885593
      dxz     :     0.139157
      dyz     :     0.161641
      dx2y2   :     0.222070
      dxy     :     0.202870
  6 H s       :     0.736205  s :     0.736205
      pz      :     0.084433  p :     0.267275
      px      :     0.068350
      py      :     0.114492
  7 H s       :     0.739425  s :     0.739425
      pz      :     0.067912  p :     0.257068
      px      :     0.119749
      py      :     0.069408
  8 H s       :     0.739159  s :     0.739159
      pz      :     0.096140  p :     0.257900
      px      :     0.084499
      py      :     0.077261
  9 H s       :     0.739013  s :     0.739013
      pz      :     0.082373  p :     0.258183
      px      :     0.062967
      py      :     0.112843
 10 H s       :     0.733975  s :     0.733975
      pz      :     0.097096  p :     0.262209
      px      :     0.084294
      py      :     0.080819
 11 B s       :     2.428353  s :     2.428353
      pz      :     0.382614  p :     1.705877
      px      :     0.687853
      py      :     0.635410
      dz2     :     0.141400  d :     1.170580
      dxz     :     0.220498
      dyz     :     0.161530
      dx2y2   :     0.304385
      dxy     :     0.342767
 12 O s       :     3.247589  s :     3.247589
      pz      :     1.561789  p :     4.512759
      px      :     1.462893
      py      :     1.488077
      dz2     :     0.015292  d :     0.143474
      dxz     :     0.021389
      dyz     :     0.008751
      dx2y2   :     0.047410
      dxy     :     0.050632
 13 O s       :     3.236044  s :     3.236044
      pz      :     1.591196  p :     4.509967
      px      :     1.339761
      py      :     1.579011
      dz2     :     0.014399  d :     0.141314
      dxz     :     0.008934
      dyz     :     0.029642
      dx2y2   :     0.057041
      dxy     :     0.031298
 14 H s       :     0.612049  s :     0.612049
      pz      :     0.123033  p :     0.473804
      px      :     0.234049
      py      :     0.116722
 15 H s       :     0.615678  s :     0.615678
      pz      :     0.134220  p :     0.440115
      px      :     0.126567
      py      :     0.179328
 16 Sis       :     4.462133  s :     4.462133
      pz      :     2.691797  p :     7.991560
      px      :     2.607320
      py      :     2.692443
      dz2     :     0.180302  d :     0.734093
      dxz     :     0.109077
      dyz     :     0.114072
      dx2y2   :     0.174901
      dxy     :     0.155742
 17 H s       :     0.929085  s :     0.929085
      pz      :     0.049663  p :     0.166065
      px      :     0.026554
      py      :     0.089848
 18 H s       :     0.930786  s :     0.930786
      pz      :     0.101721  p :     0.166123
      px      :     0.028967
      py      :     0.035436


                      *****************************
                      * MAYER POPULATION ANALYSIS *
                      *****************************

  NA   - Mulliken gross atomic population
  ZA   - Total nuclear charge
  QA   - Mulliken gross atomic charge
  VA   - Mayer's total valence
  BVA  - Mayer's bonded valence
  FA   - Mayer's free valence

  ATOM       NA         ZA         QA         VA         BVA        FA
  0 C      5.4975     6.0000     0.5025     3.9821     3.9821    -0.0000
  1 C      5.0214     6.0000     0.9786     3.6705     3.6705    -0.0000
  2 C      5.4033     6.0000     0.5967     4.0901     4.0901     0.0000
  3 C      5.3484     6.0000     0.6516     3.7882     3.7882     0.0000
  4 C      5.3518     6.0000     0.6482     4.3088     4.3088     0.0000
  5 C      6.7931     6.0000    -0.7931     5.4331     5.4331    -0.0000
  6 H      1.5854     1.0000    -0.5854     0.4726     0.4726    -0.0000
  7 H      1.4420     1.0000    -0.4420     0.6922     0.6922     0.0000
  8 H      1.4510     1.0000    -0.4510     0.6856     0.6856     0.0000
  9 H      1.4592     1.0000    -0.4592     0.6903     0.6903     0.0000
 10 H      1.6400     1.0000    -0.6400     0.3576     0.3576     0.0000
 11 B      3.9517     5.0000     1.0483     2.4849     2.4849     0.0000
 12 O      8.6957     8.0000    -0.6957     1.6002     1.6002     0.0000
 13 O      8.7474     8.0000    -0.7474     1.4235     1.4235    -0.0000
 14 H      0.6929     1.0000     0.3071     0.8501     0.8501    -0.0000
 15 H      0.7694     1.0000     0.2306     0.9505     0.9505     0.0000
 16 Si    14.2757    14.0000    -0.2757     3.8068     3.8068     0.0000
 17 H      0.9727     1.0000     0.0273     1.1617     1.1617     0.0000
 18 H      0.9013     1.0000     0.0987     1.1169     1.1169     0.0000

  Mayer bond orders larger than 0.100000
B(  0-C ,  1-C ) :   1.7053 B(  0-C ,  2-C ) :   1.7516 B(  0-C ,  3-C ) :  -0.1627 
B(  0-C ,  4-C ) :   0.2985 B(  0-C ,  5-C ) :  -0.4365 B(  0-C ,  7-H ) :   0.2029 
B(  0-C ,  9-H ) :   0.2365 B(  0-C , 10-H ) :   0.2654 B(  1-C ,  3-C ) :   0.2076 
B(  1-C ,  4-C ) :   0.2063 B(  1-C ,  5-C ) :   1.6884 B(  1-C ,  9-H ) :   0.3477 
B(  1-C , 10-H ) :  -0.1711 B(  1-C , 13-O ) :  -0.1175 B(  1-C , 16-Si) :  -0.1322 
B(  2-C ,  3-C ) :   1.6991 B(  2-C ,  5-C ) :   0.1287 B(  2-C ,  7-H ) :   0.3170 
B(  2-C ,  8-H ) :   0.1480 B(  2-C ,  9-H ) :   0.1500 B(  2-C , 10-H ) :  -0.1113 
B(  3-C ,  4-C ) :   1.7240 B(  3-C ,  5-C ) :  -0.4272 B(  3-C ,  6-H ) :   0.1616 
B(  3-C ,  7-H ) :   0.2035 B(  3-C ,  8-H ) :   0.2714 B(  4-C ,  5-C ) :   2.1718 
B(  4-C ,  8-H ) :   0.3136 B(  4-C , 16-Si) :  -0.1907 B(  4-C , 18-H ) :  -0.1093 
B(  5-C ,  6-H ) :   0.3918 B(  5-C , 10-H ) :   0.4718 B(  5-C , 11-B ) :   0.1651 
B(  5-C , 13-O ) :   0.1313 B(  5-C , 16-Si) :   1.0468 B( 11-B , 12-O ) :   0.6797 
B( 11-B , 13-O ) :   0.6595 B( 11-B , 16-Si) :   1.0118 B( 12-O , 15-H ) :   0.9843 
B( 13-O , 14-H ) :   0.8260 B( 16-Si, 17-H ) :   0.9643 B( 16-Si, 18-H ) :   1.0287 


-------
TIMINGS
-------

Total SCF time: 0 days 0 hours 0 min 40 sec 

Total time                  ....      40.991 sec
Sum of individual times     ....      40.529 sec  ( 98.9%)

Fock matrix formation       ....      38.287 sec  ( 93.4%)
Diagonalization             ....       0.183 sec  (  0.4%)
Density matrix formation    ....       0.017 sec  (  0.0%)
Population analysis         ....       0.479 sec  (  1.2%)
Initial guess               ....       0.133 sec  (  0.3%)
Orbital Transformation      ....       0.000 sec  (  0.0%)
Orbital Orthonormalization  ....       0.000 sec  (  0.0%)
DIIS solution               ....       0.109 sec  (  0.3%)
SOSCF solution              ....       0.097 sec  (  0.2%)

Maximum memory used throughout the entire SCF-calculation: 240.4 MB


           ************************************************************
           *        Program running with 16 parallel MPI-processes    *
           *              working on a common directory               *
           ************************************************************

------------------------------------------------------------------------------
                                ORCA  MP2 
------------------------------------------------------------------------------

Freezing NCore=28 chemical core electrons

-------------
RI-MP2 ENERGY
-------------
Dimension of the basis                    ...  315
Memory devoted to MP2                     ... 3800 MB   
Data format for buffers                   ... DOUBLE
Compression type for matrix containers    ... UNCOMPRESSED
Overall scaling of the MP2 energy         ...   1.000e+00
Calculating two index integrals           ... done (    0.006 sec)
Cholesky decomposition of V**-1           ... done (    0.135 sec)

-----------------
RI-TRANSFORMATION (AUX index driven)
-----------------

Dimension of the orbital-basis         ... 315
Dimension of the aux-basis             ... 947
Transformation of internal/external MOs...   14-  39 to   40- 314
Number Format for Storage              ... Double (8 Byte)
Integral mode                          ... Direct

First Phase: integral generation and transformation of MO indices
  Aux angular momentum 0               ... done (    0.025 sec)
  Aux angular momentum 1               ... done (    0.031 sec)
  Aux angular momentum 2               ... done (    0.038 sec)
  Aux angular momentum 3               ... done (    0.021 sec)
Closing buffer VIA ( 0.05 GB; CompressionRatio= 1.00)
  Phase 1 completed in     0.874 sec
Second Phase: sorting and transformation of aux index

IA-Transformation
Memory available                       ... 3747 MB 
Max. # MO pairs treated in a batch     ... 2    
# of internal orbitals                 ... 26
# batches for internal orbitals        ... 1
Closing buffer IAV ( 0.05 GB; CompressionRatio= 1.00)
(ia|v) transformation done in     1.173 sec

  Phase 2 completed in     1.324 sec
RI-Integral transformation completed in     2.324 sec
Opening buffers                              ... done

Starting loop over batches of integrals:

Operator 0  - window                       ... ( 14- 39)x( 40-314)
Operator 0  - Memory available             ...  3800 MB
Operator 0  - Memory needed per MO         ...   2.0 MB
Operator 0  - Number of orbitals per batch ... 2
Operator 0  - Number of batches            ... 1

OPERATOR  0   PASS   0:  MOs    14 ...   15 +   16 ...   17 +   18 ...   19 +   20 ...   21
                            +   22 ...   23 +   24 ...   25 +   26 ...   27 +   28 ...   29
                            +   30 ...   31 +   32 ...   33 +   34 ...   35 +   36 ...   37
                            +   38 ...   39
  Reading integrals       ... ok
Time spent in pair loops =     0.051 sec
Deleting buffer (Ka|jb)[aa] ...done

-----------------------------------------------
 RI-MP2 CORRELATION ENERGY:     -1.392700007 Eh
-----------------------------------------------


-------
TIMINGS
-------

Total time                :    2.962 sec
Integral trafo            :    2.336 sec ( 78.9%)
I/O of integrals          :    0.002 sec (  0.1%)
K(i,j) Operators          :    0.011 sec (  0.4%)
T(i,j) pair energies      :    0.001 sec (  0.0%)
V-calculation             :    0.006 sec (  0.2%)
V**(-1/2)                 :    0.135 sec (  4.5%)
Gamma(ia|P)               :    0.000 sec (  0.0%)
Gamma-Trafo               :    0.000 sec (  0.0%)
D(virtual)                :    0.000 sec (  0.0%)
D(internal)               :    0.000 sec (  0.0%)
W(virtual)                :    0.000 sec (  0.0%)
W(internal)               :    0.000 sec (  0.0%)
L(virtual)                :    0.000 sec (  0.0%)
L(internal)               :    0.000 sec (  0.0%)
G(D)                      :    0.000 sec (  0.0%)
G(Z)                      :    0.000 sec (  0.0%)
Z-Vector Solution         :    0.000 sec (  0.0%)
3-Index Derivative        :    0.000 sec (  0.0%)
2-Index Derivative        :    0.000 sec (  0.0%)
Separable Gradient        :    0.000 sec (  0.0%)


---------------------------------------
MP2 TOTAL ENERGY:     -697.346302605 Eh
---------------------------------------

Maximum memory used throughout the entire MP2-calculation: 105.3 MB

-------------------------   --------------------
FINAL SINGLE POINT ENERGY      -697.346302605426
-------------------------   --------------------


                            ***************************************
                            *     ORCA property calculations      *
                            ***************************************


  WARNING: The energy has been calculated at the MP2 level but the densities
           used in the property calculations are still SCF densities
           MP2 response densities have not been calculated 
           use %mp2 Density relaxed end
           or  %mp2 Density unrelaxed end

                                    ---------------------
                                    Active property flags
                                    ---------------------
   (+) Dipole Moment


------------------------------------------------------------------------------
                       ORCA ELECTRIC PROPERTIES CALCULATION
------------------------------------------------------------------------------

Dipole Moment Calculation                       ... on
Quadrupole Moment Calculation                   ... off
Polarizability Calculation                      ... off
GBWName                                         ... DZ_B-Si_53_AB.gbw
Electron density                                ... DZ_B-Si_53_AB.scfp
The origin for moment calculation is the CENTER OF MASS  = ( 0.073510, -0.004761 -0.004225)

-------------
DIPOLE MOMENT
-------------
                                X             Y             Z
Electronic contribution:      5.22861      -0.81362      -0.57737
Nuclear contribution   :     -5.88076       0.38085       0.33801
                        -----------------------------------------
Total Dipole Moment    :     -0.65215      -0.43276      -0.23936
                        -----------------------------------------
Magnitude (a.u.)       :      0.81846
Magnitude (Debye)      :      2.08037



--------------------
Rotational spectrum 
--------------------
 
Rotational constants in cm-1:     0.083901     0.020392     0.018631 
Rotational constants in MHz :  2515.293926   611.332194   558.546019 

 Dipole components along the rotational axes: 
x,y,z [a.u.] :     0.648045    -0.448682    -0.220460 
x,y,z [Debye]:     1.647199    -1.140460    -0.560364 

 

Timings for individual modules:

Sum of individual times         ...       48.985 sec (=   0.816 min)
GTO integral calculation        ...        2.666 sec (=   0.044 min)   5.4 %
SCF iterations                  ...       41.892 sec (=   0.698 min)  85.5 %
MP2 module                      ...        4.427 sec (=   0.074 min)   9.0 %


                 $$$$$$$$$$$$$$$$  JOB NUMBER  2 $$$$$$$$$$$$$$


                       ****************************
                       * Single Point Calculation *
                       ****************************

---------------------------------
CARTESIAN COORDINATES (ANGSTROEM)
---------------------------------
  C     -2.339479   -1.192926    0.658833
  C     -1.070991   -0.691205    0.895997
  C     -3.190783   -0.535074   -0.213605
  C     -2.767459    0.622632   -0.843412
  C     -1.496747    1.119166   -0.602793
  C     -0.623564    0.474491    0.271166
  H     -1.181729    2.026821   -1.102951
  H     -4.183140   -0.923747   -0.400319
  H     -3.429343    1.141963   -1.524110
  H     -2.665987   -2.095575    1.158575
  H     -0.422876   -1.215577    1.590157
  B      2.388952   -0.309556   -0.222141
  O      3.732103   -0.127276   -0.167474
  O      1.920242   -1.451283   -0.803902
  H      0.960528   -1.519811   -0.820739
  H      4.226000   -0.854298   -0.566420
  Si     1.129771    1.083368    0.548070
  H      1.279094    2.396737   -0.121513
  H      1.371283    1.270080    1.998929

----------------------------
CARTESIAN COORDINATES (A.U.)
----------------------------
  NO LB      ZA    FRAG     MASS         X           Y           Z
   0 C     6.0000    0    12.011   -4.420975   -2.254303    1.245014
   1 C     6.0000    0    12.011   -2.023880   -1.306188    1.693189
   2 C     6.0000    0    12.011   -6.029706   -1.011143   -0.403655
   3 C     6.0000    0    12.011   -5.229740    1.176604   -1.593818
[...]
[1731905732.000864] [nc10241:914935:0]          mpool.c:42   UCX  WARN  object 0x12f68500 was not returned to mpool ucp_requests
[1731905732.001404] [nc10241:914950:0]          mpool.c:42   UCX  WARN  object 0x13c0fc80 was not returned to mpool ucp_requests
[1731905732.001419] [nc10241:914950:0]          mpool.c:42   UCX  WARN  object 0x13c0fe40 was not returned to mpool ucp_requests
[1731905732.001425] [nc10241:914950:0]          mpool.c:42   UCX  WARN  object 0x13c10000 was not returned to mpool ucp_requests
[1731905732.001429] [nc10241:914950:0]          mpool.c:42   UCX  WARN  object 0x13c101c0 was not returned to mpool ucp_requests
[1731905732.001435] [nc10241:914950:0]          mpool.c:42   UCX  WARN  object 0x13c10380 was not returned to mpool ucp_requests
[1731905732.001439] [nc10241:914950:0]          mpool.c:42   UCX  WARN  object 0x13c10540 was not returned to mpool ucp_requests
[1731905732.001443] [nc10241:914950:0]          mpool.c:42   UCX  WARN  object 0x13c10700 was not returned to mpool ucp_requests
[1731905732.001447] [nc10241:914950:0]          mpool.c:42   UCX  WARN  object 0x13c108c0 was not returned to mpool ucp_requests
[1731905732.001451] [nc10241:914950:0]          mpool.c:42   UCX  WARN  object 0x13c10a80 was not returned to mpool ucp_requests
[1731905732.001556] [nc10241:914955:0]          mpool.c:42   UCX  WARN  object 0x13881240 was not returned to mpool ucp_requests
[1731905732.001579] [nc10241:914955:0]          mpool.c:42   UCX  WARN  object 0x13881400 was not returned to mpool ucp_requests
[1731905732.001585] [nc10241:914955:0]          mpool.c:42   UCX  WARN  object 0x138815c0 was not returned to mpool ucp_requests
[1731905732.001589] [nc10241:914955:0]          mpool.c:42   UCX  WARN  object 0x13881780 was not returned to mpool ucp_requests
[1731905732.001595] [nc10241:914955:0]          mpool.c:42   UCX  WARN  object 0x13881940 was not returned to mpool ucp_requests
[1731905732.001598] [nc10241:914955:0]          mpool.c:42   UCX  WARN  object 0x13881b00 was not returned to mpool ucp_requests
[1731905732.001602] [nc10241:914955:0]          mpool.c:42   UCX  WARN  object 0x13881cc0 was not returned to mpool ucp_requests
[1731905732.001606] [nc10241:914955:0]          mpool.c:42   UCX  WARN  object 0x13881e80 was not returned to mpool ucp_requests
[1731905732.001610] [nc10241:914955:0]          mpool.c:42   UCX  WARN  object 0x13882040 was not returned to mpool ucp_requests
[1731905732.001854] [nc10241:914937:0]          mpool.c:42   UCX  WARN  object 0x13ad9d40 was not returned to mpool ucp_requests
[1731905732.001881] [nc10241:914937:0]          mpool.c:42   UCX  WARN  object 0x13ad9f00 was not returned to mpool ucp_requests
[1731905732.001887] [nc10241:914937:0]          mpool.c:42   UCX  WARN  object 0x13ada0c0 was not returned to mpool ucp_requests
[1731905732.001891] [nc10241:914937:0]          mpool.c:42   UCX  WARN  object 0x13ada280 was not returned to mpool ucp_requests
[1731905732.001895] [nc10241:914937:0]          mpool.c:42   UCX  WARN  object 0x13ada440 was not returned to mpool ucp_requests
[1731905732.001900] [nc10241:914937:0]          mpool.c:42   UCX  WARN  object 0x13ada600 was not returned to mpool ucp_requests
[1731905732.001903] [nc10241:914937:0]          mpool.c:42   UCX  WARN  object 0x13ada7c0 was not returned to mpool ucp_requests
[1731905732.001908] [nc10241:914937:0]          mpool.c:42   UCX  WARN  object 0x13ada980 was not returned to mpool ucp_requests
[1731905732.001913] [nc10241:914937:0]          mpool.c:42   UCX  WARN  object 0x13adab40 was not returned to mpool ucp_requests
[1731905732.001917] [nc10241:914937:0]          mpool.c:42   UCX  WARN  object 0x13adad00 was not returned to mpool ucp_requests
[1731905732.006055] [nc10241:914933:0]          mpool.c:42   UCX  WARN  object 0x12e7d580 was not returned to mpool ucp_requests
[1731905732.006069] [nc10241:914933:0]          mpool.c:42   UCX  WARN  object 0x12e7d740 was not returned to mpool ucp_requests
[1731905732.006074] [nc10241:914933:0]          mpool.c:42   UCX  WARN  object 0x12e7d900 was not returned to mpool ucp_requests
[1731905732.006079] [nc10241:914933:0]          mpool.c:42   UCX  WARN  object 0x12e7dc80 was not returned to mpool ucp_requests
[1731905732.006083] [nc10241:914933:0]          mpool.c:42   UCX  WARN  object 0x12e7de40 was not returned to mpool ucp_requests
[1731905732.006087] [nc10241:914933:0]          mpool.c:42   UCX  WARN  object 0x12e7e000 was not returned to mpool ucp_requests
[1731905732.006089] [nc10241:914933:0]          mpool.c:42   UCX  WARN  object 0x12e7e1c0 was not returned to mpool ucp_requests
[1731905732.006093] [nc10241:914933:0]          mpool.c:42   UCX  WARN  object 0x12e7e380 was not returned to mpool ucp_requests
[1731905732.006098] [nc10241:914933:0]          mpool.c:42   UCX  WARN  object 0x12e7e700 was not returned to mpool ucp_requests
[1731905732.006103] [nc10241:914933:0]          mpool.c:42   UCX  WARN  object 0x12e7e8c0 was not returned to mpool ucp_requests
[1731905732.006116] [nc10241:914936:0]          mpool.c:42   UCX  WARN  object 0x1443f100 was not returned to mpool ucp_requests
[1731905732.006137] [nc10241:914936:0]          mpool.c:42   UCX  WARN  object 0x1443f2c0 was not returned to mpool ucp_requests
[1731905732.006143] [nc10241:914936:0]          mpool.c:42   UCX  WARN  object 0x1443f480 was not returned to mpool ucp_requests
[1731905732.006147] [nc10241:914936:0]          mpool.c:42   UCX  WARN  object 0x1443f640 was not returned to mpool ucp_requests
[1731905732.006152] [nc10241:914936:0]          mpool.c:42   UCX  WARN  object 0x1443f800 was not returned to mpool ucp_requests
[1731905732.006157] [nc10241:914936:0]          mpool.c:42   UCX  WARN  object 0x1443f9c0 was not returned to mpool ucp_requests
[1731905732.006162] [nc10241:914936:0]          mpool.c:42   UCX  WARN  object 0x1443fb80 was not returned to mpool ucp_requests
[1731905732.006167] [nc10241:914936:0]          mpool.c:42   UCX  WARN  object 0x1443fd40 was not returned to mpool ucp_requests
[1731905732.006171] [nc10241:914936:0]          mpool.c:42   UCX  WARN  object 0x1443ff00 was not returned to mpool ucp_requests
[1731905732.006175] [nc10241:914936:0]          mpool.c:42   UCX  WARN  object 0x144400c0 was not returned to mpool ucp_requests
[1731905732.006358] [nc10241:914934:0]          mpool.c:42   UCX  WARN  object 0x12ede280 was not returned to mpool ucp_requests
[1731905732.006375] [nc10241:914934:0]          mpool.c:42   UCX  WARN  object 0x12ede440 was not returned to mpool ucp_requests
[1731905732.006380] [nc10241:914934:0]          mpool.c:42   UCX  WARN  object 0x12ede7c0 was not returned to mpool ucp_requests
[1731905732.006383] [nc10241:914934:0]          mpool.c:42   UCX  WARN  object 0x12edeb40 was not returned to mpool ucp_requests
[1731905732.006387] [nc10241:914934:0]          mpool.c:42   UCX  WARN  object 0x12eded00 was not returned to mpool ucp_requests
[1731905732.006389] [nc10241:914934:0]          mpool.c:42   UCX  WARN  object 0x12edeec0 was not returned to mpool ucp_requests
[1731905732.006392] [nc10241:914934:0]          mpool.c:42   UCX  WARN  object 0x12edf080 was not returned to mpool ucp_requests
[1731905732.006394] [nc10241:914934:0]          mpool.c:42   UCX  WARN  object 0x12edf240 was not returned to mpool ucp_requests
[1731905732.006397] [nc10241:914934:0]          mpool.c:42   UCX  WARN  object 0x12edf400 was not returned to mpool ucp_requests
[1731905732.006786] [nc10241:914940:0]          mpool.c:42   UCX  WARN  object 0x137a8880 was not returned to mpool ucp_requests
[1731905732.006799] [nc10241:914940:0]          mpool.c:42   UCX  WARN  object 0x137a8a40 was not returned to mpool ucp_requests
[1731905732.006804] [nc10241:914940:0]          mpool.c:42   UCX  WARN  object 0x137a8c00 was not returned to mpool ucp_requests
[1731905732.006807] [nc10241:914940:0]          mpool.c:42   UCX  WARN  object 0x137a8dc0 was not returned to mpool ucp_requests
[1731905732.006811] [nc10241:914940:0]          mpool.c:42   UCX  WARN  object 0x137a8f80 was not returned to mpool ucp_requests
[1731905732.006816] [nc10241:914940:0]          mpool.c:42   UCX  WARN  object 0x137a9140 was not returned to mpool ucp_requests
[1731905732.006819] [nc10241:914940:0]          mpool.c:42   UCX  WARN  object 0x137a9300 was not returned to mpool ucp_requests
[1731905732.006824] [nc10241:914940:0]          mpool.c:42   UCX  WARN  object 0x137a94c0 was not returned to mpool ucp_requests
[1731905732.006828] [nc10241:914940:0]          mpool.c:42   UCX  WARN  object 0x137a9680 was not returned to mpool ucp_requests
[1731905732.006833] [nc10241:914940:0]          mpool.c:42   UCX  WARN  object 0x137a9840 was not returned to mpool ucp_requests
[1731905732.007939] [nc10241:914939:0]          mpool.c:42   UCX  WARN  object 0x138adf40 was not returned to mpool ucp_requests
[1731905732.007950] [nc10241:914939:0]          mpool.c:42   UCX  WARN  object 0x138ae100 was not returned to mpool ucp_requests
[1731905732.007955] [nc10241:914939:0]          mpool.c:42   UCX  WARN  object 0x138ae2c0 was not returned to mpool ucp_requests
[1731905732.007959] [nc10241:914939:0]          mpool.c:42   UCX  WARN  object 0x138ae480 was not returned to mpool ucp_requests
[1731905732.007963] [nc10241:914939:0]          mpool.c:42   UCX  WARN  object 0x138ae640 was not returned to mpool ucp_requests
[1731905732.007967] [nc10241:914939:0]          mpool.c:42   UCX  WARN  object 0x138ae800 was not returned to mpool ucp_requests
[1731905732.007971] [nc10241:914939:0]          mpool.c:42   UCX  WARN  object 0x138ae9c0 was not returned to mpool ucp_requests
[1731905732.007975] [nc10241:914939:0]          mpool.c:42   UCX  WARN  object 0x138aeb80 was not returned to mpool ucp_requests
[1731905732.007978] [nc10241:914939:0]          mpool.c:42   UCX  WARN  object 0x138aef00 was not returned to mpool ucp_requests
[1731905732.007982] [nc10241:914939:0]          mpool.c:42   UCX  WARN  object 0x138af0c0 was not returned to mpool ucp_requests
[1731905732.007973] [nc10241:914943:0]          mpool.c:42   UCX  WARN  object 0x13f0f5c0 was not returned to mpool ucp_requests
[1731905732.007986] [nc10241:914943:0]          mpool.c:42   UCX  WARN  object 0x13f0f780 was not returned to mpool ucp_requests
[1731905732.007991] [nc10241:914943:0]          mpool.c:42   UCX  WARN  object 0x13f0f940 was not returned to mpool ucp_requests
[1731905732.007994] [nc10241:914943:0]          mpool.c:42   UCX  WARN  object 0x13f0fb00 was not returned to mpool ucp_requests
[1731905732.007998] [nc10241:914943:0]          mpool.c:42   UCX  WARN  object 0x13f0fcc0 was not returned to mpool ucp_requests
[1731905732.008003] [nc10241:914943:0]          mpool.c:42   UCX  WARN  object 0x13f0fe80 was not returned to mpool ucp_requests
[1731905732.008006] [nc10241:914943:0]          mpool.c:42   UCX  WARN  object 0x13f10040 was not returned to mpool ucp_requests
[1731905732.008011] [nc10241:914943:0]          mpool.c:42   UCX  WARN  object 0x13f10200 was not returned to mpool ucp_requests
[1731905732.008014] [nc10241:914943:0]          mpool.c:42   UCX  WARN  object 0x13f103c0 was not returned to mpool ucp_requests
[1731905732.008019] [nc10241:914943:0]          mpool.c:42   UCX  WARN  object 0x13f10580 was not returned to mpool ucp_requests
[1731905732.008298] [nc10241:914942:0]          mpool.c:42   UCX  WARN  object 0x1346f280 was not returned to mpool ucp_requests
[1731905732.008319] [nc10241:914942:0]          mpool.c:42   UCX  WARN  object 0x1346f440 was not returned to mpool ucp_requests
[1731905732.008324] [nc10241:914942:0]          mpool.c:42   UCX  WARN  object 0x1346f600 was not returned to mpool ucp_requests
[1731905732.008329] [nc10241:914942:0]          mpool.c:42   UCX  WARN  object 0x1346f7c0 was not returned to mpool ucp_requests
[1731905732.008333] [nc10241:914942:0]          mpool.c:42   UCX  WARN  object 0x1346f980 was not returned to mpool ucp_requests
[1731905732.008340] [nc10241:914942:0]          mpool.c:42   UCX  WARN  object 0x1346fb40 was not returned to mpool ucp_requests
[1731905732.008343] [nc10241:914942:0]          mpool.c:42   UCX  WARN  object 0x1346fd00 was not returned to mpool ucp_requests
[1731905732.008347] [nc10241:914942:0]          mpool.c:42   UCX  WARN  object 0x1346fec0 was not returned to mpool ucp_requests
[1731905732.008351] [nc10241:914942:0]          mpool.c:42   UCX  WARN  object 0x13470080 was not returned to mpool ucp_requests
[1731905732.008355] [nc10241:914942:0]          mpool.c:42   UCX  WARN  object 0x13470240 was not returned to mpool ucp_requests


           ************************************************************
           *        Program running with 16 parallel MPI-processes    *
           *              working on a common directory               *
           ************************************************************

------------------------------------------------------------------------------
                                ORCA  MP2 
------------------------------------------------------------------------------

Freezing NCore=28 chemical core electrons

-------------
RI-MP2 ENERGY
-------------
Dimension of the basis                    ... 1218
Memory devoted to MP2                     ... 3800 MB   
Data format for buffers                   ... DOUBLE
Compression type for matrix containers    ... UNCOMPRESSED
Overall scaling of the MP2 energy         ...   1.000e+00
Calculating two index integrals           ... done (    0.047 sec)
Cholesky decomposition of V**-1           ... done (    0.512 sec)

-----------------
RI-TRANSFORMATION (AUX index driven)
-----------------

Dimension of the orbital-basis         ... 1218
Dimension of the aux-basis             ... 2426
Transformation of internal/external MOs...   14-  39 to   40-1217
Number Format for Storage              ... Double (8 Byte)
Integral mode                          ... Direct

First Phase: integral generation and transformation of MO indices
  Aux angular momentum 0               ... done (    0.275 sec)
  Aux angular momentum 1               ... done (    0.525 sec)
  Aux angular momentum 2               ... done (    0.793 sec)
  Aux angular momentum 3               ... done (    0.984 sec)
  Aux angular momentum 4               ... done (    0.905 sec)
  Aux angular momentum 5               ... done (    0.647 sec)
Closing buffer VIA ( 0.55 GB; CompressionRatio= 1.00)
  Phase 1 completed in     6.419 sec
Second Phase: sorting and transformation of aux index

IA-Transformation
Memory available                       ... 3690 MB 
Max. # MO pairs treated in a batch     ... 2    
# of internal orbitals                 ... 26
# batches for internal orbitals        ... 1
Closing buffer IAV ( 0.55 GB; CompressionRatio= 1.00)
(ia|v) transformation done in     0.879 sec

  Phase 2 completed in     1.037 sec
RI-Integral transformation completed in     7.466 sec
Opening buffers                              ... done

Starting loop over batches of integrals:

Operator 0  - window                       ... ( 14- 39)x( 40-1217)
Operator 0  - Memory available             ...  3800 MB
Operator 0  - Memory needed per MO         ...  21.8 MB
Operator 0  - Number of orbitals per batch ... 2
Operator 0  - Number of batches            ... 1

OPERATOR  0   PASS   0:  MOs    14 ...   15 +   16 ...   17 +   18 ...   19 +   20 ...   21
                            +   22 ...   23 +   24 ...   25 +   26 ...   27 +   28 ...   29
                            +   30 ...   31 +   32 ...   33 +   34 ...   35 +   36 ...   37
                            +   38 ...   39
  Reading integrals       ... ok
Time spent in pair loops =     0.528 sec
Deleting buffer (Ka|jb)[aa] ...done

-----------------------------------------------
 RI-MP2 CORRELATION ENERGY:     -1.768293103 Eh
-----------------------------------------------


-------
TIMINGS
-------

Total time                :   16.632 sec
Integral trafo            :    7.477 sec ( 45.0%)
I/O of integrals          :    0.019 sec (  0.1%)
K(i,j) Operators          :    0.443 sec (  2.7%)
T(i,j) pair energies      :    0.028 sec (  0.2%)
V-calculation             :    0.047 sec (  0.3%)
V**(-1/2)                 :    0.512 sec (  3.1%)
Gamma(ia|P)               :    0.000 sec (  0.0%)
Gamma-Trafo               :    0.000 sec (  0.0%)
D(virtual)                :    0.000 sec (  0.0%)
D(internal)               :    0.000 sec (  0.0%)
W(virtual)                :    0.000 sec (  0.0%)
W(internal)               :    0.000 sec (  0.0%)
L(virtual)                :    0.000 sec (  0.0%)
L(internal)               :    0.000 sec (  0.0%)
G(D)                      :    0.000 sec (  0.0%)
G(Z)                      :    0.000 sec (  0.0%)
Z-Vector Solution         :    0.000 sec (  0.0%)
3-Index Derivative        :    0.000 sec (  0.0%)
2-Index Derivative        :    0.000 sec (  0.0%)
Separable Gradient        :    0.000 sec (  0.0%)


---------------------------------------
MP2 TOTAL ENERGY:     -697.865433545 Eh
---------------------------------------

Maximum memory used throughout the entire MP2-calculation: 316.2 MB

-------------------------   --------------------
FINAL SINGLE POINT ENERGY      -697.865433545329
-------------------------   --------------------


                            ***************************************
                            *     ORCA property calculations      *
                            ***************************************


  WARNING: The energy has been calculated at the MP2 level but the densities
           used in the property calculations are still SCF densities
           MP2 response densities have not been calculated 
           use %mp2 Density relaxed end
           or  %mp2 Density unrelaxed end

                                    ---------------------
                                    Active property flags
                                    ---------------------
   (+) Dipole Moment


------------------------------------------------------------------------------
                       ORCA ELECTRIC PROPERTIES CALCULATION
------------------------------------------------------------------------------

Dipole Moment Calculation                       ... on
Quadrupole Moment Calculation                   ... off
Polarizability Calculation                      ... off
GBWName                                         ... QZ_B-Si_53_AB.gbw
Electron density                                ... QZ_B-Si_53_AB.scfp
The origin for moment calculation is the CENTER OF MASS  = ( 0.073510, -0.004761 -0.004225)

-------------
DIPOLE MOMENT
-------------
                                X             Y             Z
Electronic contribution:      5.22489      -0.80917      -0.57610
Nuclear contribution   :     -5.88076       0.38085       0.33801
                        -----------------------------------------
Total Dipole Moment    :     -0.65587      -0.42832      -0.23809
                        -----------------------------------------
Magnitude (a.u.)       :      0.81873
Magnitude (Debye)      :      2.08104



--------------------
Rotational spectrum 
--------------------
 
Rotational constants in cm-1:     0.083901     0.020392     0.018631 
Rotational constants in MHz :  2515.293926   611.332194   558.546019 

 Dipole components along the rotational axes: 
x,y,z [a.u.] :     0.651798    -0.444205    -0.219439 
x,y,z [Debye]:     1.656739    -1.129078    -0.557768 

 

Timings for individual modules:

Sum of individual times         ...     2101.552 sec (=  35.026 min)
GTO integral calculation        ...        4.655 sec (=   0.078 min)   0.2 %
SCF iterations                  ...     2079.014 sec (=  34.650 min)  98.9 %
MP2 module                      ...       17.883 sec (=   0.298 min)   0.9 %



                             ****ORCA TERMINATED NORMALLY****
TOTAL RUN TIME: 0 days 0 hours 41 minutes 1 seconds 765 msec
