
                                 *****************
                                 * O   R   C   A *
                                 *****************

                                            #,                                       
                                            ###                                      
                                            ####                                     
                                            #####                                    
                                            ######                                   
                                           ########,                                 
                                     ,,################,,,,,                         
                               ,,#################################,,                 
                          ,,##########################################,,             
                       ,#########################################, ''#####,          
                    ,#############################################,,   '####,        
                  ,##################################################,,,,####,       
                ,###########''''           ''''###############################       
              ,#####''   ,,,,##########,,,,          '''####'''          '####       
            ,##' ,,,,###########################,,,                        '##       
           ' ,,###''''                  '''############,,,                           
         ,,##''                                '''############,,,,        ,,,,,,###''
      ,#''                                            '''#######################'''  
     '                                                          ''''####''''         
             ,#######,   #######,   ,#######,      ##                                
            ,#'     '#,  ##    ##  ,#'     '#,    #''#        ######   ,####,        
            ##       ##  ##   ,#'  ##            #'  '#       #        #'  '#        
            ##       ##  #######   ##           ,######,      #####,   #    #        
            '#,     ,#'  ##    ##  '#,     ,#' ,#      #,         ##   #,  ,#        
             '#######'   ##     ##  '#######'  #'      '#     #####' # '####'        



                  #######################################################
                  #                        -***-                        #
                  #          Department of theory and spectroscopy      #
                  #    Directorship and core code : Frank Neese         #
                  #        Max Planck Institute fuer Kohlenforschung    #
                  #                Kaiser Wilhelm Platz 1               #
                  #                 D-45470 Muelheim/Ruhr               #
                  #                      Germany                        #
                  #                                                     #
                  #                  All rights reserved                #
                  #                        -***-                        #
                  #######################################################


                         Program Version 5.0.4 -  RELEASE  -


 With contributions from (in alphabetic order):
   Daniel Aravena         : Magnetic Suceptibility
   Michael Atanasov       : Ab Initio Ligand Field Theory (pilot matlab implementation)
   Alexander A. Auer      : GIAO ZORA, VPT2 properties, NMR spectrum
   Ute Becker             : Parallelization
   Giovanni Bistoni       : ED, misc. LED, open-shell LED, HFLD
   Martin Brehm           : Molecular dynamics
   Dmytro Bykov           : SCF Hessian
   Vijay G. Chilkuri      : MRCI spin determinant printing, contributions to CSF-ICE
   Dipayan Datta          : RHF DLPNO-CCSD density
   Achintya Kumar Dutta   : EOM-CC, STEOM-CC
   Dmitry Ganyushin       : Spin-Orbit,Spin-Spin,Magnetic field MRCI
   Miquel Garcia          : C-PCM and meta-GGA Hessian, CC/C-PCM, Gaussian charge scheme
   Yang Guo               : DLPNO-NEVPT2, F12-NEVPT2, CIM, IAO-localization
   Andreas Hansen         : Spin unrestricted coupled pair/coupled cluster methods
   Benjamin Helmich-Paris : MC-RPA, TRAH-SCF, COSX integrals
   Lee Huntington         : MR-EOM, pCC
   Robert Izsak           : Overlap fitted RIJCOSX, COSX-SCS-MP3, EOM
   Marcus Kettner         : VPT2
   Christian Kollmar      : KDIIS, OOCD, Brueckner-CCSD(T), CCSD density, CASPT2, CASPT2-K
   Simone Kossmann        : Meta GGA functionals, TD-DFT gradient, OOMP2, MP2 Hessian
   Martin Krupicka        : Initial AUTO-CI
   Lucas Lang             : DCDCAS
   Marvin Lechner         : AUTO-CI (C++ implementation), FIC-MRCC
   Dagmar Lenk            : GEPOL surface, SMD
   Dimitrios Liakos       : Extrapolation schemes; Compound Job, initial MDCI parallelization
   Dimitrios Manganas     : Further ROCIS development; embedding schemes
   Dimitrios Pantazis     : SARC Basis sets
   Anastasios Papadopoulos: AUTO-CI, single reference methods and gradients
   Taras Petrenko         : DFT Hessian,TD-DFT gradient, ASA, ECA, R-Raman, ABS, FL, XAS/XES, NRVS
   Peter Pinski           : DLPNO-MP2, DLPNO-MP2 Gradient
   Christoph Reimann      : Effective Core Potentials
   Marius Retegan         : Local ZFS, SOC
   Christoph Riplinger    : Optimizer, TS searches, QM/MM, DLPNO-CCSD(T), (RO)-DLPNO pert. Triples
   Tobias Risthaus        : Range-separated hybrids, TD-DFT gradient, RPA, STAB
   Michael Roemelt        : Original ROCIS implementation
   Masaaki Saitow         : Open-shell DLPNO-CCSD energy and density
   Barbara Sandhoefer     : DKH picture change effects
   Avijit Sen             : IP-ROCIS
   Kantharuban Sivalingam : CASSCF convergence, NEVPT2, FIC-MRCI
   Bernardo de Souza      : ESD, SOC TD-DFT
   Georgi Stoychev        : AutoAux, RI-MP2 NMR, DLPNO-MP2 response
   Willem Van den Heuvel  : Paramagnetic NMR
   Boris Wezisla          : Elementary symmetry handling
   Frank Wennmohs         : Technical directorship


 We gratefully acknowledge several colleagues who have allowed us to
 interface, adapt or use parts of their codes:
   Stefan Grimme, W. Hujo, H. Kruse, P. Pracht,  : VdW corrections, initial TS optimization,
                  C. Bannwarth, S. Ehlert          DFT functionals, gCP, sTDA/sTD-DF
   Ed Valeev, F. Pavosevic, A. Kumar             : LibInt (2-el integral package), F12 methods
   Garnet Chan, S. Sharma, J. Yang, R. Olivares  : DMRG
   Ulf Ekstrom                                   : XCFun DFT Library
   Mihaly Kallay                                 : mrcc  (arbitrary order and MRCC methods)
   Jiri Pittner, Ondrej Demel                    : Mk-CCSD
   Frank Weinhold                                : gennbo (NPA and NBO analysis)
   Christopher J. Cramer and Donald G. Truhlar   : smd solvation model
   Lars Goerigk                                  : TD-DFT with DH, B97 family of functionals
   V. Asgeirsson, H. Jonsson                     : NEB implementation
   FAccTs GmbH                                   : IRC, NEB, NEB-TS, DLPNO-Multilevel, CI-OPT
                                                   MM, QMMM, 2- and 3-layer-ONIOM, Crystal-QMMM,
                                                   LR-CPCM, SF, NACMEs, symmetry and pop. for TD-DFT,
                                                   nearIR, NL-DFT gradient (VV10), updates on ESD,
                                                   ML-optimized integration grids
   S Lehtola, MJT Oliveira, MAL Marques          : LibXC Library
   Liviu Ungur et al                             : ANISO software


 Your calculation uses the libint2 library for the computation of 2-el integrals
 For citations please refer to: http://libint.valeyev.net

 Your ORCA version has been built with support for libXC version: 5.1.0
 For citations please refer to: https://tddft.org/programs/libxc/

 This ORCA versions uses:
   CBLAS   interface :  Fast vector & matrix operations
   LAPACKE interface :  Fast linear algebra routines
   SCALAPACK package :  Parallel linear algebra routines
   Shared memory     :  Shared parallel matrices
   BLAS/LAPACK       :  OpenBLAS 0.3.15  USE64BITINT DYNAMIC_ARCH NO_AFFINITY Zen SINGLE_THREADED
        Core in use  :  Zen
   Copyright (c) 2011-2014, The OpenBLAS Project


================================================================================

----- Orbital basis set information -----
Your calculation utilizes the basis: aug-cc-pVDZ 
    H, B-Ne : Obtained from the ccRepo (grant-hill.group.shef.ac.uk/ccrepo) Feb. 2017
              R. A. Kendall, T. H. Dunning, Jr., R. J. Harrison, J. Chem. Phys. 96, 6796 (1992)
         He : Obtained from the ccRepo (grant-hill.group.shef.ac.uk/ccrepo) Feb. 2017
              D. E. Woon, T. H. Dunning, Jr., J. Chem. Phys. 100, 2975 (1994)
  Li-Be, Na : Obtained from the ccRepo (grant-hill.group.shef.ac.uk/ccrepo) Feb. 2017
              B. P. Prascher, D. E. Woon, K. A. Peterson, T. H. Dunning, Jr., A. K. Wilson, Theor. Chem. Acc. 128, 69 (2011)
         Mg : Obtained from the Peterson Research Group Website (tyr0.chem.wsu.edu/~kipeters) Feb. 2017
              B. P. Prascher, D. E. Woon, K. A. Peterson, T. H. Dunning, Jr., A. K. Wilson, Theor. Chem. Acc. 128, 69 (2011)
      Al-Ar : Obtained from the ccRepo (grant-hill.group.shef.ac.uk/ccrepo) Feb. 2017
              D. E. Woon, T. H. Dunning, Jr., J. Chem. Phys. 98, 1358 (1993)
      Sc-Zn : Obtained from the ccRepo (grant-hill.group.shef.ac.uk/ccrepo) Feb. 2017
              N. B. Balabanov, K. A. Peterson, J. Chem. Phys. 123, 064107 (2005)
              N. B. Balabanov, K. A. Peterson, J. Chem. Phys. 125, 074110 (2006)
      Ga-Kr : Obtained from the ccRepo (grant-hill.group.shef.ac.uk/ccrepo) Feb. 2017
              A. K. Wilson, D. E. Woon, K. A. Peterson, T. H. Dunning, Jr., J. Chem. Phys. 110, 7667 (1999)

----- AuxC basis set information -----
Your calculation utilizes the auxiliary basis: aug-cc-pVDZ/C 
  H-He, B, Ne, Al-Ar, Ga-Ge, Se-Br : Obtained from the EMSL Basis Set Exchange (bse.pnl.gov) Feb. 2017
                                     F. Weigend, A. Kohn, C. Hattig, J. Chem. Phys. 116, 3175 (2002)
                            Be, Mg : Obtained from the TURBOMOLE 7.0 basis set library
                                     C. Haettig, Phys. Chem. Chem. Phys. 7, 59 (2005)
                               C-F : Obtained from the EMSL Basis Set Exchange (bse.pnl.gov) Feb. 2017
                                     C. Haettig, Phys. Chem. Chem. Phys. 7, 59 (2005)
                                     F. Weigend, A. Kohn, C. Hattig, J. Chem. Phys. 116, 3175 (2002)
                                As : Obtained from the EMSL Basis Set Exchange (bse.pnl.gov) Feb. 2017
                                     C. Haettig, G. Schmitz, J. Kossmann, Phys. Chem. Chem. Phys. 14, 6549 (2012)
                                Kr : Obtained from the TURBOMOLE 7.0 basis set library
                                     F. Weigend, A. Kohn, C. Hattig, J. Chem. Phys. 116, 3175 (2002)
                                     S function revised in Sep. 2009

================================================================================
                                        WARNINGS
                       Please study these warnings very carefully!
================================================================================


WARNING: your system is open-shell and RHF/RKS was chosen
  ===> : WILL SWITCH to UHF/UKS


WARNING: No MP2 level density has been requested!
         To caclulate MP2 level properties use
         %mp2 Density relaxed end
         or
         %mp2 Density unrelaxed end

WARNING: Post HF methods need fully converged wavefunctions
  ===> : Setting SCFConvForced true
         You can overwrite this default with %scf ConvForced false 


INFO   : the flag for use of the SHARK integral package has been found!

================================================================================

----- Orbital basis set information -----
Your calculation utilizes the basis: aug-cc-pVTZ 
    H, B-Ne : Obtained from the ccRepo (grant-hill.group.shef.ac.uk/ccrepo) Feb. 2017
              R. A. Kendall, T. H. Dunning, Jr., R. J. Harrison, J. Chem. Phys. 96, 6796 (1992)
         He : Obtained from the ccRepo (grant-hill.group.shef.ac.uk/ccrepo) Feb. 2017
              D. E. Woon, T. H. Dunning, Jr., J. Chem. Phys. 100, 2975 (1994)
  Li-Be, Na : Obtained from the ccRepo (grant-hill.group.shef.ac.uk/ccrepo) Feb. 2017
              B. P. Prascher, D. E. Woon, K. A. Peterson, T. H. Dunning, Jr., A. K. Wilson, Theor. Chem. Acc. 128, 69 (2011)
         Mg : Obtained from the Peterson Research Group Website (tyr0.chem.wsu.edu/~kipeters) Feb. 2017
              B. P. Prascher, D. E. Woon, K. A. Peterson, T. H. Dunning, Jr., A. K. Wilson, Theor. Chem. Acc. 128, 69 (2011)
      Al-Ar : Obtained from the ccRepo (grant-hill.group.shef.ac.uk/ccrepo) Feb. 2017
              D. E. Woon, T. H. Dunning, Jr., J. Chem. Phys. 98, 1358 (1993)
      Sc-Zn : Obtained from the ccRepo (grant-hill.group.shef.ac.uk/ccrepo) Feb. 2017
              N. B. Balabanov, K. A. Peterson, J. Chem. Phys. 123, 064107 (2005)
              N. B. Balabanov, K. A. Peterson, J. Chem. Phys. 125, 074110 (2006)
      Ga-Kr : Obtained from the ccRepo (grant-hill.group.shef.ac.uk/ccrepo) Feb. 2017
              A. K. Wilson, D. E. Woon, K. A. Peterson, T. H. Dunning, Jr., J. Chem. Phys. 110, 7667 (1999)
     Ag, Au : Obtained from the Peterson Research Group Website (tyr0.chem.wsu.edu/~kipeters) Feb. 2017
              K. A. Peterson, C. Puzzarini, Theor. Chem. Acc. 114, 283 (2005)

----- AuxC basis set information -----
Your calculation utilizes the auxiliary basis: aug-cc-pVTZ/C 
  H-He, B-F, Al-Ar, Ga-Kr : Obtained from the EMSL Basis Set Exchange (bse.pnl.gov) Feb. 2017
                            F. Weigend, A. Kohn, C. Hattig, J. Chem. Phys. 116, 3175 (2002)
                   Be, Mg : Obtained from the TURBOMOLE 7.0 basis set library
                            C. Haettig, Phys. Chem. Chem. Phys. 7, 59 (2005)
                       Ne : Obtained from the EMSL Basis Set Exchange (bse.pnl.gov) Feb. 2017
                            C. Haettig, Phys. Chem. Chem. Phys. 7, 59 (2005)
                            F. Weigend, A. Kohn, C. Hattig, J. Chem. Phys. 116, 3175 (2002)
                    Sc-Zn : Obtained from the EMSL Basis Set Exchange (bse.pnl.gov) Feb. 2017
                            J. G. Hill, J. A. Platts, J. Chem. Phys. 128, 044104 (2008)

================================================================================
                                        WARNINGS
                       Please study these warnings very carefully!
================================================================================


WARNING: No MP2 level density has been requested!
         To caclulate MP2 level properties use
         %mp2 Density relaxed end
         or
         %mp2 Density unrelaxed end

INFO   : the flag for use of the SHARK integral package has been found!

================================================================================

----- Orbital basis set information -----
Your calculation utilizes the basis: aug-cc-pVQZ 
    H, B-Ne : Obtained from the ccRepo (grant-hill.group.shef.ac.uk/ccrepo) Feb. 2017
              R. A. Kendall, T. H. Dunning, Jr., R. J. Harrison, J. Chem. Phys. 96, 6796 (1992)
         He : Obtained from the ccRepo (grant-hill.group.shef.ac.uk/ccrepo) Feb. 2017
              D. E. Woon, T. H. Dunning, Jr., J. Chem. Phys. 100, 2975 (1994)
  Li-Be, Na : Obtained from the ccRepo (grant-hill.group.shef.ac.uk/ccrepo) Feb. 2017
              B. P. Prascher, D. E. Woon, K. A. Peterson, T. H. Dunning, Jr., A. K. Wilson, Theor. Chem. Acc. 128, 69 (2011)
         Mg : Obtained from the Peterson Research Group Website (tyr0.chem.wsu.edu/~kipeters) Feb. 2017
              B. P. Prascher, D. E. Woon, K. A. Peterson, T. H. Dunning, Jr., A. K. Wilson, Theor. Chem. Acc. 128, 69 (2011)
      Al-Ar : Obtained from the ccRepo (grant-hill.group.shef.ac.uk/ccrepo) Feb. 2017
              D. E. Woon, T. H. Dunning, Jr., J. Chem. Phys. 98, 1358 (1993)
      Sc-Zn : Obtained from the ccRepo (grant-hill.group.shef.ac.uk/ccrepo) Feb. 2017
              N. B. Balabanov, K. A. Peterson, J. Chem. Phys. 123, 064107 (2005)
              N. B. Balabanov, K. A. Peterson, J. Chem. Phys. 125, 074110 (2006)
      Ga-Kr : Obtained from the ccRepo (grant-hill.group.shef.ac.uk/ccrepo) Feb. 2017
              A. K. Wilson, D. E. Woon, K. A. Peterson, T. H. Dunning, Jr., J. Chem. Phys. 110, 7667 (1999)

----- AuxC basis set information -----
Your calculation utilizes the auxiliary basis: aug-cc-pVQZ/C 
  H-He, B-F, Al-Ar, Ga-Kr : Obtained from the EMSL Basis Set Exchange (bse.pnl.gov) Feb. 2017
                            F. Weigend, A. Kohn, C. Hattig, J. Chem. Phys. 116, 3175 (2002)
                   Be, Mg : Obtained from the TURBOMOLE 7.0 basis set library
                            C. Haettig, Phys. Chem. Chem. Phys. 7, 59 (2005)
                       Ne : Obtained from the EMSL Basis Set Exchange (bse.pnl.gov) Feb. 2017
                            C. Haettig, Phys. Chem. Chem. Phys. 7, 59 (2005)
                            F. Weigend, A. Kohn, C. Hattig, J. Chem. Phys. 116, 3175 (2002)
                    Sc-Zn : Obtained from the EMSL Basis Set Exchange (bse.pnl.gov) Feb. 2017
                            D. H. Bross, J. G. Hill, H. J. Werner, K. A. Peterson, J. Chem. Phys. 139, 094302 (2013)

================================================================================
                                        WARNINGS
                       Please study these warnings very carefully!
================================================================================


WARNING: No MP2 level density has been requested!
         To caclulate MP2 level properties use
         %mp2 Density relaxed end
         or
         %mp2 Density unrelaxed end

INFO   : the flag for use of the SHARK integral package has been found!

================================================================================
                                       INPUT FILE
================================================================================
NAME = Si-Cl_79_A.inp
|  1> ! ri-mp2 aug-cc-pvdz aug-cc-pvdz/c tightscf
|  2> %pal nprocs 16 end
|  3> %maxcore 3800
|  4> %base "DZ_Si-Cl_79_A"
|  5> %scf
|  6> STABPerform true 
|  7> STABRestartUHFifUnstable true
|  8> end
|  9> 
| 10> *xyz 0 2
| 11> Si        -0.562767    0.542670   -0.136114
| 12> F        -1.575897   -0.673338    0.058554
| 13> Cl         1.344835   -0.178370    0.023623
| 14> H        -0.800383    1.494941    0.977014
| 15> *
| 16> 
| 17> $new_job
| 18> ! ri-mp2 aug-cc-pvtz aug-cc-pvtz/c tightscf
| 19> %pal nprocs 16 end
| 20> %maxcore 3800
| 21> %base "TZ_Si-Cl_79_A"
| 22> 
| 23> *xyz 0 2
| 24> Si        -0.562767    0.542670   -0.136114
| 25> F        -1.575897   -0.673338    0.058554
| 26> Cl         1.344835   -0.178370    0.023623
| 27> H        -0.800383    1.494941    0.977014
| 28> *
| 29> 
| 30> $new_job
| 31> ! ri-mp2 aug-cc-pvqz aug-cc-pvqz/c tightscf
| 32> %pal nprocs 16 end
| 33> %maxcore 3800
| 34> %base "QZ_Si-Cl_79_A"
| 35> 
| 36> *xyz 0 2
| 37> Si        -0.562767    0.542670   -0.136114
| 38> F        -1.575897   -0.673338    0.058554
| 39> Cl         1.344835   -0.178370    0.023623
| 40> H        -0.800383    1.494941    0.977014
| 41> *
| 42> 
| 43> 
| 44> 
| 45> 
| 46>                          ****END OF INPUT****
================================================================================


                 $$$$$$$$$$$$$$$$$$$$$$$$$$$$$$$$$$$$$$$$$$$$$$ 
                 $ THERE ARE  3 JOBS TO BE PROCESSED THIS RUN $
                 $$$$$$$$$$$$$$$$$$$$$$$$$$$$$$$$$$$$$$$$$$$$$$ 




                 $$$$$$$$$$$$$$$$  JOB NUMBER  1 $$$$$$$$$$$$$$


                       ****************************
                       * Single Point Calculation *
                       ****************************

---------------------------------
CARTESIAN COORDINATES (ANGSTROEM)
---------------------------------
  Si    -0.562767    0.542670   -0.136114
  F     -1.575897   -0.673338    0.058554
  Cl     1.344835   -0.178370    0.023623
  H     -0.800383    1.494941    0.977014

----------------------------
CARTESIAN COORDINATES (A.U.)
----------------------------
  NO LB      ZA    FRAG     MASS         X           Y           Z
   0 Si   14.0000    0    28.086   -1.063476    1.025498   -0.257218
   1 F     9.0000    0    18.998   -2.978014   -1.272424    0.110651
   2 Cl   17.0000    0    35.453    2.541370   -0.337070    0.044641
   3 H     1.0000    0     1.008   -1.512505    2.825029    1.846289

--------------------------------
INTERNAL COORDINATES (ANGSTROEM)
--------------------------------
 Si     0   0   0     0.000000000000     0.00000000     0.00000000
 F      1   0   0     1.594679743142     0.00000000     0.00000000
 Cl     1   2   0     2.045570820376   108.30943165     0.00000000
 H      1   2   3     1.484026740083   107.21864772   243.12524760

---------------------------
INTERNAL COORDINATES (A.U.)
---------------------------
 Si     0   0   0     0.000000000000     0.00000000     0.00000000
 F      1   0   0     3.013507985851     0.00000000     0.00000000
 Cl     1   2   0     3.865568638051   108.30943165     0.00000000
 H      1   2   3     2.804404114173   107.21864772   243.12524760

---------------------
BASIS SET INFORMATION
---------------------
There are 4 groups of distinct atoms

 Group   1 Type Si  : 35s16p2d contracted to 5s4p2d pattern {11111111/7711/11}
 Group   2 Type F   : 18s5p2d contracted to 4s3p2d pattern {8811/311/11}
 Group   3 Type Cl  : 35s16p2d contracted to 5s4p2d pattern {11111111/7711/11}
 Group   4 Type H   : 5s2p contracted to 3s2p pattern {311/11}

Atom   0Si   basis set group =>   1
Atom   1F    basis set group =>   2
Atom   2Cl   basis set group =>   3
Atom   3H    basis set group =>   4
---------------------------------
AUXILIARY/C BASIS SET INFORMATION
---------------------------------
There are 4 groups of distinct atoms

 Group   1 Type Si  : 10s8p6d4f contracted to 10s8p6d4f pattern {1111111111/11111111/111111/1111}
 Group   2 Type F   : 8s6p5d3f contracted to 8s6p5d3f pattern {11111111/111111/11111/111}
 Group   3 Type Cl  : 10s8p6d4f contracted to 10s8p6d4f pattern {1111111111/11111111/111111/1111}
 Group   4 Type H   : 4s3p2d contracted to 4s3p2d pattern {1111/111/11}

Atom   0Si   basis set group =>   1
Atom   1F    basis set group =>   2
Atom   2Cl   basis set group =>   3
Atom   3H    basis set group =>   4


           ************************************************************
           *        Program running with 16 parallel MPI-processes    *
           *              working on a common directory               *
           ************************************************************
------------------------------------------------------------------------------
                           ORCA GTO INTEGRAL CALCULATION
------------------------------------------------------------------------------
------------------------------------------------------------------------------
                   ___                                                        
                  /   \      - P O W E R E D   B Y -                         
                 /     \                                                     
                 |  |  |   _    _      __       _____    __    __             
                 |  |  |  | |  | |    /  \     |  _  \  |  |  /  |          
                  \  \/   | |  | |   /    \    | | | |  |  | /  /          
                 / \  \   | |__| |  /  /\  \   | |_| |  |  |/  /          
                |  |  |   |  __  | /  /__\  \  |    /   |      \           
                |  |  |   | |  | | |   __   |  |    \   |  |\   \          
                \     /   | |  | | |  |  |  |  | |\  \  |  | \   \       
                 \___/    |_|  |_| |__|  |__|  |_| \__\ |__|  \__/        
                                                                              
                      - O R C A' S   B I G   F R I E N D -                    
                                      &                                       
                       - I N T E G R A L  F E E D E R -                       
                                                                              
 v1 FN, 2020, v2 2021                                                         
------------------------------------------------------------------------------


Reading SHARK input file DZ_Si-Cl_79_A.SHARKINP.tmp ... ok
----------------------
SHARK INTEGRAL PACKAGE
----------------------

Number of atoms                             ...      4
Number of basis functions                   ...    138
Number of shells                            ...     68
Maximum angular momentum                    ...      2
Integral batch strategy                     ... SHARK/LIBINT Hybrid
RI-J (if used) integral strategy            ... SPLIT-RIJ (Revised 2003 algorithm where possible)
Printlevel                                  ...      1
Contraction scheme used                     ... PARTIAL GENERAL contraction
Coulomb Range Separation                    ... NOT USED
Exchange Range Separation                   ... NOT USED
Finite Nucleus Model                        ... NOT USED
Auxiliary Coulomb fitting basis             ... NOT available
Auxiliary J/K fitting basis                 ... NOT available
Auxiliary Correlation fitting basis         ... AVAILABLE
   # of basis functions in Aux-C            ...    279
   # of shells in Aux-C                     ...     87
   Maximum angular momentum in Aux-C        ...      3
Auxiliary 'external' fitting basis          ... NOT available
Integral threshold                          ...     2.500000e-11
Primitive cut-off                           ...     2.500000e-12
Primitive pair pre-selection threshold      ...     2.500000e-12

Calculating pre-screening integrals         ... done (  0.0 sec) Dimension = 68
Calculating pre-screening integrals (ORCA)  ... done (  0.1 sec) Dimension = 36
Organizing shell pair data                  ... done (  0.0 sec)
Shell pair information
Total number of shell pairs                 ...      2346
Shell pairs after pre-screening             ...      1888
Total number of primitive shell pairs       ...      2634
Primitive shell pairs kept                  ...      2059
          la=0 lb=0:    548 shell pairs
          la=1 lb=0:    715 shell pairs
          la=1 lb=1:    247 shell pairs
          la=2 lb=0:    224 shell pairs
          la=2 lb=1:    133 shell pairs
          la=2 lb=2:     21 shell pairs

Calculating one electron integrals          ... done (  0.0 sec)
Calculating RI/C V-Matrix + Cholesky decomp.... done (  0.0 sec)
Calculating Nuclear repulsion               ... done (  0.0 sec) ENN=    140.743536995386 Eh

SHARK setup successfully completed in   0.3 seconds

Maximum memory used throughout the entire GTOINT-calculation: 26.3 MB


           ************************************************************
           *        Program running with 16 parallel MPI-processes    *
           *              working on a common directory               *
           ************************************************************
-------------------------------------------------------------------------------
                                 ORCA SCF
-------------------------------------------------------------------------------

------------
SCF SETTINGS
------------
Hamiltonian:
 Ab initio Hamiltonian  Method          .... Hartree-Fock(GTOs)


General Settings:
 Integral files         IntName         .... DZ_Si-Cl_79_A
 Hartree-Fock type      HFTyp           .... UHF
 Total Charge           Charge          ....    0
 Multiplicity           Mult            ....    2
 Number of Electrons    NEL             ....   41
 Basis Dimension        Dim             ....   86
 Nuclear Repulsion      ENuc            ....    140.7435369954 Eh

Convergence Acceleration:
 DIIS                   CNVDIIS         .... on
   Start iteration      DIISMaxIt       ....    12
   Startup error        DIISStart       ....  0.200000
   # of expansion vecs  DIISMaxEq       ....     5
   Bias factor          DIISBfac        ....   1.050
   Max. coefficient     DIISMaxC        ....  10.000
 Trust-Rad. Augm. Hess. CNVTRAH         .... auto
   Auto Start mean grad. ratio tolernc. ....  1.125000
   Auto Start start iteration           ....    20
   Auto Start num. interpolation iter.  ....    10
   Max. Number of Micro iterations      ....    16
   Max. Number of Macro iterations      .... Maxiter - #DIIS iter
   Number of Davidson start vectors     ....     2
   Converg. threshold I  (grad. norm)   ....   1.000e-05
   Converg. threshold II (energy diff.) ....   1.000e-08
   Grad. Scal. Fac. for Micro threshold ....   0.100
   Minimum threshold for Micro iter.    ....   0.010
   NR start threshold (gradient norm)   ....   0.001
   Initial trust radius                 ....   0.400
   Minimum AH scaling param. (alpha)    ....   1.000
   Maximum AH scaling param. (alpha)    .... 1000.000
   Orbital update algorithm             .... Taylor
   White noise on init. David. guess    .... on
   Maximum white noise                  ....   0.010
   Quad. conv. algorithm                .... NR
 SOSCF                  CNVSOSCF        .... off
 Level Shifting         CNVShift        .... on
   Level shift para.    LevelShift      ....    0.2500
   Turn off err/grad.   ShiftErr        ....    0.0010
 Zerner damping         CNVZerner       .... off
 Static damping         CNVDamp         .... on
   Fraction old density DampFac         ....    0.7000
   Max. Damping (<1)    DampMax         ....    0.9800
   Min. Damping (>=0)   DampMin         ....    0.0000
   Turn off err/grad.   DampErr         ....    0.1000
 Fernandez-Rico         CNVRico         .... off

SCF Procedure:
 Maximum # iterations   MaxIter         ....   125
 SCF integral mode      SCFMode         .... Direct
   Integral package                     .... SHARK and LIBINT hybrid scheme
 Reset frequency        DirectResetFreq ....    20
 Integral Threshold     Thresh          ....  2.500e-11 Eh
 Primitive CutOff       TCut            ....  2.500e-12 Eh

Convergence Tolerance:
 Convergence Check Mode ConvCheckMode   .... Total+1el-Energy
 Convergence forced     ConvForced      .... 1
 Energy Change          TolE            ....  1.000e-08 Eh
 1-El. energy change                    ....  1.000e-05 Eh
 DIIS Error             TolErr          ....  5.000e-07


Diagonalization of the overlap matrix:
Smallest eigenvalue                        ... 8.638e-04
Time for diagonalization                   ...    0.001 sec
Threshold for overlap eigenvalues          ... 1.000e-08
Number of eigenvalues below threshold      ... 0
Time for construction of square roots      ...    0.006 sec
Total time needed                          ...    0.007 sec

Time for model grid setup =    0.102 sec

------------------------------
INITIAL GUESS: MODEL POTENTIAL
------------------------------
Loading Hartree-Fock densities                     ... done
Calculating cut-offs                               ... done
Initializing the effective Hamiltonian             ... done
Setting up the integral package (SHARK)            ... done
Starting the Coulomb interaction                   ... done (   0.0 sec)
Reading the grid                                   ... done
Mapping shells                                     ... done
Starting the XC term evaluation                    ... done (   0.0 sec)
Transforming the Hamiltonian                       ... done (   0.0 sec)
Diagonalizing the Hamiltonian                      ... done (   0.0 sec)
Back transforming the eigenvectors                 ... done (   0.0 sec)
Now organizing SCF variables                       ... done
                      ------------------
                      INITIAL GUESS DONE (   0.2 sec)
                      ------------------
--------------
SCF ITERATIONS
--------------
ITER       Energy         Delta-E        Max-DP      RMS-DP      [F,P]     Damp
               ***  Starting incremental Fock matrix formation  ***
  0   -848.4814029277   0.000000000000 0.01586758  0.00098068  0.0793507 0.7000
  1   -848.4979577438  -0.016554816057 0.01465888  0.00078225  0.0478745 0.7000
                               ***Turning on DIIS***
  2   -848.5092707519  -0.011313008138 0.04249591  0.00197944  0.0270130 0.0000
  3   -848.5314745564  -0.022203804450 0.03118723  0.00058518  0.0125495 0.0000
  4   -848.5790863864  -0.047611829964 0.02023286  0.00035505  0.0060233 0.0000
  5   -848.5243522972   0.054734089164 0.01684895  0.00026906  0.0025710 0.0000
  6   -848.5410128580  -0.016660560797 0.00653922  0.00012629  0.0014676 0.0000
  7   -848.5377587056   0.003254152425 0.00369788  0.00008494  0.0007356 0.0000
  8   -848.5393656608  -0.001606955258 0.00060581  0.00001898  0.0002350 0.0000
  9   -848.5397196817  -0.000354020872 0.00019470  0.00000639  0.0000852 0.0000
 10   -848.5397229232  -0.000003241469 0.00007200  0.00000244  0.0000340 0.0000
 11   -848.5398425265  -0.000119603294 0.00004698  0.00000109  0.0000156 0.0000
 12   -848.5397899646   0.000052561888 0.00001933  0.00000055  0.0000072 0.0000
 13   -848.5397901791  -0.000000214573 0.00000595  0.00000020  0.0000032 0.0000
 14   -848.5398034358  -0.000013256627 0.00000246  0.00000008  0.0000014 0.0000
                            ***DIIS convergence achieved***

               *****************************************************
               *                     SUCCESS                       *
               *           SCF CONVERGED AFTER  15 CYCLES          *
               *****************************************************


------------------------------------------------------------------------------
                          SCF STABILITY ANALYSIS                              
------------------------------------------------------------------------------


                       ****Iteration    0****

   Memory handling for direct AO based CIS:
   Memory per vector needed      ...     1 MB
   Memory needed                 ...     2 MB
   Memory available              ...  3800 MB
   Number of vectors per batch   ...  3800
   Number of batches             ...     1
   Time for densities:     0.001
   Using LibInt in JK Direct
   Time for J+K (Direct):     0.433
   Time for Sigma-Completion:     0.028
   Lowest Energy          :     0.267916547097
   Maximum Energy change  :     0.284603520029 (vector 2)
   Maximum residual norm  :     0.005316244144

                       ****Iteration    1****
   Time for densities:     0.000
   Using LibInt in JK Direct
   Time for J+K (Direct):     0.332
   Time for Sigma-Completion:     0.021
   Lowest Energy          :     0.210734381879
   Maximum Energy change  :     0.057182165218 (vector 0)
   Maximum residual norm  :     0.006854063177

                       ****Iteration    2****
   Time for densities:     0.000
   Using LibInt in JK Direct
   Time for J+K (Direct):     0.337
   Time for Sigma-Completion:     0.021
   Lowest Energy          :     0.200824413947
   Maximum Energy change  :     0.013838246882 (vector 1)
   Maximum residual norm  :     0.003909231059

                       ****Iteration    3****
   Time for densities:     0.000
   Using LibInt in JK Direct
   Time for J+K (Direct):     0.340
   Time for Sigma-Completion:     0.012
   Lowest Energy          :     0.197663893554
   Maximum Energy change  :     0.004285494689 (vector 1)
   Maximum residual norm  :     0.000407577984

                       ****Iteration    4****
   Time for densities:     0.000
   Using LibInt in JK Direct
   Time for J+K (Direct):     0.335
   Time for Sigma-Completion:     0.014
   Lowest Energy          :     0.197205623117
   Maximum Energy change  :     0.000632962981 (vector 1)
   Maximum residual norm  :     0.000187571222

                       ****Iteration    5****
   Time for densities:     0.000
   Using LibInt in JK Direct
   Time for J+K (Direct):     0.337
   Time for Sigma-Completion:     0.017
   Lowest Energy          :     0.196995030605
   Maximum Energy change  :     0.000380661040 (vector 2)
   Maximum residual norm  :     0.000102384568

                       ****Iteration    6****
   Time for densities:     0.000
   Using LibInt in JK Direct
   Time for J+K (Direct):     0.332
   Time for Sigma-Completion:     0.016
   Lowest Energy          :     0.196855183313
   Maximum Energy change  :     0.000241460657 (vector 2)
   Maximum residual norm  :     0.000147083025

                       ****Iteration    7****
   Time for densities:     0.000
   Using LibInt in JK Direct
   Time for J+K (Direct):     0.333
   Time for Sigma-Completion:     0.014
   Lowest Energy          :     0.196789761056
   Maximum Energy change  :     0.010339449714 (vector 2)
   Maximum residual norm  :     0.006538318471

                       ****Iteration    8****
   Time for densities:     0.000
   Using LibInt in JK Direct
   Time for J+K (Direct):     0.337
   Time for Sigma-Completion:     0.020
   Lowest Energy          :     0.196751029998
   Maximum Energy change  :     0.008903788549 (vector 2)
   Maximum residual norm  :     0.002647817415

                       ****Iteration    9****
   Time for densities:     0.000
   Using LibInt in JK Direct
   Time for J+K (Direct):     0.335
   Time for Sigma-Completion:     1.216
   Lowest Energy          :     0.196727470406
   Maximum Energy change  :     0.004925143159 (vector 2)
   Maximum residual norm  :     0.001035501984

                       ****Iteration   10****
   Time for densities:     0.000
   Using LibInt in JK Direct
   Time for J+K (Direct):     0.343
   Time for Sigma-Completion:     0.011
   Lowest Energy          :     0.196720483393
   Maximum Energy change  :     0.001734072529 (vector 2)
   Maximum residual norm  :     0.000203445529

                       ****Iteration   11****
   Time for densities:     0.000
   Using LibInt in JK Direct
   Time for J+K (Direct):     0.338
   Time for Sigma-Completion:     0.018
   Lowest Energy          :     0.196719184647
   Maximum Energy change  :     0.000381001799 (vector 2)
   Maximum residual norm  :     0.000048127518

      *** CONVERGENCE OF RESIDUAL NORM REACHED ***

----------------------------- 
SCF STABILITY ANALYSIS RESULT 
----------------------------- 

UHF/UKS->UHF/UKS - singlet - internal

   Root    Eigenvalue (au) 
     0       0.196719 
     1       0.208477 
     2       0.220304 

Stability Analysis indicates a stable HF/KS wave function.


Total time for performing the stability analysis:     5.752sec


----------------
TOTAL SCF ENERGY
----------------

Total Energy       :         -848.53979532 Eh          -23089.94170 eV

Components:
Nuclear Repulsion  :          140.74353700 Eh            3829.82635 eV
Electronic Energy  :         -989.28333232 Eh          -26919.76805 eV
One Electron Energy:        -1456.17609066 Eh          -39624.56590 eV
Two Electron Energy:          466.89275834 Eh           12704.79785 eV

Virial components:
Potential Energy   :        -1696.97703096 Eh          -46177.09261 eV
Kinetic Energy     :          848.43723564 Eh           23087.15091 eV
Virial Ratio       :            2.00012088


---------------
SCF CONVERGENCE
---------------

  Last Energy change         ...    8.1127e-06  Tolerance :   1.0000e-08
  Last MAX-Density change    ...    1.2890e-06  Tolerance :   1.0000e-07
  Last RMS-Density change    ...    3.7460e-08  Tolerance :   5.0000e-09
  Last DIIS Error            ...    4.4627e-07  Tolerance :   5.0000e-07

             **** THE GBW FILE WAS UPDATED (DZ_Si-Cl_79_A.gbw) ****
             **** DENSITY DZ_Si-Cl_79_A.scfp WAS UPDATED ****
             **** ENERGY FILE WAS UPDATED (DZ_Si-Cl_79_A.en.tmp) ****
----------------------
UHF SPIN CONTAMINATION
----------------------

Expectation value of <S**2>     :     0.754334
Ideal value S*(S+1) for S=0.5   :     0.750000
Deviation                       :     0.004334

             **** THE GBW FILE WAS UPDATED (DZ_Si-Cl_79_A.gbw) ****
             **** DENSITY DZ_Si-Cl_79_A.scfp WAS UPDATED ****
----------------
ORBITAL ENERGIES
----------------
                 SPIN UP ORBITALS
  NO   OCC          E(Eh)            E(eV) 
   0   1.0000    -104.844978     -2852.9769 
   1   1.0000     -68.895960     -1874.7544 
   2   1.0000     -26.320708      -716.2229 
   3   1.0000     -10.573647      -287.7236 
   4   1.0000      -8.041823      -218.8291 
   5   1.0000      -8.038428      -218.7368 
   6   1.0000      -8.037843      -218.7208 
   7   1.0000      -6.234576      -169.6514 
   8   1.0000      -4.344668      -118.2244 
   9   1.0000      -4.338477      -118.0560 
  10   1.0000      -4.336674      -118.0069 
  11   1.0000      -1.617532       -44.0153 
  12   1.0000      -1.121481       -30.5170 
  13   1.0000      -0.791653       -21.5420 
  14   1.0000      -0.694998       -18.9119 
  15   1.0000      -0.687926       -18.7194 
  16   1.0000      -0.648397       -17.6438 
  17   1.0000      -0.545123       -14.8335 
  18   1.0000      -0.502519       -13.6742 
  19   1.0000      -0.485881       -13.2215 
  20   1.0000      -0.372387       -10.1332 
  21   0.0000       0.046492         1.2651 
  22   0.0000       0.051353         1.3974 
  23   0.0000       0.053284         1.4499 
  24   0.0000       0.063283         1.7220 
  25   0.0000       0.108225         2.9450 
  26   0.0000       0.135689         3.6923 
  27   0.0000       0.143232         3.8976 
  28   0.0000       0.150973         4.1082 
  29   0.0000       0.159916         4.3515 
  30   0.0000       0.166490         4.5304 
  31   0.0000       0.210815         5.7366 
  32   0.0000       0.219921         5.9843 
  33   0.0000       0.247943         6.7469 
  34   0.0000       0.265267         7.2183 
  35   0.0000       0.301107         8.1935 
  36   0.0000       0.311004         8.4629 
  37   0.0000       0.317445         8.6381 
  38   0.0000       0.333241         9.0679 
  39   0.0000       0.355588         9.6760 
  40   0.0000       0.365284         9.9399 
  41   0.0000       0.373638        10.1672 
  42   0.0000       0.446798        12.1580 
  43   0.0000       0.468091        12.7374 
  44   0.0000       0.484795        13.1919 
  45   0.0000       0.514865        14.0102 
  46   0.0000       0.532530        14.4909 
  47   0.0000       0.549408        14.9502 
  48   0.0000       0.562513        15.3068 
  49   0.0000       0.596902        16.2425 
  50   0.0000       0.616220        16.7682 
  51   0.0000       0.662850        18.0371 
  52   0.0000       0.711936        19.3728 
  53   0.0000       0.748267        20.3614 
  54   0.0000       0.790291        21.5049 
  55   0.0000       0.820201        22.3188 
  56   0.0000       0.825264        22.4566 
  57   0.0000       0.948674        25.8147 
  58   0.0000       0.983089        26.7512 
  59   0.0000       1.003487        27.3063 
  60   0.0000       1.066584        29.0232 
  61   0.0000       1.118264        30.4295 
  62   0.0000       1.230844        33.4930 
  63   0.0000       1.360788        37.0289 
  64   0.0000       1.415063        38.5058 
  65   0.0000       1.429583        38.9009 
  66   0.0000       1.430428        38.9239 
  67   0.0000       1.478510        40.2323 
  68   0.0000       1.496459        40.7207 
  69   0.0000       1.521161        41.3929 
  70   0.0000       1.539641        41.8958 
  71   0.0000       1.593891        43.3720 
  72   0.0000       1.632434        44.4208 
  73   0.0000       1.681237        45.7488 
  74   0.0000       1.747578        47.5540 
  75   0.0000       1.860459        50.6257 
  76   0.0000       1.924240        52.3612 
  77   0.0000       2.033438        55.3327 
  78   0.0000       2.190850        59.6161 
  79   0.0000       2.287231        62.2387 
  80   0.0000       3.042249        82.7838 
  81   0.0000       4.879748       132.7847 
  82   0.0000       4.890349       133.0732 
  83   0.0000       4.972567       135.3104 
  84   0.0000       5.010177       136.3338 
  85   0.0000       5.068185       137.9123 

                 SPIN DOWN ORBITALS
  NO   OCC          E(Eh)            E(eV) 
   0   1.0000    -104.843867     -2852.9467 
   1   1.0000     -68.890078     -1874.5943 
   2   1.0000     -26.317529      -716.1364 
   3   1.0000     -10.572427      -287.6904 
   4   1.0000      -8.039274      -218.7598 
   5   1.0000      -8.037270      -218.7052 
   6   1.0000      -8.035973      -218.6699 
   7   1.0000      -6.224955      -169.3896 
   8   1.0000      -4.334722      -117.9538 
   9   1.0000      -4.333359      -117.9167 
  10   1.0000      -4.324741      -117.6822 
  11   1.0000      -1.608724       -43.7756 
  12   1.0000      -1.112142       -30.2629 
  13   1.0000      -0.770142       -20.9566 
  14   1.0000      -0.685690       -18.6586 
  15   1.0000      -0.672802       -18.3079 
  16   1.0000      -0.620340       -16.8803 
  17   1.0000      -0.523876       -14.2554 
  18   1.0000      -0.487537       -13.2666 
  19   1.0000      -0.479447       -13.0464 
  20   0.0000       0.015436         0.4200 
  21   0.0000       0.051704         1.4069 
  22   0.0000       0.054339         1.4786 
  23   0.0000       0.056367         1.5338 
  24   0.0000       0.073784         2.0078 
  25   0.0000       0.120287         3.2732 
  26   0.0000       0.140304         3.8179 
  27   0.0000       0.159527         4.3410 
  28   0.0000       0.164173         4.4674 
  29   0.0000       0.167413         4.5555 
  30   0.0000       0.179715         4.8903 
  31   0.0000       0.220650         6.0042 
  32   0.0000       0.233976         6.3668 
  33   0.0000       0.263629         7.1737 
  34   0.0000       0.271826         7.3968 
  35   0.0000       0.307229         8.3601 
  36   0.0000       0.317071         8.6279 
  37   0.0000       0.327492         8.9115 
  38   0.0000       0.339934         9.2501 
  39   0.0000       0.361771         9.8443 
  40   0.0000       0.374083        10.1793 
  41   0.0000       0.383791        10.4435 
  42   0.0000       0.454675        12.3723 
  43   0.0000       0.479209        13.0399 
  44   0.0000       0.497801        13.5459 
  45   0.0000       0.526731        14.3331 
  46   0.0000       0.547203        14.8901 
  47   0.0000       0.554920        15.1001 
  48   0.0000       0.578144        15.7321 
  49   0.0000       0.604463        16.4483 
  50   0.0000       0.631011        17.1707 
  51   0.0000       0.683183        18.5903 
  52   0.0000       0.736838        20.0504 
  53   0.0000       0.774281        21.0693 
  54   0.0000       0.802159        21.8279 
  55   0.0000       0.830034        22.5864 
  56   0.0000       0.863637        23.5008 
  57   0.0000       0.956503        26.0278 
  58   0.0000       0.990526        26.9536 
  59   0.0000       1.012349        27.5474 
  60   0.0000       1.069672        29.1073 
  61   0.0000       1.121821        30.5263 
  62   0.0000       1.247079        33.9347 
  63   0.0000       1.363822        37.1115 
  64   0.0000       1.419632        38.6302 
  65   0.0000       1.431933        38.9649 
  66   0.0000       1.434596        39.0373 
  67   0.0000       1.484328        40.3906 
  68   0.0000       1.499349        40.7994 
  69   0.0000       1.525887        41.5215 
  70   0.0000       1.544584        42.0303 
  71   0.0000       1.597653        43.4743 
  72   0.0000       1.635099        44.4933 
  73   0.0000       1.685477        45.8642 
  74   0.0000       1.756707        47.8024 
  75   0.0000       1.867230        50.8099 
  76   0.0000       1.937337        52.7176 
  77   0.0000       2.044847        55.6431 
  78   0.0000       2.194263        59.7089 
  79   0.0000       2.296918        62.5023 
  80   0.0000       3.049427        82.9791 
  81   0.0000       4.884148       132.9044 
  82   0.0000       4.895431       133.2115 
  83   0.0000       4.978644       135.4758 
  84   0.0000       5.012304       136.3917 
  85   0.0000       5.072456       138.0286 

                    ********************************
                    * MULLIKEN POPULATION ANALYSIS *
                    ********************************

--------------------------------------------
MULLIKEN ATOMIC CHARGES AND SPIN POPULATIONS
--------------------------------------------
   0 Si:    1.248509    0.837951
   1 F :   -0.737271   -0.008452
   2 Cl:   -0.474658    0.043474
   3 H :   -0.036580    0.127027
Sum of atomic charges         :    0.0000000
Sum of atomic spin populations:    1.0000000

-----------------------------------------------------
MULLIKEN REDUCED ORBITAL CHARGES AND SPIN POPULATIONS
-----------------------------------------------------
CHARGE
  0 Sis       :     4.968243  s :     4.968243
      pz      :     2.742333  p :     7.471759
      px      :     2.303418
      py      :     2.426008
      dz2     :     0.041692  d :     0.311489
      dxz     :     0.036038
      dyz     :     0.096263
      dx2y2   :     0.077846
      dxy     :     0.059650
  1 F s       :     4.066807  s :     4.066807
      pz      :     1.914999  p :     5.650910
      px      :     1.885079
      py      :     1.850832
      dz2     :     0.002357  d :     0.019554
      dxz     :     0.002466
      dyz     :     0.002942
      dx2y2   :     0.003961
      dxy     :     0.007828
  2 Cls       :     6.024035  s :     6.024035
      pz      :     3.930107  p :    11.413403
      px      :     3.588203
      py      :     3.895094
      dz2     :     0.005619  d :     0.037220
      dxz     :     0.008900
      dyz     :     0.001228
      dx2y2   :     0.012553
      dxy     :     0.008920
  3 H s       :     1.002417  s :     1.002417
      pz      :     0.005826  p :     0.034164
      px      :     0.005886
      py      :     0.022452

SPIN
  0 Sis       :     0.269835  s :     0.269835
      pz      :     0.481160  p :     0.537272
      px      :     0.015167
      py      :     0.040945
      dz2     :     0.011830  d :     0.030845
      dxz     :     0.000082
      dyz     :     0.017240
      dx2y2   :     0.001870
      dxy     :    -0.000177
  1 F s       :    -0.006470  s :    -0.006470
      pz      :    -0.000769  p :    -0.000624
      px      :    -0.000019
      py      :     0.000164
      dz2     :     0.000066  d :    -0.001359
      dxz     :    -0.000247
      dyz     :    -0.000878
      dx2y2   :    -0.000092
      dxy     :    -0.000207
  2 Cls       :     0.003206  s :     0.003206
      pz      :     0.019343  p :     0.041120
      px      :     0.017290
      py      :     0.004487
      dz2     :     0.000388  d :    -0.000851
      dxz     :    -0.000266
      dyz     :    -0.000145
      dx2y2   :    -0.000146
      dxy     :    -0.000683
  3 H s       :     0.131815  s :     0.131815
      pz      :    -0.008495  p :    -0.004789
      px      :     0.000770
      py      :     0.002936


                     *******************************
                     * LOEWDIN POPULATION ANALYSIS *
                     *******************************

-------------------------------------------
LOEWDIN ATOMIC CHARGES AND SPIN POPULATIONS
-------------------------------------------
   0 Si:    0.547679    0.732621
   1 F :   -0.411661    0.069405
   2 Cl:    0.039117    0.093794
   3 H :   -0.175135    0.104180

----------------------------------------------------
LOEWDIN REDUCED ORBITAL CHARGES AND SPIN POPULATIONS
----------------------------------------------------
CHARGE
  0 Sis       :     4.695977  s :     4.695977
      pz      :     2.715049  p :     7.748089
      px      :     2.491325
      py      :     2.541716
      dz2     :     0.126608  d :     1.008254
      dxz     :     0.150569
      dyz     :     0.195846
      dx2y2   :     0.263096
      dxy     :     0.272134
  1 F s       :     3.744780  s :     3.744780
      pz      :     1.889592  p :     5.600352
      px      :     1.856255
      py      :     1.854504
      dz2     :     0.010330  d :     0.066529
      dxz     :     0.005785
      dyz     :     0.009393
      dx2y2   :     0.010272
      dxy     :     0.030748
  2 Cls       :     5.660359  s :     5.660359
      pz      :     3.823035  p :    11.187580
      px      :     3.576134
      py      :     3.788411
      dz2     :     0.016910  d :     0.112944
      dxz     :     0.026389
      dyz     :     0.005121
      dx2y2   :     0.030341
      dxy     :     0.034183
  3 H s       :     0.987529  s :     0.987529
      pz      :     0.110974  p :     0.187606
      px      :     0.022270
      py      :     0.054362

SPIN
  0 Sis       :     0.160850  s :     0.160850
      pz      :     0.445486  p :     0.494478
      px      :     0.006840
      py      :     0.042152
      dz2     :     0.022365  d :     0.077294
      dxz     :     0.001140
      dyz     :     0.052544
      dx2y2   :     0.001382
      dxy     :    -0.000137
  1 F s       :     0.009668  s :     0.009668
      pz      :     0.035003  p :     0.052713
      px      :     0.001976
      py      :     0.015734
      dz2     :     0.000003  d :     0.007023
      dxz     :     0.002093
      dyz     :     0.004225
      dx2y2   :     0.000509
      dxy     :     0.000193
  2 Cls       :     0.008075  s :     0.008075
      pz      :     0.033973  p :     0.062629
      px      :     0.022466
      py      :     0.006191
      dz2     :     0.000375  d :     0.023090
      dxz     :     0.016287
      dyz     :     0.003528
      dx2y2   :     0.000459
      dxy     :     0.002440
  3 H s       :     0.064128  s :     0.064128
      pz      :     0.038292  p :     0.040052
      px      :     0.000587
      py      :     0.001173


                      *****************************
                      * MAYER POPULATION ANALYSIS *
                      *****************************

  NA   - Mulliken gross atomic population
  ZA   - Total nuclear charge
  QA   - Mulliken gross atomic charge
  VA   - Mayer's total valence
  BVA  - Mayer's bonded valence
  FA   - Mayer's free valence

  ATOM       NA         ZA         QA         VA         BVA        FA
  0 Si    12.7515    14.0000     1.2485     3.0111     2.1199     0.8912
  1 F      9.7373     9.0000    -0.7373     0.3241     0.3212     0.0029
  2 Cl    17.4747    17.0000    -0.4747     0.8624     0.8547     0.0077
  3 H      1.0366     1.0000    -0.0366     1.0662     1.0491     0.0171

  Mayer bond orders larger than 0.100000
B(  0-Si,  1-F ) :   0.3028 B(  0-Si,  2-Cl) :   0.8076 B(  0-Si,  3-H ) :   1.0096 


-------
TIMINGS
-------

Total SCF time: 0 days 0 hours 0 min 7 sec 

Total time                  ....       7.796 sec
Sum of individual times     ....       7.346 sec  ( 94.2%)

Fock matrix formation       ....       1.042 sec  ( 13.4%)
Diagonalization             ....       0.229 sec  (  2.9%)
Density matrix formation    ....       0.003 sec  (  0.0%)
Population analysis         ....       0.058 sec  (  0.7%)
Initial guess               ....       0.051 sec  (  0.7%)
Orbital Transformation      ....       0.000 sec  (  0.0%)
Orbital Orthonormalization  ....       0.000 sec  (  0.0%)
DIIS solution               ....       0.108 sec  (  1.4%)
SCF Stability Analysis      ....       5.752 sec  ( 73.8%)

Maximum memory used throughout the entire SCF-calculation: 226.7 MB


           ************************************************************
           *        Program running with 16 parallel MPI-processes    *
           *              working on a common directory               *
           ************************************************************

------------------------------------------------------------------------------
                                ORCA  MP2 
------------------------------------------------------------------------------

Freezing NCore=22 chemical core electrons

-------------
RI-MP2 ENERGY
-------------
Dimension of the basis                    ...   86
Memory devoted to MP2                     ... 3800 MB   
Data format for buffers                   ... DOUBLE
Compression type for matrix containers    ... UNCOMPRESSED
Overall scaling of the MP2 energy         ...   1.000e+00
Calculating two index integrals           ... done (    0.001 sec)
Cholesky decomposition of V**-1           ... done (    0.007 sec)

-----------------
RI-TRANSFORMATION (AUX index driven)
-----------------

Dimension of the orbital-basis         ... 86
Dimension of the aux-basis             ... 279
Transformation of internal/external MOs...   11-  20 to   21-  85
Number Format for Storage              ... Double (8 Byte)
Integral mode                          ... Direct

First Phase: integral generation and transformation of MO indices
  Aux angular momentum 0               ... done (    0.001 sec)
  Aux angular momentum 1               ... done (    0.001 sec)
  Aux angular momentum 2               ... done (    0.002 sec)
  Aux angular momentum 3               ... done (    0.001 sec)
Closing buffer VIA ( 0.00 GB; CompressionRatio= 1.00)
  Phase 1 completed in     0.127 sec
Second Phase: sorting and transformation of aux index

IA-Transformation
Memory available                       ... 3758 MB 
Max. # MO pairs treated in a batch     ... 1    
# of internal orbitals                 ... 10
# batches for internal orbitals        ... 1
Closing buffer IAV ( 0.00 GB; CompressionRatio= 1.00)
(ia|v) transformation done in     2.098 sec

  Phase 2 completed in     5.696 sec
RI-Integral transformation completed in     5.849 sec

-----------------
RI-TRANSFORMATION (AUX index driven)
-----------------

Dimension of the orbital-basis         ... 86
Dimension of the aux-basis             ... 279
Transformation of internal/external MOs...   11-  19 to   20-  85
Number Format for Storage              ... Double (8 Byte)
Integral mode                          ... Direct

First Phase: integral generation and transformation of MO indices
  Aux angular momentum 0               ... done (    0.001 sec)
  Aux angular momentum 1               ... done (    0.001 sec)
  Aux angular momentum 2               ... done (    0.002 sec)
  Aux angular momentum 3               ... done (    0.001 sec)
Closing buffer VIA ( 0.00 GB; CompressionRatio= 1.00)
  Phase 1 completed in     1.700 sec
Second Phase: sorting and transformation of aux index

IA-Transformation
Memory available                       ... 3758 MB 
Max. # MO pairs treated in a batch     ... 1    
# of internal orbitals                 ... 9
# batches for internal orbitals        ... 1
Closing buffer IAV ( 0.00 GB; CompressionRatio= 1.00)
(ia|v) transformation done in     0.018 sec

  Phase 2 completed in     3.115 sec
RI-Integral transformation completed in     4.827 sec
Opening buffers                              ... done

Starting loop over batches of integrals:

Operator 0  - window                       ... ( 11- 20)x( 21- 85)
Operator 0  - Memory available             ...  3800 MB
Operator 0  - Memory needed per MO         ...   0.1 MB
Operator 0  - Number of orbitals per batch ... 1
Operator 0  - Number of batches            ... 1

OPERATOR  0   PASS   0:  MOs    11 ...   11 +   12 ...   12 +   13 ...   13 +   14 ...   14
                            +   15 ...   15 +   16 ...   16 +   17 ...   17 +   18 ...   18
                            +   19 ...   19 +   20 ...   20
  Reading integrals       ... ok

Operator 1  - window                       ... ( 11- 19)x( 20- 85)
Operator 1  - Memory available             ...  3800 MB
Operator 1  - Memory needed per MO         ...   0.1 MB
Operator 1  - Number of orbitals per batch ... 1
Operator 1  - Number of batches            ... 1

OPERATOR  1   PASS   0:  MOs    11 ...   11 +   12 ...   12 +   13 ...   13 +   14 ...   14
                            +   15 ...   15 +   16 ...   16 +   17 ...   17 +   18 ...   18
                            +   19 ...   19
  Reading integrals       ... ok
Time spent in pair loops =     0.026 sec
Deleting buffer (Ka|jb)[aa] ...done
Deleting buffer (Ka|jb)[ba] ...done
Deleting buffer (Ka|jb)[ab] ...done
Deleting buffer (Ka|jb)[bb] ...done

Correlation energy components}
 E2 and T2 for alpha/alpha pairs :     -0.058994087 Eh      0.000000000
 E2 and T2 for beta/beta   pairs :     -0.055692862 Eh      0.000000000
 E2 and T2 for alpha/beta  pairs :     -0.316301622 Eh      0.000000000


-----------------------------------------------
 RI-MP2 CORRELATION ENERGY:     -0.430988571 Eh
-----------------------------------------------


-------
TIMINGS
-------

Total time                :   10.751 sec
Integral trafo            :   10.697 sec ( 99.5%)
I/O of integrals          :    0.001 sec (  0.0%)
K(i,j) Operators          :    0.002 sec (  0.0%)
T(i,j) pair energies      :    0.000 sec (  0.0%)
V-calculation             :    0.001 sec (  0.0%)
V**(-1/2)                 :    0.007 sec (  0.1%)
Gamma(ia|P)               :    0.000 sec (  0.0%)
Gamma-Trafo               :    0.000 sec (  0.0%)
D(virtual)                :    0.000 sec (  0.0%)
D(internal)               :    0.000 sec (  0.0%)
W(virtual)                :    0.000 sec (  0.0%)
W(internal)               :    0.000 sec (  0.0%)
L(virtual)                :    0.000 sec (  0.0%)
L(internal)               :    0.000 sec (  0.0%)
G(D)                      :    0.000 sec (  0.0%)
G(Z)                      :    0.000 sec (  0.0%)
Z-Vector Solution         :    0.000 sec (  0.0%)
3-Index Derivative        :    0.000 sec (  0.0%)
2-Index Derivative        :    0.000 sec (  0.0%)
Separable Gradient        :    0.000 sec (  0.0%)


---------------------------------------
MP2 TOTAL ENERGY:     -848.970783894 Eh
---------------------------------------

Maximum memory used throughout the entire MP2-calculation: 81.7 MB

-------------------------   --------------------
FINAL SINGLE POINT ENERGY      -848.970783893767
-------------------------   --------------------


                            ***************************************
                            *     ORCA property calculations      *
                            ***************************************


  WARNING: The energy has been calculated at the MP2 level but the densities
           used in the property calculations are still SCF densities
           MP2 response densities have not been calculated 
           use %mp2 Density relaxed end
           or  %mp2 Density unrelaxed end

                                    ---------------------
                                    Active property flags
                                    ---------------------
   (+) Dipole Moment


------------------------------------------------------------------------------
                       ORCA ELECTRIC PROPERTIES CALCULATION
------------------------------------------------------------------------------

Dipole Moment Calculation                       ... on
Quadrupole Moment Calculation                   ... off
Polarizability Calculation                      ... off
GBWName                                         ... DZ_Si-Cl_79_A.gbw
Electron density                                ... DZ_Si-Cl_79_A.scfp
The origin for moment calculation is the CENTER OF MASS  = ( 0.025489, -0.053551 -0.020089)

-------------
DIPOLE MOMENT
-------------
                                X             Y             Z
Electronic contribution:      0.92559      -1.59336      -0.90774
Nuclear contribution   :     -1.04506       2.19557       0.82365
                        -----------------------------------------
Total Dipole Moment    :     -0.11946       0.60221      -0.08409
                        -----------------------------------------
Magnitude (a.u.)       :      0.61968
Magnitude (Debye)      :      1.57510



--------------------
Rotational spectrum 
--------------------
 
Rotational constants in cm-1:     0.776286     0.137846     0.119427 
Rotational constants in MHz : 23272.467542  4132.521271  3580.322332 

 Dipole components along the rotational axes: 
x,y,z [a.u.] :    -0.108621     0.609158    -0.033652 
x,y,z [Debye]:    -0.276093     1.548358    -0.085536 

 

Timings for individual modules:

Sum of individual times         ...       27.639 sec (=   0.461 min)
GTO integral calculation        ...        1.374 sec (=   0.023 min)   5.0 %
SCF iterations                  ...        8.897 sec (=   0.148 min)  32.2 %
MP2 module                      ...       17.368 sec (=   0.289 min)  62.8 %


                 $$$$$$$$$$$$$$$$  JOB NUMBER  2 $$$$$$$$$$$$$$


                       ****************************
                       * Single Point Calculation *
                       ****************************

---------------------------------
CARTESIAN COORDINATES (ANGSTROEM)
---------------------------------
  Si    -0.562767    0.542670   -0.136114
  F     -1.575897   -0.673338    0.058554
  Cl     1.344835   -0.178370    0.023623
  H     -0.800383    1.494941    0.977014

----------------------------
CARTESIAN COORDINATES (A.U.)
----------------------------
  NO LB      ZA    FRAG     MASS         X           Y           Z
   0 Si   14.0000    0    28.086   -1.063476    1.025498   -0.257218
   1 F     9.0000    0    18.998   -2.978014   -1.272424    0.110651
   2 Cl   17.0000    0    35.453    2.541370   -0.337070    0.044641
   3 H     1.0000    0     1.008   -1.512505    2.825029    1.846289

--------------------------------
INTERNAL COORDINATES (ANGSTROEM)
--------------------------------
 Si     0   0   0     0.000000000000     0.00000000     0.00000000
 F      1   0   0     1.594679743142     0.00000000     0.00000000
 Cl     1   2   0     2.045570820376   108.30943165     0.00000000
 H      1   2   3     1.484026740083   107.21864772   243.12524760

---------------------------
INTERNAL COORDINATES (A.U.)
---------------------------
 Si     0   0   0     0.000000000000     0.00000000     0.00000000
 F      1   0   0     3.013507985851     0.00000000     0.00000000
 Cl     1   2   0     3.865568638051   108.30943165     0.00000000
 H      1   2   3     2.804404114173   107.21864772   243.12524760

---------------------
BASIS SET INFORMATION
---------------------
There are 4 groups of distinct atoms

 Group   1 Type Si  : 42s17p3d2f contracted to 6s5p3d2f pattern {131313111/77111/111/11}
 Group   2 Type F   : 19s6p3d2f contracted to 5s4p3d2f pattern {88111/3111/111/11}
 Group   3 Type Cl  : 42s17p3d2f contracted to 6s5p3d2f pattern {131313111/77111/111/11}
 Group   4 Type H   : 6s3p2d contracted to 4s3p2d pattern {3111/111/11}

Atom   0Si   basis set group =>   1
Atom   1F    basis set group =>   2
Atom   2Cl   basis set group =>   3
Atom   3H    basis set group =>   4
---------------------------------
AUXILIARY/C BASIS SET INFORMATION
---------------------------------
There are 4 groups of distinct atoms

 Group   1 Type Si  : 11s9p8d6f3g contracted to 11s9p8d6f3g pattern {11111111111/111111111/11111111/111111/111}
 Group   2 Type F   : 9s7p6d4f2g contracted to 9s7p6d4f2g pattern {111111111/1111111/111111/1111/11}
 Group   3 Type Cl  : 11s9p8d6f3g contracted to 11s9p8d6f3g pattern {11111111111/111111111/11111111/111111/111}
 Group   4 Type H   : 5s4p3d2f contracted to 5s4p3d2f pattern {11111/1111/111/11}

Atom   0Si   basis set group =>   1
Atom   1F    basis set group =>   2
Atom   2Cl   basis set group =>   3
Atom   3H    basis set group =>   4


           ************************************************************
           *        Program running with 16 parallel MPI-processes    *
           *              working on a common directory               *
           ************************************************************
------------------------------------------------------------------------------
                           ORCA GTO INTEGRAL CALCULATION
------------------------------------------------------------------------------
------------------------------------------------------------------------------
                   ___                                                        
                  /   \      - P O W E R E D   B Y -                         
                 /     \                                                     
                 |  |  |   _    _      __       _____    __    __             
                 |  |  |  | |  | |    /  \     |  _  \  |  |  /  |          
                  \  \/   | |  | |   /    \    | | | |  |  | /  /          
                 / \  \   | |__| |  /  /\  \   | |_| |  |  |/  /          
                |  |  |   |  __  | /  /__\  \  |    /   |      \           
                |  |  |   | |  | | |   __   |  |    \   |  |\   \          
                \     /   | |  | | |  |  |  |  | |\  \  |  | \   \       
                 \___/    |_|  |_| |__|  |__|  |_| \__\ |__|  \__/        
                                                                              
                      - O R C A' S   B I G   F R I E N D -                    
                                      &                                       
                       - I N T E G R A L  F E E D E R -                       
                                                                              
 v1 FN, 2020, v2 2021                                                         
------------------------------------------------------------------------------


Reading SHARK input file TZ_Si-Cl_79_A.SHARKINP.tmp ... ok
----------------------
SHARK INTEGRAL PACKAGE
----------------------

Number of atoms                             ...      4
Number of basis functions                   ...    225
Number of shells                            ...     91
Maximum angular momentum                    ...      3
Integral batch strategy                     ... SHARK/LIBINT Hybrid
RI-J (if used) integral strategy            ... SPLIT-RIJ (Revised 2003 algorithm where possible)
Printlevel                                  ...      1
Contraction scheme used                     ... PARTIAL GENERAL contraction
Coulomb Range Separation                    ... NOT USED
Exchange Range Separation                   ... NOT USED
Finite Nucleus Model                        ... NOT USED
Auxiliary Coulomb fitting basis             ... NOT available
Auxiliary J/K fitting basis                 ... NOT available
Auxiliary Correlation fitting basis         ... AVAILABLE
   # of basis functions in Aux-C            ...    446
   # of shells in Aux-C                     ...    116
   Maximum angular momentum in Aux-C        ...      4
Auxiliary 'external' fitting basis          ... NOT available
Integral threshold                          ...     2.500000e-11
Primitive cut-off                           ...     2.500000e-12
Primitive pair pre-selection threshold      ...     2.500000e-12

Calculating pre-screening integrals         ... done (  0.0 sec) Dimension = 91
Calculating pre-screening integrals (ORCA)  ... done (  0.1 sec) Dimension = 55
Organizing shell pair data                  ... done (  0.0 sec)
Shell pair information
Total number of shell pairs                 ...      4186
Shell pairs after pre-screening             ...      3473
Total number of primitive shell pairs       ...      4566
Primitive shell pairs kept                  ...      3697
          la=0 lb=0:    794 shell pairs
          la=1 lb=0:    999 shell pairs
          la=1 lb=1:    333 shell pairs
          la=2 lb=0:    484 shell pairs
          la=2 lb=1:    288 shell pairs
          la=2 lb=2:     66 shell pairs
          la=3 lb=0:    266 shell pairs
          la=3 lb=1:    156 shell pairs
          la=3 lb=2:     66 shell pairs
          la=3 lb=3:     21 shell pairs

Calculating one electron integrals          ... done (  0.0 sec)
Calculating RI/C V-Matrix + Cholesky decomp.... done (  0.1 sec)
Calculating Nuclear repulsion               ... done (  0.0 sec) ENN=    140.743536995386 Eh

SHARK setup successfully completed in   0.3 seconds

Maximum memory used throughout the entire GTOINT-calculation: 50.4 MB


           ************************************************************
           *        Program running with 16 parallel MPI-processes    *
           *              working on a common directory               *
           ************************************************************
-------------------------------------------------------------------------------
                                 ORCA SCF
-------------------------------------------------------------------------------

------------
SCF SETTINGS
------------
Hamiltonian:
 Ab initio Hamiltonian  Method          .... Hartree-Fock(GTOs)


General Settings:
 Integral files         IntName         .... TZ_Si-Cl_79_A
 Hartree-Fock type      HFTyp           .... UHF
 Total Charge           Charge          ....    0
 Multiplicity           Mult            ....    2
 Number of Electrons    NEL             ....   41
 Basis Dimension        Dim             ....  169
 Nuclear Repulsion      ENuc            ....    140.7435369954 Eh

Convergence Acceleration:
 DIIS                   CNVDIIS         .... on
   Start iteration      DIISMaxIt       ....    12
   Startup error        DIISStart       ....  0.200000
   # of expansion vecs  DIISMaxEq       ....     5
   Bias factor          DIISBfac        ....   1.050
   Max. coefficient     DIISMaxC        ....  10.000
 Trust-Rad. Augm. Hess. CNVTRAH         .... auto
   Auto Start mean grad. ratio tolernc. ....  1.125000
   Auto Start start iteration           ....     1
   Auto Start num. interpolation iter.  ....    10
   Max. Number of Micro iterations      ....    16
   Max. Number of Macro iterations      .... Maxiter - #DIIS iter
   Number of Davidson start vectors     ....     2
   Converg. threshold I  (grad. norm)   ....   1.000e-05
   Converg. threshold II (energy diff.) ....   1.000e-08
   Grad. Scal. Fac. for Micro threshold ....   0.100
   Minimum threshold for Micro iter.    ....   0.010
   NR start threshold (gradient norm)   ....   0.001
   Initial trust radius                 ....   0.400
   Minimum AH scaling param. (alpha)    ....   1.000
   Maximum AH scaling param. (alpha)    .... 1000.000
   Orbital update algorithm             .... Taylor
   White noise on init. David. guess    .... on
   Maximum white noise                  ....   0.010
   Quad. conv. algorithm                .... NR
 SOSCF                  CNVSOSCF        .... off
 Level Shifting         CNVShift        .... on
   Level shift para.    LevelShift      ....    0.2500
   Turn off err/grad.   ShiftErr        ....    0.0010
 Zerner damping         CNVZerner       .... off
 Static damping         CNVDamp         .... on
   Fraction old density DampFac         ....    0.7000
   Max. Damping (<1)    DampMax         ....    0.9800
   Min. Damping (>=0)   DampMin         ....    0.0000
   Turn off err/grad.   DampErr         ....    0.1000
 Fernandez-Rico         CNVRico         .... off

SCF Procedure:
 Maximum # iterations   MaxIter         ....   125
 SCF integral mode      SCFMode         .... Direct
   Integral package                     .... SHARK and LIBINT hybrid scheme
 Reset frequency        DirectResetFreq ....    20
 Integral Threshold     Thresh          ....  2.500e-11 Eh
 Primitive CutOff       TCut            ....  2.500e-12 Eh

Convergence Tolerance:
 Convergence Check Mode ConvCheckMode   .... Total+1el-Energy
 Convergence forced     ConvForced      .... 1
 Energy Change          TolE            ....  1.000e-08 Eh
 1-El. energy change                    ....  1.000e-05 Eh
 DIIS Error             TolErr          ....  5.000e-07


Diagonalization of the overlap matrix:
Smallest eigenvalue                        ... 1.723e-04
Time for diagonalization                   ...    0.003 sec
Threshold for overlap eigenvalues          ... 1.000e-08
Number of eigenvalues below threshold      ... 0
Time for construction of square roots      ...    0.015 sec
Total time needed                          ...    0.019 sec

---------------------
INITIAL GUESS: MOREAD
---------------------
Guess MOs are being read from file: DZ_Si-Cl_79_A.gbw
Input Geometry matches current geometry (good)
Atom 0: N(Shells)= 16 and 11 - projection required
Input basis set needs projection
NBasis(read)= 86
NBasis(calc)= 169
Basis set overlap was calculated
Using GuessMode=FMatrix for the initial guess
C*T matrix was formed
Effective Fockian was calculated
Effective Fockian was diagonalized
Initial density was built
C*T matrix was formed
Effective Fockian was calculated
Effective Fockian was diagonalized
Initial density was built
                      ------------------
                      INITIAL GUESS DONE (   0.0 sec)
                      ------------------
--------------
SCF ITERATIONS
--------------
ITER       Energy         Delta-E        Max-DP      RMS-DP      [F,P]     Damp
               ***  Starting incremental Fock matrix formation  ***
  0   -848.5804442103   0.000000000000 0.04821212  0.00072960  0.0426663 0.7000
  1   -848.5870736191  -0.006629408747 0.03607427  0.00054290  0.0311720 0.7000
                               ***Turning on DIIS***
  2   -848.5919778995  -0.004904280383 0.08754130  0.00133023  0.0228347 0.0000
  3   -848.5975927686  -0.005614869180 0.00594514  0.00015159  0.0025464 0.0000
  4   -848.6070067804  -0.009414011779 0.00203220  0.00004085  0.0008744 0.0000
  5   -848.6067061288   0.000300651663 0.00039887  0.00000729  0.0002943 0.0000
  6   -848.6043718303   0.002334298500 0.00011775  0.00000222  0.0001515 0.0000
  7   -848.6048041680  -0.000432337718 0.00004442  0.00000087  0.0000678 0.0000
  8   -848.6045957048   0.000208463148 0.00002627  0.00000048  0.0000206 0.0000
  9   -848.6045563598   0.000039345059 0.00001133  0.00000027  0.0000055 0.0000
 10   -848.6045812301  -0.000024870380 0.00000508  0.00000011  0.0000034 0.0000
 11   -848.6045714270   0.000009803121 0.00000205  0.00000004  0.0000014 0.0000
                            ***DIIS convergence achieved***

               *****************************************************
               *                     SUCCESS                       *
               *           SCF CONVERGED AFTER  12 CYCLES          *
               *****************************************************


------------------------------------------------------------------------------
                          SCF STABILITY ANALYSIS                              
------------------------------------------------------------------------------


                       ****Iteration    0****

   Memory handling for direct AO based CIS:
   Memory per vector needed      ...     1 MB
   Memory needed                 ...     7 MB
   Memory available              ...  3800 MB
   Number of vectors per batch   ...  2903
   Number of batches             ...     1
   Time for densities:     0.002
   Using LibInt in JK Direct
   Time for J+K (Direct):     2.893
   Time for Sigma-Completion:     0.044
   Lowest Energy          :     0.243306374354
   Maximum Energy change  :     0.280610319675 (vector 2)
   Maximum residual norm  :     0.011291894928

                       ****Iteration    1****
   Time for densities:     0.001
   Using LibInt in JK Direct
   Time for J+K (Direct):     1.643
   Time for Sigma-Completion:     0.012
   Lowest Energy          :     0.202137869379
   Maximum Energy change  :     0.049955636675 (vector 1)
   Maximum residual norm  :     0.007119976729

                       ****Iteration    2****
   Time for densities:     0.001
   Using LibInt in JK Direct
[...]
      g+3     :     0.000004
      g-3     :     0.000033
      g+4     :    -0.000120
      g-4     :    -0.000043
  1 F s       :    -0.007606  s :    -0.007606
      pz      :     0.006397  p :     0.008317
      px      :    -0.000065
      py      :     0.001986
      dz2     :     0.000060  d :    -0.002230
      dxz     :    -0.000352
      dyz     :    -0.001123
      dx2y2   :    -0.000336
      dxy     :    -0.000479
      f0      :     0.000048  f :     0.000171
      f+1     :     0.000001
      f-1     :     0.000003
      f+2     :     0.000018
      f-2     :     0.000070
      f+3     :     0.000016
      f-3     :     0.000016
      g0      :     0.000002  g :     0.000024
      g+1     :     0.000002
      g-1     :     0.000005
      g+2     :     0.000000
      g-2     :     0.000003
      g+3     :     0.000007
      g-3     :     0.000000
      g+4     :     0.000002
      g-4     :     0.000002
  2 Cls       :     0.002855  s :     0.002855
      pz      :     0.021381  p :     0.043556
      px      :     0.017259
      py      :     0.004915
      dz2     :     0.000231  d :     0.000092
      dxz     :     0.001301
      dyz     :     0.000639
      dx2y2   :    -0.000393
      dxy     :    -0.001686
      f0      :     0.000109  f :     0.000181
      f+1     :     0.000031
      f-1     :    -0.000009
      f+2     :     0.000052
      f-2     :     0.000174
      f+3     :     0.000078
      f-3     :    -0.000253
      g0      :     0.000007  g :     0.000130
      g+1     :     0.000046
      g-1     :     0.000011
      g+2     :     0.000008
      g-2     :     0.000006
      g+3     :    -0.000001
      g-3     :     0.000053
      g+4     :     0.000005
      g-4     :    -0.000004
  3 H s       :     0.102073  s :     0.102073
      pz      :    -0.010680  p :    -0.008778
      px      :     0.000486
      py      :     0.001415
      dz2     :    -0.000690  d :    -0.000737
      dxz     :     0.000013
      dyz     :    -0.000172
      dx2y2   :     0.000048
      dxy     :     0.000064
      f0      :     0.000070  f :     0.000146
      f+1     :     0.000005
      f-1     :     0.000092
      f+2     :    -0.000026
      f-2     :    -0.000008
      f+3     :     0.000004
      f-3     :     0.000009


                     *******************************
                     * LOEWDIN POPULATION ANALYSIS *
                     *******************************

-------------------------------------------
LOEWDIN ATOMIC CHARGES AND SPIN POPULATIONS
-------------------------------------------
   0 Si:   -0.554138    0.609230
   1 F :    0.248218    0.105433
   2 Cl:    0.724385    0.140647
   3 H :   -0.418465    0.144690

----------------------------------------------------
LOEWDIN REDUCED ORBITAL CHARGES AND SPIN POPULATIONS
----------------------------------------------------
CHARGE
  0 Sis       :     4.526899  s :     4.526899
      pz      :     2.567741  p :     7.493881
      px      :     2.453766
      py      :     2.472373
      dz2     :     0.159481  d :     1.225502
      dxz     :     0.182811
      dyz     :     0.232060
      dx2y2   :     0.312011
      dxy     :     0.339140
      f0      :     0.087577  f :     0.855961
      f+1     :     0.078858
      f-1     :     0.062287
      f+2     :     0.074255
      f-2     :     0.113187
      f+3     :     0.225951
      f-3     :     0.213846
      g0      :     0.023688  g :     0.451896
      g+1     :     0.053310
      g-1     :     0.027412
      g+2     :     0.024752
      g-2     :     0.043094
      g+3     :     0.037068
      g-3     :     0.038322
      g+4     :     0.114334
      g-4     :     0.089915
  1 F s       :     3.472385  s :     3.472385
      pz      :     1.679836  p :     5.097964
      px      :     1.698398
      py      :     1.719729
      dz2     :     0.014849  d :     0.134330
      dxz     :     0.014094
      dyz     :     0.032064
      dx2y2   :     0.039166
      dxy     :     0.034158
      f0      :     0.003585  f :     0.040840
      f+1     :     0.004033
      f-1     :     0.004842
      f+2     :     0.001562
      f-2     :     0.005796
      f+3     :     0.013715
      f-3     :     0.007308
      g0      :     0.000557  g :     0.006263
      g+1     :     0.000258
      g-1     :     0.000440
      g+2     :     0.000113
      g-2     :     0.001224
      g+3     :     0.000516
      g-3     :     0.000144
      g+4     :     0.002215
      g-4     :     0.000797
  2 Cls       :     5.390617  s :     5.390617
      pz      :     3.559992  p :    10.616052
      px      :     3.510398
      py      :     3.545663
      dz2     :     0.022929  d :     0.184781
      dxz     :     0.048288
      dyz     :     0.014989
      dx2y2   :     0.038149
      dxy     :     0.060426
      f0      :     0.008325  f :     0.065836
      f+1     :     0.008895
      f-1     :     0.001698
      f+2     :     0.005852
      f-2     :     0.011026
      f+3     :     0.010994
      f-3     :     0.019046
      g0      :     0.001367  g :     0.018329
      g+1     :     0.002101
      g-1     :     0.000588
      g+2     :     0.001885
      g-2     :     0.001261
      g+3     :     0.000439
      g-3     :     0.002433
      g+4     :     0.002830
      g-4     :     0.005426
  3 H s       :     0.925937  s :     0.925937
      pz      :     0.129757  p :     0.246415
      px      :     0.048970
      py      :     0.067688
      dz2     :     0.052087  d :     0.162329
      dxz     :     0.018302
      dyz     :     0.039190
      dx2y2   :     0.020593
      dxy     :     0.032158
      f0      :     0.014040  f :     0.083784
      f+1     :     0.003507
      f-1     :     0.024200
      f+2     :     0.017285
      f-2     :     0.012763
      f+3     :     0.005718
      f-3     :     0.006272

SPIN
  0 Sis       :     0.120051  s :     0.120051
      pz      :     0.330146  p :     0.364819
      px      :     0.004537
      py      :     0.030136
      dz2     :     0.031403  d :     0.098676
      dxz     :     0.002323
      dyz     :     0.064533
      dx2y2   :     0.000954
      dxy     :    -0.000537
      f0      :     0.005537  f :     0.021728
      f+1     :    -0.000072
      f-1     :     0.004314
      f+2     :     0.004526
      f-2     :     0.000373
      f+3     :     0.002640
      f-3     :     0.004409
      g0      :     0.000672  g :     0.003957
      g+1     :    -0.000178
      g-1     :     0.000343
      g+2     :     0.001348
      g-2     :     0.000623
      g+3     :     0.000390
      g-3     :     0.000442
      g+4     :     0.000225
      g-4     :     0.000093
  1 F s       :     0.009772  s :     0.009772
      pz      :     0.037053  p :     0.056813
      px      :     0.002842
      py      :     0.016918
      dz2     :     0.000042  d :     0.033491
      dxz     :     0.006247
      dyz     :     0.023091
      dx2y2   :     0.002600
      dxy     :     0.001511
      f0      :     0.001199  f :     0.005079
      f+1     :     0.000365
      f-1     :     0.000309
      f+2     :     0.000773
      f-2     :     0.002157
      f+3     :     0.000112
      f-3     :     0.000165
      g0      :     0.000044  g :     0.000278
      g+1     :     0.000012
      g-1     :     0.000052
      g+2     :    -0.000001
      g-2     :     0.000069
      g+3     :     0.000095
      g-3     :     0.000000
      g+4     :     0.000004
      g-4     :     0.000003
  2 Cls       :     0.008219  s :     0.008219
      pz      :     0.031028  p :     0.059685
      px      :     0.021896
      py      :     0.006760
      dz2     :     0.000361  d :     0.052832
      dxz     :     0.032887
      dyz     :     0.010962
      dx2y2   :     0.002084
      dxy     :     0.006537
      f0      :     0.005000  f :     0.016900
      f+1     :    -0.000054
      f-1     :    -0.000095
      f+2     :     0.002793
      f-2     :     0.007623
      f+3     :    -0.000018
      f-3     :     0.001651
      g0      :     0.000099  g :     0.003012
      g+1     :     0.000896
      g-1     :     0.000317
      g+2     :     0.000097
      g-2     :    -0.000001
      g+3     :     0.000006
      g-3     :     0.001432
      g+4     :     0.000079
      g-4     :     0.000087
  3 H s       :     0.049620  s :     0.049620
      pz      :     0.050695  p :     0.052629
      px      :     0.000615
      py      :     0.001319
      dz2     :     0.032958  d :     0.034131
      dxz     :    -0.000149
      dyz     :     0.000672
      dx2y2   :     0.000182
      dxy     :     0.000468
      f0      :     0.006768  f :     0.008310
      f+1     :     0.000039
      f-1     :     0.001052
      f+2     :     0.000256
      f-2     :     0.000110
      f+3     :     0.000074
      f-3     :     0.000010


                      *****************************
                      * MAYER POPULATION ANALYSIS *
                      *****************************

  NA   - Mulliken gross atomic population
  ZA   - Total nuclear charge
  QA   - Mulliken gross atomic charge
  VA   - Mayer's total valence
  BVA  - Mayer's bonded valence
  FA   - Mayer's free valence

  ATOM       NA         ZA         QA         VA         BVA        FA
  0 Si    12.6294    14.0000     1.3706     2.9810     2.0909     0.8902
  1 F      9.6822     9.0000    -0.6822     0.4091     0.4074     0.0016
  2 Cl    17.4940    17.0000    -0.4940     0.7700     0.7603     0.0097
  3 H      1.1944     1.0000    -0.1944     0.9693     0.9561     0.0132

  Mayer bond orders larger than 0.100000
B(  0-Si,  1-F ) :   0.4077 B(  0-Si,  2-Cl) :   0.7481 B(  0-Si,  3-H ) :   0.9350 


-------
TIMINGS
-------

Total SCF time: 0 days 0 hours 3 min 46 sec 

Total time                  ....     226.018 sec
Sum of individual times     ....     223.669 sec  ( 99.0%)

Fock matrix formation       ....      45.587 sec  ( 20.2%)
Diagonalization             ....       0.495 sec  (  0.2%)
Density matrix formation    ....       0.017 sec  (  0.0%)
Population analysis         ....       0.083 sec  (  0.0%)
Initial guess               ....       0.047 sec  (  0.0%)
Orbital Transformation      ....       0.000 sec  (  0.0%)
Orbital Orthonormalization  ....       0.000 sec  (  0.0%)
DIIS solution               ....       0.231 sec  (  0.1%)
SCF Stability Analysis      ....     177.208 sec  ( 78.4%)

Maximum memory used throughout the entire SCF-calculation: 240.2 MB


           ************************************************************
           *        Program running with 16 parallel MPI-processes    *
           *              working on a common directory               *
           ************************************************************

------------------------------------------------------------------------------
                                ORCA  MP2 
------------------------------------------------------------------------------

Freezing NCore=22 chemical core electrons

-------------
RI-MP2 ENERGY
-------------
Dimension of the basis                    ...  294
Memory devoted to MP2                     ... 3800 MB   
Data format for buffers                   ... DOUBLE
Compression type for matrix containers    ... UNCOMPRESSED
Overall scaling of the MP2 energy         ...   1.000e+00
Calculating two index integrals           ... done (    0.005 sec)
Cholesky decomposition of V**-1           ... done (    0.040 sec)

-----------------
RI-TRANSFORMATION (AUX index driven)
-----------------

Dimension of the orbital-basis         ... 294
Dimension of the aux-basis             ... 636
Transformation of internal/external MOs...   11-  20 to   21- 293
Number Format for Storage              ... Double (8 Byte)
Integral mode                          ... Direct

First Phase: integral generation and transformation of MO indices
  Aux angular momentum 0               ... done (    0.007 sec)
  Aux angular momentum 1               ... done (    0.011 sec)
  Aux angular momentum 2               ... done (    0.012 sec)
  Aux angular momentum 3               ... done (    0.018 sec)
  Aux angular momentum 4               ... done (    0.013 sec)
  Aux angular momentum 5               ... done (    0.028 sec)
Closing buffer VIA ( 0.01 GB; CompressionRatio= 1.00)
  Phase 1 completed in     0.348 sec
Second Phase: sorting and transformation of aux index

IA-Transformation
Memory available                       ... 3753 MB 
Max. # MO pairs treated in a batch     ... 1    
# of internal orbitals                 ... 10
# batches for internal orbitals        ... 1
Closing buffer IAV ( 0.01 GB; CompressionRatio= 1.00)
(ia|v) transformation done in     0.093 sec

  Phase 2 completed in     0.125 sec
RI-Integral transformation completed in     0.483 sec

-----------------
RI-TRANSFORMATION (AUX index driven)
-----------------

Dimension of the orbital-basis         ... 294
Dimension of the aux-basis             ... 636
Transformation of internal/external MOs...   11-  19 to   20- 293
Number Format for Storage              ... Double (8 Byte)
Integral mode                          ... Direct

First Phase: integral generation and transformation of MO indices
  Aux angular momentum 0               ... done (    0.006 sec)
  Aux angular momentum 1               ... done (    0.011 sec)
  Aux angular momentum 2               ... done (    0.012 sec)
  Aux angular momentum 3               ... done (    0.018 sec)
  Aux angular momentum 4               ... done (    0.016 sec)
  Aux angular momentum 5               ... done (    0.023 sec)
Closing buffer VIA ( 0.01 GB; CompressionRatio= 1.00)
  Phase 1 completed in     0.265 sec
Second Phase: sorting and transformation of aux index

IA-Transformation
Memory available                       ... 3753 MB 
Max. # MO pairs treated in a batch     ... 1    
# of internal orbitals                 ... 9
# batches for internal orbitals        ... 1
Closing buffer IAV ( 0.01 GB; CompressionRatio= 1.00)
(ia|v) transformation done in     0.049 sec

  Phase 2 completed in     0.085 sec
RI-Integral transformation completed in     0.364 sec
Opening buffers                              ... done

Starting loop over batches of integrals:

Operator 0  - window                       ... ( 11- 20)x( 21-293)
Operator 0  - Memory available             ...  3800 MB
Operator 0  - Memory needed per MO         ...   1.3 MB
Operator 0  - Number of orbitals per batch ... 1
Operator 0  - Number of batches            ... 1

OPERATOR  0   PASS   0:  MOs    11 ...   11 +   12 ...   12 +   13 ...   13 +   14 ...   14
                            +   15 ...   15 +   16 ...   16 +   17 ...   17 +   18 ...   18
                            +   19 ...   19 +   20 ...   20
  Reading integrals       ... ok

Operator 1  - window                       ... ( 11- 19)x( 20-293)
Operator 1  - Memory available             ...  3800 MB
Operator 1  - Memory needed per MO         ...   1.3 MB
Operator 1  - Number of orbitals per batch ... 1
Operator 1  - Number of batches            ... 1

OPERATOR  1   PASS   0:  MOs    11 ...   11 +   12 ...   12 +   13 ...   13 +   14 ...   14
                            +   15 ...   15 +   16 ...   16 +   17 ...   17 +   18 ...   18
                            +   19 ...   19
  Reading integrals       ... ok
Time spent in pair loops =     0.100 sec
Deleting buffer (Ka|jb)[aa] ...done
Deleting buffer (Ka|jb)[ba] ...done
Deleting buffer (Ka|jb)[ab] ...done
Deleting buffer (Ka|jb)[bb] ...done

Correlation energy components}
 E2 and T2 for alpha/alpha pairs :     -0.073743992 Eh      0.000000000
 E2 and T2 for beta/beta   pairs :     -0.068925886 Eh      0.000000000
 E2 and T2 for alpha/beta  pairs :     -0.450697248 Eh      0.000000000


-----------------------------------------------
 RI-MP2 CORRELATION ENERGY:     -0.593367126 Eh
-----------------------------------------------


-------
TIMINGS
-------

Total time                :    1.054 sec
Integral trafo            :    0.861 sec ( 81.7%)
I/O of integrals          :    0.002 sec (  0.2%)
K(i,j) Operators          :    0.043 sec (  4.1%)
T(i,j) pair energies      :    0.001 sec (  0.1%)
V-calculation             :    0.005 sec (  0.4%)
V**(-1/2)                 :    0.040 sec (  3.8%)
Gamma(ia|P)               :    0.000 sec (  0.0%)
Gamma-Trafo               :    0.000 sec (  0.0%)
D(virtual)                :    0.000 sec (  0.0%)
D(internal)               :    0.000 sec (  0.0%)
W(virtual)                :    0.000 sec (  0.0%)
W(internal)               :    0.000 sec (  0.0%)
L(virtual)                :    0.000 sec (  0.0%)
L(internal)               :    0.000 sec (  0.0%)
G(D)                      :    0.000 sec (  0.0%)
G(Z)                      :    0.000 sec (  0.0%)
Z-Vector Solution         :    0.000 sec (  0.0%)
3-Index Derivative        :    0.000 sec (  0.0%)
2-Index Derivative        :    0.000 sec (  0.0%)
Separable Gradient        :    0.000 sec (  0.0%)


---------------------------------------
MP2 TOTAL ENERGY:     -849.215170890 Eh
---------------------------------------

Maximum memory used throughout the entire MP2-calculation: 97.2 MB

-------------------------   --------------------
FINAL SINGLE POINT ENERGY      -849.215170890228
-------------------------   --------------------


                            ***************************************
                            *     ORCA property calculations      *
                            ***************************************


  WARNING: The energy has been calculated at the MP2 level but the densities
           used in the property calculations are still SCF densities
           MP2 response densities have not been calculated 
           use %mp2 Density relaxed end
           or  %mp2 Density unrelaxed end

                                    ---------------------
                                    Active property flags
                                    ---------------------
   (+) Dipole Moment


------------------------------------------------------------------------------
                       ORCA ELECTRIC PROPERTIES CALCULATION
------------------------------------------------------------------------------

Dipole Moment Calculation                       ... on
Quadrupole Moment Calculation                   ... off
Polarizability Calculation                      ... off
GBWName                                         ... QZ_Si-Cl_79_A.gbw
Electron density                                ... QZ_Si-Cl_79_A.scfp
The origin for moment calculation is the CENTER OF MASS  = ( 0.025489, -0.053551 -0.020089)

-------------
DIPOLE MOMENT
-------------
                                X             Y             Z
Electronic contribution:      0.94532      -1.62606      -0.90210
Nuclear contribution   :     -1.04506       2.19557       0.82365
                        -----------------------------------------
Total Dipole Moment    :     -0.09974       0.56951      -0.07844
                        -----------------------------------------
Magnitude (a.u.)       :      0.58348
Magnitude (Debye)      :      1.48308



--------------------
Rotational spectrum 
--------------------
 
Rotational constants in cm-1:     0.776286     0.137846     0.119427 
Rotational constants in MHz : 23272.467542  4132.521271  3580.322332 

 Dipole components along the rotational axes: 
x,y,z [a.u.] :    -0.089478     0.575750    -0.030850 
x,y,z [Debye]:    -0.227436     1.463439    -0.078415 

 

Timings for individual modules:

Sum of individual times         ...      230.839 sec (=   3.847 min)
GTO integral calculation        ...        1.505 sec (=   0.025 min)   0.7 %
SCF iterations                  ...      227.157 sec (=   3.786 min)  98.4 %
MP2 module                      ...        2.178 sec (=   0.036 min)   0.9 %



                             ****ORCA TERMINATED NORMALLY****
TOTAL RUN TIME: 0 days 0 hours 5 minutes 30 seconds 176 msec
