
                                 *****************
                                 * O   R   C   A *
                                 *****************

                                            #,                                       
                                            ###                                      
                                            ####                                     
                                            #####                                    
                                            ######                                   
                                           ########,                                 
                                     ,,################,,,,,                         
                               ,,#################################,,                 
                          ,,##########################################,,             
                       ,#########################################, ''#####,          
                    ,#############################################,,   '####,        
                  ,##################################################,,,,####,       
                ,###########''''           ''''###############################       
              ,#####''   ,,,,##########,,,,          '''####'''          '####       
            ,##' ,,,,###########################,,,                        '##       
           ' ,,###''''                  '''############,,,                           
         ,,##''                                '''############,,,,        ,,,,,,###''
      ,#''                                            '''#######################'''  
     '                                                          ''''####''''         
             ,#######,   #######,   ,#######,      ##                                
            ,#'     '#,  ##    ##  ,#'     '#,    #''#        ######   ,####,        
            ##       ##  ##   ,#'  ##            #'  '#       #        #'  '#        
            ##       ##  #######   ##           ,######,      #####,   #    #        
            '#,     ,#'  ##    ##  '#,     ,#' ,#      #,         ##   #,  ,#        
             '#######'   ##     ##  '#######'  #'      '#     #####' # '####'        



                  #######################################################
                  #                        -***-                        #
                  #          Department of theory and spectroscopy      #
                  #    Directorship and core code : Frank Neese         #
                  #        Max Planck Institute fuer Kohlenforschung    #
                  #                Kaiser Wilhelm Platz 1               #
                  #                 D-45470 Muelheim/Ruhr               #
                  #                      Germany                        #
                  #                                                     #
                  #                  All rights reserved                #
                  #                        -***-                        #
                  #######################################################


                         Program Version 5.0.4 -  RELEASE  -


 With contributions from (in alphabetic order):
   Daniel Aravena         : Magnetic Suceptibility
   Michael Atanasov       : Ab Initio Ligand Field Theory (pilot matlab implementation)
   Alexander A. Auer      : GIAO ZORA, VPT2 properties, NMR spectrum
   Ute Becker             : Parallelization
   Giovanni Bistoni       : ED, misc. LED, open-shell LED, HFLD
   Martin Brehm           : Molecular dynamics
   Dmytro Bykov           : SCF Hessian
   Vijay G. Chilkuri      : MRCI spin determinant printing, contributions to CSF-ICE
   Dipayan Datta          : RHF DLPNO-CCSD density
   Achintya Kumar Dutta   : EOM-CC, STEOM-CC
   Dmitry Ganyushin       : Spin-Orbit,Spin-Spin,Magnetic field MRCI
   Miquel Garcia          : C-PCM and meta-GGA Hessian, CC/C-PCM, Gaussian charge scheme
   Yang Guo               : DLPNO-NEVPT2, F12-NEVPT2, CIM, IAO-localization
   Andreas Hansen         : Spin unrestricted coupled pair/coupled cluster methods
   Benjamin Helmich-Paris : MC-RPA, TRAH-SCF, COSX integrals
   Lee Huntington         : MR-EOM, pCC
   Robert Izsak           : Overlap fitted RIJCOSX, COSX-SCS-MP3, EOM
   Marcus Kettner         : VPT2
   Christian Kollmar      : KDIIS, OOCD, Brueckner-CCSD(T), CCSD density, CASPT2, CASPT2-K
   Simone Kossmann        : Meta GGA functionals, TD-DFT gradient, OOMP2, MP2 Hessian
   Martin Krupicka        : Initial AUTO-CI
   Lucas Lang             : DCDCAS
   Marvin Lechner         : AUTO-CI (C++ implementation), FIC-MRCC
   Dagmar Lenk            : GEPOL surface, SMD
   Dimitrios Liakos       : Extrapolation schemes; Compound Job, initial MDCI parallelization
   Dimitrios Manganas     : Further ROCIS development; embedding schemes
   Dimitrios Pantazis     : SARC Basis sets
   Anastasios Papadopoulos: AUTO-CI, single reference methods and gradients
   Taras Petrenko         : DFT Hessian,TD-DFT gradient, ASA, ECA, R-Raman, ABS, FL, XAS/XES, NRVS
   Peter Pinski           : DLPNO-MP2, DLPNO-MP2 Gradient
   Christoph Reimann      : Effective Core Potentials
   Marius Retegan         : Local ZFS, SOC
   Christoph Riplinger    : Optimizer, TS searches, QM/MM, DLPNO-CCSD(T), (RO)-DLPNO pert. Triples
   Tobias Risthaus        : Range-separated hybrids, TD-DFT gradient, RPA, STAB
   Michael Roemelt        : Original ROCIS implementation
   Masaaki Saitow         : Open-shell DLPNO-CCSD energy and density
   Barbara Sandhoefer     : DKH picture change effects
   Avijit Sen             : IP-ROCIS
   Kantharuban Sivalingam : CASSCF convergence, NEVPT2, FIC-MRCI
   Bernardo de Souza      : ESD, SOC TD-DFT
   Georgi Stoychev        : AutoAux, RI-MP2 NMR, DLPNO-MP2 response
   Willem Van den Heuvel  : Paramagnetic NMR
   Boris Wezisla          : Elementary symmetry handling
   Frank Wennmohs         : Technical directorship


 We gratefully acknowledge several colleagues who have allowed us to
 interface, adapt or use parts of their codes:
   Stefan Grimme, W. Hujo, H. Kruse, P. Pracht,  : VdW corrections, initial TS optimization,
                  C. Bannwarth, S. Ehlert          DFT functionals, gCP, sTDA/sTD-DF
   Ed Valeev, F. Pavosevic, A. Kumar             : LibInt (2-el integral package), F12 methods
   Garnet Chan, S. Sharma, J. Yang, R. Olivares  : DMRG
   Ulf Ekstrom                                   : XCFun DFT Library
   Mihaly Kallay                                 : mrcc  (arbitrary order and MRCC methods)
   Jiri Pittner, Ondrej Demel                    : Mk-CCSD
   Frank Weinhold                                : gennbo (NPA and NBO analysis)
   Christopher J. Cramer and Donald G. Truhlar   : smd solvation model
   Lars Goerigk                                  : TD-DFT with DH, B97 family of functionals
   V. Asgeirsson, H. Jonsson                     : NEB implementation
   FAccTs GmbH                                   : IRC, NEB, NEB-TS, DLPNO-Multilevel, CI-OPT
                                                   MM, QMMM, 2- and 3-layer-ONIOM, Crystal-QMMM,
                                                   LR-CPCM, SF, NACMEs, symmetry and pop. for TD-DFT,
                                                   nearIR, NL-DFT gradient (VV10), updates on ESD,
                                                   ML-optimized integration grids
   S Lehtola, MJT Oliveira, MAL Marques          : LibXC Library
   Liviu Ungur et al                             : ANISO software


 Your calculation uses the libint2 library for the computation of 2-el integrals
 For citations please refer to: http://libint.valeyev.net

 Your ORCA version has been built with support for libXC version: 5.1.0
 For citations please refer to: https://tddft.org/programs/libxc/

 This ORCA versions uses:
   CBLAS   interface :  Fast vector & matrix operations
   LAPACKE interface :  Fast linear algebra routines
   SCALAPACK package :  Parallel linear algebra routines
   Shared memory     :  Shared parallel matrices
   BLAS/LAPACK       :  OpenBLAS 0.3.15  USE64BITINT DYNAMIC_ARCH NO_AFFINITY Zen SINGLE_THREADED
        Core in use  :  Zen
   Copyright (c) 2011-2014, The OpenBLAS Project


================================================================================

----- Orbital basis set information -----
Your calculation utilizes the basis: aug-cc-pVDZ 
    H, B-Ne : Obtained from the ccRepo (grant-hill.group.shef.ac.uk/ccrepo) Feb. 2017
              R. A. Kendall, T. H. Dunning, Jr., R. J. Harrison, J. Chem. Phys. 96, 6796 (1992)
         He : Obtained from the ccRepo (grant-hill.group.shef.ac.uk/ccrepo) Feb. 2017
              D. E. Woon, T. H. Dunning, Jr., J. Chem. Phys. 100, 2975 (1994)
  Li-Be, Na : Obtained from the ccRepo (grant-hill.group.shef.ac.uk/ccrepo) Feb. 2017
              B. P. Prascher, D. E. Woon, K. A. Peterson, T. H. Dunning, Jr., A. K. Wilson, Theor. Chem. Acc. 128, 69 (2011)
         Mg : Obtained from the Peterson Research Group Website (tyr0.chem.wsu.edu/~kipeters) Feb. 2017
              B. P. Prascher, D. E. Woon, K. A. Peterson, T. H. Dunning, Jr., A. K. Wilson, Theor. Chem. Acc. 128, 69 (2011)
      Al-Ar : Obtained from the ccRepo (grant-hill.group.shef.ac.uk/ccrepo) Feb. 2017
              D. E. Woon, T. H. Dunning, Jr., J. Chem. Phys. 98, 1358 (1993)
      Sc-Zn : Obtained from the ccRepo (grant-hill.group.shef.ac.uk/ccrepo) Feb. 2017
              N. B. Balabanov, K. A. Peterson, J. Chem. Phys. 123, 064107 (2005)
              N. B. Balabanov, K. A. Peterson, J. Chem. Phys. 125, 074110 (2006)
      Ga-Kr : Obtained from the ccRepo (grant-hill.group.shef.ac.uk/ccrepo) Feb. 2017
              A. K. Wilson, D. E. Woon, K. A. Peterson, T. H. Dunning, Jr., J. Chem. Phys. 110, 7667 (1999)

----- AuxC basis set information -----
Your calculation utilizes the auxiliary basis: aug-cc-pVDZ/C 
  H-He, B, Ne, Al-Ar, Ga-Ge, Se-Br : Obtained from the EMSL Basis Set Exchange (bse.pnl.gov) Feb. 2017
                                     F. Weigend, A. Kohn, C. Hattig, J. Chem. Phys. 116, 3175 (2002)
                            Be, Mg : Obtained from the TURBOMOLE 7.0 basis set library
                                     C. Haettig, Phys. Chem. Chem. Phys. 7, 59 (2005)
                               C-F : Obtained from the EMSL Basis Set Exchange (bse.pnl.gov) Feb. 2017
                                     C. Haettig, Phys. Chem. Chem. Phys. 7, 59 (2005)
                                     F. Weigend, A. Kohn, C. Hattig, J. Chem. Phys. 116, 3175 (2002)
                                As : Obtained from the EMSL Basis Set Exchange (bse.pnl.gov) Feb. 2017
                                     C. Haettig, G. Schmitz, J. Kossmann, Phys. Chem. Chem. Phys. 14, 6549 (2012)
                                Kr : Obtained from the TURBOMOLE 7.0 basis set library
                                     F. Weigend, A. Kohn, C. Hattig, J. Chem. Phys. 116, 3175 (2002)
                                     S function revised in Sep. 2009

================================================================================
                                        WARNINGS
                       Please study these warnings very carefully!
================================================================================


WARNING: No MP2 level density has been requested!
         To caclulate MP2 level properties use
         %mp2 Density relaxed end
         or
         %mp2 Density unrelaxed end

WARNING: Post HF methods need fully converged wavefunctions
  ===> : Setting SCFConvForced true
         You can overwrite this default with %scf ConvForced false 


INFO   : the flag for use of the SHARK integral package has been found!

================================================================================

----- Orbital basis set information -----
Your calculation utilizes the basis: aug-cc-pVTZ 
    H, B-Ne : Obtained from the ccRepo (grant-hill.group.shef.ac.uk/ccrepo) Feb. 2017
              R. A. Kendall, T. H. Dunning, Jr., R. J. Harrison, J. Chem. Phys. 96, 6796 (1992)
         He : Obtained from the ccRepo (grant-hill.group.shef.ac.uk/ccrepo) Feb. 2017
              D. E. Woon, T. H. Dunning, Jr., J. Chem. Phys. 100, 2975 (1994)
  Li-Be, Na : Obtained from the ccRepo (grant-hill.group.shef.ac.uk/ccrepo) Feb. 2017
              B. P. Prascher, D. E. Woon, K. A. Peterson, T. H. Dunning, Jr., A. K. Wilson, Theor. Chem. Acc. 128, 69 (2011)
         Mg : Obtained from the Peterson Research Group Website (tyr0.chem.wsu.edu/~kipeters) Feb. 2017
              B. P. Prascher, D. E. Woon, K. A. Peterson, T. H. Dunning, Jr., A. K. Wilson, Theor. Chem. Acc. 128, 69 (2011)
      Al-Ar : Obtained from the ccRepo (grant-hill.group.shef.ac.uk/ccrepo) Feb. 2017
              D. E. Woon, T. H. Dunning, Jr., J. Chem. Phys. 98, 1358 (1993)
      Sc-Zn : Obtained from the ccRepo (grant-hill.group.shef.ac.uk/ccrepo) Feb. 2017
              N. B. Balabanov, K. A. Peterson, J. Chem. Phys. 123, 064107 (2005)
              N. B. Balabanov, K. A. Peterson, J. Chem. Phys. 125, 074110 (2006)
      Ga-Kr : Obtained from the ccRepo (grant-hill.group.shef.ac.uk/ccrepo) Feb. 2017
              A. K. Wilson, D. E. Woon, K. A. Peterson, T. H. Dunning, Jr., J. Chem. Phys. 110, 7667 (1999)
     Ag, Au : Obtained from the Peterson Research Group Website (tyr0.chem.wsu.edu/~kipeters) Feb. 2017
              K. A. Peterson, C. Puzzarini, Theor. Chem. Acc. 114, 283 (2005)

----- AuxC basis set information -----
Your calculation utilizes the auxiliary basis: aug-cc-pVTZ/C 
  H-He, B-F, Al-Ar, Ga-Kr : Obtained from the EMSL Basis Set Exchange (bse.pnl.gov) Feb. 2017
                            F. Weigend, A. Kohn, C. Hattig, J. Chem. Phys. 116, 3175 (2002)
                   Be, Mg : Obtained from the TURBOMOLE 7.0 basis set library
                            C. Haettig, Phys. Chem. Chem. Phys. 7, 59 (2005)
                       Ne : Obtained from the EMSL Basis Set Exchange (bse.pnl.gov) Feb. 2017
                            C. Haettig, Phys. Chem. Chem. Phys. 7, 59 (2005)
                            F. Weigend, A. Kohn, C. Hattig, J. Chem. Phys. 116, 3175 (2002)
                    Sc-Zn : Obtained from the EMSL Basis Set Exchange (bse.pnl.gov) Feb. 2017
                            J. G. Hill, J. A. Platts, J. Chem. Phys. 128, 044104 (2008)

================================================================================
                                        WARNINGS
                       Please study these warnings very carefully!
================================================================================


WARNING: No MP2 level density has been requested!
         To caclulate MP2 level properties use
         %mp2 Density relaxed end
         or
         %mp2 Density unrelaxed end

INFO   : the flag for use of the SHARK integral package has been found!

================================================================================

----- Orbital basis set information -----
Your calculation utilizes the basis: aug-cc-pVQZ 
    H, B-Ne : Obtained from the ccRepo (grant-hill.group.shef.ac.uk/ccrepo) Feb. 2017
              R. A. Kendall, T. H. Dunning, Jr., R. J. Harrison, J. Chem. Phys. 96, 6796 (1992)
         He : Obtained from the ccRepo (grant-hill.group.shef.ac.uk/ccrepo) Feb. 2017
              D. E. Woon, T. H. Dunning, Jr., J. Chem. Phys. 100, 2975 (1994)
  Li-Be, Na : Obtained from the ccRepo (grant-hill.group.shef.ac.uk/ccrepo) Feb. 2017
              B. P. Prascher, D. E. Woon, K. A. Peterson, T. H. Dunning, Jr., A. K. Wilson, Theor. Chem. Acc. 128, 69 (2011)
         Mg : Obtained from the Peterson Research Group Website (tyr0.chem.wsu.edu/~kipeters) Feb. 2017
              B. P. Prascher, D. E. Woon, K. A. Peterson, T. H. Dunning, Jr., A. K. Wilson, Theor. Chem. Acc. 128, 69 (2011)
      Al-Ar : Obtained from the ccRepo (grant-hill.group.shef.ac.uk/ccrepo) Feb. 2017
              D. E. Woon, T. H. Dunning, Jr., J. Chem. Phys. 98, 1358 (1993)
      Sc-Zn : Obtained from the ccRepo (grant-hill.group.shef.ac.uk/ccrepo) Feb. 2017
              N. B. Balabanov, K. A. Peterson, J. Chem. Phys. 123, 064107 (2005)
              N. B. Balabanov, K. A. Peterson, J. Chem. Phys. 125, 074110 (2006)
      Ga-Kr : Obtained from the ccRepo (grant-hill.group.shef.ac.uk/ccrepo) Feb. 2017
              A. K. Wilson, D. E. Woon, K. A. Peterson, T. H. Dunning, Jr., J. Chem. Phys. 110, 7667 (1999)

----- AuxC basis set information -----
Your calculation utilizes the auxiliary basis: aug-cc-pVQZ/C 
  H-He, B-F, Al-Ar, Ga-Kr : Obtained from the EMSL Basis Set Exchange (bse.pnl.gov) Feb. 2017
                            F. Weigend, A. Kohn, C. Hattig, J. Chem. Phys. 116, 3175 (2002)
                   Be, Mg : Obtained from the TURBOMOLE 7.0 basis set library
                            C. Haettig, Phys. Chem. Chem. Phys. 7, 59 (2005)
                       Ne : Obtained from the EMSL Basis Set Exchange (bse.pnl.gov) Feb. 2017
                            C. Haettig, Phys. Chem. Chem. Phys. 7, 59 (2005)
                            F. Weigend, A. Kohn, C. Hattig, J. Chem. Phys. 116, 3175 (2002)
                    Sc-Zn : Obtained from the EMSL Basis Set Exchange (bse.pnl.gov) Feb. 2017
                            D. H. Bross, J. G. Hill, H. J. Werner, K. A. Peterson, J. Chem. Phys. 139, 094302 (2013)

================================================================================
                                        WARNINGS
                       Please study these warnings very carefully!
================================================================================


WARNING: No MP2 level density has been requested!
         To caclulate MP2 level properties use
         %mp2 Density relaxed end
         or
         %mp2 Density unrelaxed end

INFO   : the flag for use of the SHARK integral package has been found!

================================================================================
                                       INPUT FILE
================================================================================
NAME = B-B_70_AB.inp
|  1> ! ri-mp2 aug-cc-pvdz aug-cc-pvdz/c tightscf
|  2> %pal nprocs 16 end
|  3> %maxcore 3800
|  4> %base "DZ_B-B_70_AB"
|  5> %scf
|  6> STABPerform true 
|  7> STABRestartUHFifUnstable true
|  8> end
|  9> 
| 10> *xyz 0 1
| 11> B         0.551606   -1.172763   -0.551778
| 12> B        -0.597853   -1.153119    0.543844
| 13> B        -1.783790    0.009110    0.137115
| 14> O        -1.490557    1.328923    0.025246
| 15> C        -3.267691   -0.435974   -0.118934
| 16> H        -3.761562   -0.596998    0.844776
| 17> H        -3.341154   -1.383154   -0.657476
| 18> H        -3.831810    0.324288   -0.661498
| 19> B         1.757759   -0.051571   -0.158624
| 20> O         1.385017    1.268826   -0.076050
| 21> C         3.237532   -0.474829    0.145663
| 22> H         3.296643   -1.414730    0.696983
| 23> H         3.805994    0.279625    0.697027
| 24> H         3.753648   -0.650133   -0.803732
| 25> H        -0.548536    1.535082    0.111158
| 26> H         2.099895    1.870855    0.157968
| 27> H        -0.671564   -1.693239    1.604251
| 28> H         0.585115   -1.747060   -1.596177
| 29> *
| 30> 
| 31> $new_job
| 32> ! ri-mp2 aug-cc-pvtz aug-cc-pvtz/c tightscf
| 33> %pal nprocs 16 end
| 34> %maxcore 3800
| 35> %base "TZ_B-B_70_AB"
| 36> 
| 37> *xyz 0 1
| 38> B         0.551606   -1.172763   -0.551778
| 39> B        -0.597853   -1.153119    0.543844
| 40> B        -1.783790    0.009110    0.137115
| 41> O        -1.490557    1.328923    0.025246
| 42> C        -3.267691   -0.435974   -0.118934
| 43> H        -3.761562   -0.596998    0.844776
| 44> H        -3.341154   -1.383154   -0.657476
| 45> H        -3.831810    0.324288   -0.661498
| 46> B         1.757759   -0.051571   -0.158624
| 47> O         1.385017    1.268826   -0.076050
| 48> C         3.237532   -0.474829    0.145663
| 49> H         3.296643   -1.414730    0.696983
| 50> H         3.805994    0.279625    0.697027
| 51> H         3.753648   -0.650133   -0.803732
| 52> H        -0.548536    1.535082    0.111158
| 53> H         2.099895    1.870855    0.157968
| 54> H        -0.671564   -1.693239    1.604251
| 55> H         0.585115   -1.747060   -1.596177
| 56> *
| 57> 
| 58> $new_job
| 59> ! ri-mp2 aug-cc-pvqz aug-cc-pvqz/c tightscf
| 60> %pal nprocs 16 end
| 61> %maxcore 3800
| 62> %base "QZ_B-B_70_AB"
| 63> 
| 64> *xyz 0 1
| 65> B         0.551606   -1.172763   -0.551778
| 66> B        -0.597853   -1.153119    0.543844
| 67> B        -1.783790    0.009110    0.137115
| 68> O        -1.490557    1.328923    0.025246
| 69> C        -3.267691   -0.435974   -0.118934
| 70> H        -3.761562   -0.596998    0.844776
| 71> H        -3.341154   -1.383154   -0.657476
| 72> H        -3.831810    0.324288   -0.661498
| 73> B         1.757759   -0.051571   -0.158624
| 74> O         1.385017    1.268826   -0.076050
| 75> C         3.237532   -0.474829    0.145663
| 76> H         3.296643   -1.414730    0.696983
| 77> H         3.805994    0.279625    0.697027
| 78> H         3.753648   -0.650133   -0.803732
| 79> H        -0.548536    1.535082    0.111158
| 80> H         2.099895    1.870855    0.157968
| 81> H        -0.671564   -1.693239    1.604251
| 82> H         0.585115   -1.747060   -1.596177
| 83> *
| 84> 
| 85> 
| 86> 
| 87> 
| 88>                          ****END OF INPUT****
================================================================================


                 $$$$$$$$$$$$$$$$$$$$$$$$$$$$$$$$$$$$$$$$$$$$$$ 
                 $ THERE ARE  3 JOBS TO BE PROCESSED THIS RUN $
                 $$$$$$$$$$$$$$$$$$$$$$$$$$$$$$$$$$$$$$$$$$$$$$ 




                 $$$$$$$$$$$$$$$$  JOB NUMBER  1 $$$$$$$$$$$$$$


                       ****************************
                       * Single Point Calculation *
                       ****************************

---------------------------------
CARTESIAN COORDINATES (ANGSTROEM)
---------------------------------
  B      0.551606   -1.172763   -0.551778
  B     -0.597853   -1.153119    0.543844
  B     -1.783790    0.009110    0.137115
  O     -1.490557    1.328923    0.025246
  C     -3.267691   -0.435974   -0.118934
  H     -3.761562   -0.596998    0.844776
  H     -3.341154   -1.383154   -0.657476
  H     -3.831810    0.324288   -0.661498
  B      1.757759   -0.051571   -0.158624
  O      1.385017    1.268826   -0.076050
  C      3.237532   -0.474829    0.145663
  H      3.296643   -1.414730    0.696983
  H      3.805994    0.279625    0.697027
  H      3.753648   -0.650133   -0.803732
  H     -0.548536    1.535082    0.111158
  H      2.099895    1.870855    0.157968
  H     -0.671564   -1.693239    1.604251
  H      0.585115   -1.747060   -1.596177

----------------------------
CARTESIAN COORDINATES (A.U.)
----------------------------
  NO LB      ZA    FRAG     MASS         X           Y           Z
   0 B     5.0000    0    10.810    1.042384   -2.216201   -1.042709
   1 B     5.0000    0    10.810   -1.129778   -2.179079    1.027716
   2 B     5.0000    0    10.810   -3.370875    0.017215    0.259110
   3 O     8.0000    0    15.999   -2.816745    2.511301    0.047708
   4 C     6.0000    0    12.011   -6.175041   -0.823871   -0.224753
   5 H     1.0000    0     1.008   -7.108322   -1.128163    1.596395
   6 H     1.0000    0     1.008   -6.313866   -2.613782   -1.242450
   7 H     1.0000    0     1.008   -7.241071    0.612816   -1.250050
   8 B     5.0000    0    10.810    3.321683   -0.097455   -0.299756
   9 O     8.0000    0    15.999    2.617303    2.397734   -0.143714
  10 C     6.0000    0    12.011    6.118049   -0.897297    0.275263
  11 H     1.0000    0     1.008    6.229752   -2.673452    1.317107
  12 H     1.0000    0     1.008    7.192286    0.528415    1.317190
  13 H     1.0000    0     1.008    7.093367   -1.228573   -1.518833
  14 H     1.0000    0     1.008   -1.036583    2.900885    0.210058
  15 H     1.0000    0     1.008    3.968226    3.535404    0.298516
  16 H     1.0000    0     1.008   -1.269072   -3.199758    3.031595
  17 H     1.0000    0     1.008    1.105707   -3.301465   -3.016337

--------------------------------
INTERNAL COORDINATES (ANGSTROEM)
--------------------------------
 B      0   0   0     0.000000000000     0.00000000     0.00000000
 B      1   0   0     1.588089873496     0.00000000     0.00000000
 B      2   1   0     1.709576349816   110.26577523     0.00000000
 O      3   2   1     1.356615870620   122.07753125   298.99094409
 C      3   2   1     1.570230249122   120.10978006   119.06536935
 H      5   3   2     1.094794162077   108.93270574    78.77762378
 H      5   3   2     1.092050479847   112.94430515   321.24372290
 H      5   3   2     1.091148133344   111.84880232   197.93229989
 B      1   2   3     1.693058365205   110.31896533    88.62982850
 O      9   1   2     1.374482921556   117.18880611   299.30462949
 C      9   1   2     1.568906002430   122.56931164   117.52956623
 H     11   9   1     1.091266119020   112.42254127   322.71276394
 H     11   9   1     1.093778836903   113.69569725   199.42638061
 H     11   9   1     1.094741103593   108.64285963    79.63661430
 H      4   3   2     0.968135305350   114.21550680     5.54012489
 H     10   9   1     0.963459338036   114.43416499   179.45124423
 H      2   1   3     1.192319559334   130.74661979   188.57837561
 H      1   2   3     1.192354464281   129.09372035   276.29840689

---------------------------
INTERNAL COORDINATES (A.U.)
---------------------------
 B      0   0   0     0.000000000000     0.00000000     0.00000000
 B      1   0   0     3.001054936961     0.00000000     0.00000000
 B      2   1   0     3.230631106181   110.26577523     0.00000000
 O      3   2   1     2.563632464404   122.07753125   298.99094409
 C      3   2   1     2.967305138040   120.10978006   119.06536935
 H      5   3   2     2.068861139341   108.93270574    78.77762378
 H      5   3   2     2.063676331327   112.94430515   321.24372290
 H      5   3   2     2.061971143560   111.84880232   197.93229989
 B      1   2   3     3.199416638981   110.31896533    88.62982850
 O      9   1   2     2.597396297493   117.18880611   299.30462949
 C      9   1   2     2.964802674459   122.56931164   117.52956623
 H     11   9   1     2.062194104176   112.42254127   322.71276394
 H     11   9   1     2.066942452825   113.69569725   199.42638061
 H     11   9   1     2.068760873338   108.64285963    79.63661430
 H      4   3   2     1.829510587693   114.21550680     5.54012489
 H     10   9   1     1.820674290057   114.43416499   179.45124423
 H      2   1   3     2.253157431259   130.74661979   188.57837561
 H      1   2   3     2.253223392050   129.09372035   276.29840689

---------------------
BASIS SET INFORMATION
---------------------
There are 4 groups of distinct atoms

 Group   1 Type B   : 18s5p2d contracted to 4s3p2d pattern {8811/311/11}
 Group   2 Type O   : 18s5p2d contracted to 4s3p2d pattern {8811/311/11}
 Group   3 Type C   : 18s5p2d contracted to 4s3p2d pattern {8811/311/11}
 Group   4 Type H   : 5s2p contracted to 3s2p pattern {311/11}

Atom   0B    basis set group =>   1
Atom   1B    basis set group =>   1
Atom   2B    basis set group =>   1
Atom   3O    basis set group =>   2
Atom   4C    basis set group =>   3
Atom   5H    basis set group =>   4
Atom   6H    basis set group =>   4
Atom   7H    basis set group =>   4
Atom   8B    basis set group =>   1
Atom   9O    basis set group =>   2
Atom  10C    basis set group =>   3
Atom  11H    basis set group =>   4
Atom  12H    basis set group =>   4
Atom  13H    basis set group =>   4
Atom  14H    basis set group =>   4
Atom  15H    basis set group =>   4
Atom  16H    basis set group =>   4
Atom  17H    basis set group =>   4
---------------------------------
AUXILIARY/C BASIS SET INFORMATION
---------------------------------
There are 4 groups of distinct atoms

 Group   1 Type B   : 8s6p5d3f contracted to 8s6p5d3f pattern {11111111/111111/11111/111}
 Group   2 Type O   : 8s6p5d3f contracted to 8s6p5d3f pattern {11111111/111111/11111/111}
 Group   3 Type C   : 8s6p5d3f contracted to 8s6p5d3f pattern {11111111/111111/11111/111}
 Group   4 Type H   : 4s3p2d contracted to 4s3p2d pattern {1111/111/11}

Atom   0B    basis set group =>   1
Atom   1B    basis set group =>   1
Atom   2B    basis set group =>   1
Atom   3O    basis set group =>   2
Atom   4C    basis set group =>   3
Atom   5H    basis set group =>   4
Atom   6H    basis set group =>   4
Atom   7H    basis set group =>   4
Atom   8B    basis set group =>   1
Atom   9O    basis set group =>   2
Atom  10C    basis set group =>   3
Atom  11H    basis set group =>   4
Atom  12H    basis set group =>   4
Atom  13H    basis set group =>   4
Atom  14H    basis set group =>   4
Atom  15H    basis set group =>   4
Atom  16H    basis set group =>   4
Atom  17H    basis set group =>   4


           ************************************************************
           *        Program running with 16 parallel MPI-processes    *
           *              working on a common directory               *
           ************************************************************
------------------------------------------------------------------------------
                           ORCA GTO INTEGRAL CALCULATION
------------------------------------------------------------------------------
------------------------------------------------------------------------------
                   ___                                                        
                  /   \      - P O W E R E D   B Y -                         
                 /     \                                                     
                 |  |  |   _    _      __       _____    __    __             
                 |  |  |  | |  | |    /  \     |  _  \  |  |  /  |          
                  \  \/   | |  | |   /    \    | | | |  |  | /  /          
                 / \  \   | |__| |  /  /\  \   | |_| |  |  |/  /          
                |  |  |   |  __  | /  /__\  \  |    /   |      \           
                |  |  |   | |  | | |   __   |  |    \   |  |\   \          
                \     /   | |  | | |  |  |  |  | |\  \  |  | \   \       
                 \___/    |_|  |_| |__|  |__|  |_| \__\ |__|  \__/        
                                                                              
                      - O R C A' S   B I G   F R I E N D -                    
                                      &                                       
                       - I N T E G R A L  F E E D E R -                       
                                                                              
 v1 FN, 2020, v2 2021                                                         
------------------------------------------------------------------------------


Reading SHARK input file DZ_B-B_70_AB.SHARKINP.tmp ... ok
----------------------
SHARK INTEGRAL PACKAGE
----------------------

Number of atoms                             ...     18
Number of basis functions                   ...    322
Number of shells                            ...    170
Maximum angular momentum                    ...      2
Integral batch strategy                     ... SHARK/LIBINT Hybrid
RI-J (if used) integral strategy            ... SPLIT-RIJ (Revised 2003 algorithm where possible)
Printlevel                                  ...      1
Contraction scheme used                     ... PARTIAL GENERAL contraction
Coulomb Range Separation                    ... NOT USED
Exchange Range Separation                   ... NOT USED
Finite Nucleus Model                        ... NOT USED
Auxiliary Coulomb fitting basis             ... NOT available
Auxiliary J/K fitting basis                 ... NOT available
Auxiliary Correlation fitting basis         ... AVAILABLE
   # of basis functions in Aux-C            ...    806
   # of shells in Aux-C                     ...    266
   Maximum angular momentum in Aux-C        ...      3
Auxiliary 'external' fitting basis          ... NOT available
Integral threshold                          ...     2.500000e-11
Primitive cut-off                           ...     2.500000e-12
Primitive pair pre-selection threshold      ...     2.500000e-12

Calculating pre-screening integrals         ... done (  0.1 sec) Dimension = 170
Calculating pre-screening integrals (ORCA)  ... done (  0.1 sec) Dimension = 122
Organizing shell pair data                  ... done (  0.1 sec)
Shell pair information
Total number of shell pairs                 ...     14535
Shell pairs after pre-screening             ...     12188
Total number of primitive shell pairs       ...     21375
Primitive shell pairs kept                  ...     16302
          la=0 lb=0:   4447 shell pairs
          la=1 lb=0:   4355 shell pairs
          la=1 lb=1:    956 shell pairs
          la=2 lb=0:   1612 shell pairs
          la=2 lb=1:    685 shell pairs
          la=2 lb=2:    133 shell pairs

Calculating one electron integrals          ... done (  0.0 sec)
Calculating RI/C V-Matrix + Cholesky decomp.... done (  0.7 sec)
Calculating Nuclear repulsion               ... done (  0.1 sec) ENN=    299.449245880608 Eh

SHARK setup successfully completed in   1.7 seconds

Maximum memory used throughout the entire GTOINT-calculation: 20.9 MB


           ************************************************************
           *        Program running with 16 parallel MPI-processes    *
           *              working on a common directory               *
           ************************************************************
-------------------------------------------------------------------------------
                                 ORCA SCF
-------------------------------------------------------------------------------

------------
SCF SETTINGS
------------
Hamiltonian:
 Ab initio Hamiltonian  Method          .... Hartree-Fock(GTOs)


General Settings:
 Integral files         IntName         .... DZ_B-B_70_AB
 Hartree-Fock type      HFTyp           .... RHF
 Total Charge           Charge          ....    0
 Multiplicity           Mult            ....    1
 Number of Electrons    NEL             ....   58
 Basis Dimension        Dim             ....  274
 Nuclear Repulsion      ENuc            ....    299.4492458806 Eh

Convergence Acceleration:
 DIIS                   CNVDIIS         .... on
   Start iteration      DIISMaxIt       ....    12
   Startup error        DIISStart       ....  0.200000
   # of expansion vecs  DIISMaxEq       ....     5
   Bias factor          DIISBfac        ....   1.050
   Max. coefficient     DIISMaxC        ....  10.000
 Trust-Rad. Augm. Hess. CNVTRAH         .... auto
   Auto Start mean grad. ratio tolernc. ....  1.125000
   Auto Start start iteration           ....    20
   Auto Start num. interpolation iter.  ....    10
   Max. Number of Micro iterations      ....    16
   Max. Number of Macro iterations      .... Maxiter - #DIIS iter
   Number of Davidson start vectors     ....     2
   Converg. threshold I  (grad. norm)   ....   1.000e-05
   Converg. threshold II (energy diff.) ....   1.000e-08
   Grad. Scal. Fac. for Micro threshold ....   0.100
   Minimum threshold for Micro iter.    ....   0.010
   NR start threshold (gradient norm)   ....   0.001
   Initial trust radius                 ....   0.400
   Minimum AH scaling param. (alpha)    ....   1.000
   Maximum AH scaling param. (alpha)    .... 1000.000
   Orbital update algorithm             .... Taylor
   White noise on init. David. guess    .... on
   Maximum white noise                  ....   0.010
   Quad. conv. algorithm                .... NR
 SOSCF                  CNVSOSCF        .... on
   Start iteration      SOSCFMaxIt      ....   150
   Startup grad/error   SOSCFStart      ....  0.003300
 Level Shifting         CNVShift        .... on
   Level shift para.    LevelShift      ....    0.2500
   Turn off err/grad.   ShiftErr        ....    0.0010
 Zerner damping         CNVZerner       .... off
 Static damping         CNVDamp         .... on
   Fraction old density DampFac         ....    0.7000
   Max. Damping (<1)    DampMax         ....    0.9800
   Min. Damping (>=0)   DampMin         ....    0.0000
   Turn off err/grad.   DampErr         ....    0.1000
 Fernandez-Rico         CNVRico         .... off

SCF Procedure:
 Maximum # iterations   MaxIter         ....   125
 SCF integral mode      SCFMode         .... Direct
   Integral package                     .... SHARK and LIBINT hybrid scheme
 Reset frequency        DirectResetFreq ....    20
 Integral Threshold     Thresh          ....  2.500e-11 Eh
 Primitive CutOff       TCut            ....  2.500e-12 Eh

Convergence Tolerance:
 Convergence Check Mode ConvCheckMode   .... Total+1el-Energy
 Convergence forced     ConvForced      .... 1
 Energy Change          TolE            ....  1.000e-08 Eh
 1-El. energy change                    ....  1.000e-05 Eh
 Orbital Gradient       TolG            ....  1.000e-05
 Orbital Rotation angle TolX            ....  1.000e-05
 DIIS Error             TolErr          ....  5.000e-07


Diagonalization of the overlap matrix:
Smallest eigenvalue                        ... 4.431e-05
Time for diagonalization                   ...    0.026 sec
Threshold for overlap eigenvalues          ... 1.000e-08
Number of eigenvalues below threshold      ... 0
Time for construction of square roots      ...    0.233 sec
Total time needed                          ...    0.440 sec

Time for model grid setup =    1.628 sec

------------------------------
INITIAL GUESS: MODEL POTENTIAL
------------------------------
Loading Hartree-Fock densities                     ... done
Calculating cut-offs                               ... done
Initializing the effective Hamiltonian             ... done
Setting up the integral package (SHARK)            ... done
Starting the Coulomb interaction                   ... done (   0.8 sec)
Reading the grid                                   ... done
Mapping shells                                     ... done
Starting the XC term evaluation                    ... done (   0.1 sec)
Transforming the Hamiltonian                       ... done (   0.0 sec)
Diagonalizing the Hamiltonian                      ... done (   0.0 sec)
Back transforming the eigenvectors                 ... done (   0.0 sec)
Now organizing SCF variables                       ... done
                      ------------------
                      INITIAL GUESS DONE (   2.6 sec)
                      ------------------
--------------
SCF ITERATIONS
--------------
ITER       Energy         Delta-E        Max-DP      RMS-DP      [F,P]     Damp
               ***  Starting incremental Fock matrix formation  ***
  0   -329.6951177245   0.000000000000 0.25744029  0.00539029  0.2463725 0.7000
  1   -329.8429962771  -0.147878552613 0.18793011  0.00409006  0.1548628 0.7000
                               ***Turning on DIIS***
  2   -329.9342078577  -0.091211580656 0.44096534  0.00963477  0.0927451 0.0000
  3   -329.4139647021   0.520243155655 0.02321888  0.00067718  0.0410586 0.0000
  4   -330.0515777931  -0.637613090995 0.00926279  0.00030359  0.0066828 0.0000
  5   -330.1000791645  -0.048501371394 0.00584820  0.00016158  0.0051301 0.0000
                      *** Initiating the SOSCF procedure ***
                           *** Shutting down DIIS ***
                      *** Re-Reading the Fockian *** 
                      *** Removing any level shift *** 
ITER      Energy       Delta-E        Grad      Rot      Max-DP    RMS-DP
  6   -330.12155737  -0.0214782090  0.001229  0.001229  0.003759  0.000081
               *** Restarting incremental Fock matrix formation ***
  7   -330.12442854  -0.0028711712  0.000485  0.001017  0.000983  0.000037
  8   -330.12444328  -0.0000147343  0.000229  0.000943  0.000984  0.000030
  9   -330.12444749  -0.0000042153  0.000049  0.000030  0.000222  0.000005
 10   -330.12444764  -0.0000001422  0.000024  0.000021  0.000059  0.000001
 11   -330.12444768  -0.0000000397  0.000007  0.000021  0.000023  0.000001
 12   -330.12444768  -0.0000000070  0.000003  0.000014  0.000021  0.000000
                  ***Gradient check signals convergence***
              ***Rediagonalizing the Fockian in SOSCF/NRSCF***

               *****************************************************
               *                     SUCCESS                       *
               *           SCF CONVERGED AFTER  13 CYCLES          *
               *****************************************************


------------------------------------------------------------------------------
                          SCF STABILITY ANALYSIS                              
------------------------------------------------------------------------------


                       ****Iteration    0****

   Memory handling for direct AO based CIS:
   Memory per vector needed      ...     1 MB
   Memory needed                 ...    10 MB
   Memory available              ...  3800 MB
   Number of vectors per batch   ...  2208
   Number of batches             ...     1
   Time for densities:     0.004
   Using LibInt in JK Direct
   Time for K (Direct):     5.884
   Time for Sigma-Completion:     0.354
   Lowest Energy          :     0.267563041922
   Maximum Energy change  :     0.292422880175 (vector 2)
   Maximum residual norm  :     0.009690145093

                       ****Iteration    1****
   Time for densities:     0.002
   Using LibInt in JK Direct
   Time for K (Direct):     3.692
   Time for Sigma-Completion:     0.048
   Lowest Energy          :     0.120885608095
   Maximum Energy change  :     0.146677433827 (vector 0)
   Maximum residual norm  :     0.011143454406

                       ****Iteration    2****
   Time for densities:     0.002
   Using LibInt in JK Direct
   Time for K (Direct):     3.431
   Time for Sigma-Completion:     0.206
   Lowest Energy          :     0.089477937785
   Maximum Energy change  :     0.044076096373 (vector 1)
   Maximum residual norm  :     0.001648513138

                       ****Iteration    3****
   Time for densities:     0.002
   Using LibInt in JK Direct
   Time for K (Direct):     3.424
   Time for Sigma-Completion:     0.074
   Lowest Energy          :     0.086109406776
   Maximum Energy change  :     0.056151986204 (vector 2)
   Maximum residual norm  :     0.013361418799

                       ****Iteration    4****
   Time for densities:     0.002
   Using LibInt in JK Direct
   Time for K (Direct):     3.440
   Time for Sigma-Completion:     0.046
   Lowest Energy          :     0.085248758117
   Maximum Energy change  :     0.048520333514 (vector 2)
   Maximum residual norm  :     0.003473393385

                       ****Iteration    5****
   Time for densities:     0.002
   Using LibInt in JK Direct
   Time for K (Direct):     3.462
   Time for Sigma-Completion:     0.113
   Lowest Energy          :     0.085071623424
   Maximum Energy change  :     0.010377863314 (vector 2)
   Maximum residual norm  :     0.001001869334

                       ****Iteration    6****
   Time for densities:     0.002
   Using LibInt in JK Direct
   Time for K (Direct):     3.460
   Time for Sigma-Completion:     0.199
   Lowest Energy          :     0.085032450590
   Maximum Energy change  :     0.003001807619 (vector 2)
   Maximum residual norm  :     0.000376957302

                       ****Iteration    7****
   Time for densities:     0.002
   Using LibInt in JK Direct
   Time for K (Direct):     3.471
   Time for Sigma-Completion:     0.150
   Lowest Energy          :     0.085024442604
   Maximum Energy change  :     0.000882430800 (vector 2)
   Maximum residual norm  :     0.000088784945

      *** CONVERGENCE OF RESIDUAL NORM REACHED ***

----------------------------- 
SCF STABILITY ANALYSIS RESULT 
----------------------------- 

RHF/RKS->UHF/UKS - triplet - external

   Root    Eigenvalue (au) 
     0       0.085024 
     1       0.109530 
     2       0.142906 

Stability Analysis indicates a stable HF/KS wave function.


Total time for performing the stability analysis:    35.979sec


----------------
TOTAL SCF ENERGY
----------------

Total Energy       :         -330.12444768 Eh           -8983.14292 eV

Components:
Nuclear Repulsion  :          299.44924588 Eh            8148.42824 eV
Electronic Energy  :         -629.57369356 Eh          -17131.57115 eV
One Electron Energy:        -1042.87790468 Eh          -28378.15050 eV
Two Electron Energy:          413.30421112 Eh           11246.57935 eV

Virial components:
Potential Energy   :         -660.35607628 Eh          -17969.20237 eV
Kinetic Energy     :          330.23162860 Eh            8986.05946 eV
Virial Ratio       :            1.99967544


---------------
SCF CONVERGENCE
---------------

  Last Energy change         ...    1.4031e-09  Tolerance :   1.0000e-08
  Last MAX-Density change    ...    1.8050e-05  Tolerance :   1.0000e-07
  Last RMS-Density change    ...    2.4948e-07  Tolerance :   5.0000e-09
  Last Orbital Gradient      ...    9.7928e-07  Tolerance :   1.0000e-05
  Last Orbital Rotation      ...    4.3660e-06  Tolerance :   1.0000e-05

             **** THE GBW FILE WAS UPDATED (DZ_B-B_70_AB.gbw) ****
             **** DENSITY DZ_B-B_70_AB.scfp WAS UPDATED ****
             **** ENERGY FILE WAS UPDATED (DZ_B-B_70_AB.en.tmp) ****
             **** THE GBW FILE WAS UPDATED (DZ_B-B_70_AB.gbw) ****
             **** DENSITY DZ_B-B_70_AB.scfp WAS UPDATED ****
----------------
ORBITAL ENERGIES
----------------

  NO   OCC          E(Eh)            E(eV) 
   0   2.0000     -20.600297      -560.5626 
   1   2.0000     -20.557095      -559.3870 
   2   2.0000     -11.213389      -305.1318 
   3   2.0000     -11.185031      -304.3602 
   4   2.0000      -7.621373      -207.3881 
   5   2.0000      -7.595382      -206.6809 
   6   2.0000      -7.564189      -205.8321 
   7   2.0000      -7.560412      -205.7293 
   8   2.0000      -1.388848       -37.7925 
   9   2.0000      -1.347413       -36.6650 
  10   2.0000      -0.962400       -26.1882 
  11   2.0000      -0.935710       -25.4620 
  12   2.0000      -0.793539       -21.5933 
  13   2.0000      -0.738911       -20.1068 
  14   2.0000      -0.721397       -19.6302 
  15   2.0000      -0.646280       -17.5862 
  16   2.0000      -0.626911       -17.0591 
  17   2.0000      -0.578212       -15.7339 
  18   2.0000      -0.573910       -15.6169 
  19   2.0000      -0.562535       -15.3074 
  20   2.0000      -0.543729       -14.7956 
  21   2.0000      -0.539244       -14.6736 
  22   2.0000      -0.532216       -14.4823 
  23   2.0000      -0.512777       -13.9534 
  24   2.0000      -0.506974       -13.7955 
  25   2.0000      -0.496408       -13.5079 
  26   2.0000      -0.464059       -12.6277 
  27   2.0000      -0.404472       -11.0062 
  28   2.0000      -0.361660        -9.8413 
  29   0.0000       0.023570         0.6414 
  30   0.0000       0.036535         0.9942 
  31   0.0000       0.041309         1.1241 
  32   0.0000       0.043568         1.1855 
  33   0.0000       0.053967         1.4685 
  34   0.0000       0.056872         1.5476 
  35   0.0000       0.058371         1.5884 
  36   0.0000       0.061731         1.6798 
  37   0.0000       0.066638         1.8133 
  38   0.0000       0.073118         1.9896 
  39   0.0000       0.079201         2.1552 
  40   0.0000       0.080389         2.1875 
  41   0.0000       0.085797         2.3347 
  42   0.0000       0.090939         2.4746 
  43   0.0000       0.092058         2.5050 
  44   0.0000       0.097995         2.6666 
  45   0.0000       0.105241         2.8638 
  46   0.0000       0.114685         3.1207 
  47   0.0000       0.117418         3.1951 
  48   0.0000       0.120182         3.2703 
  49   0.0000       0.120629         3.2825 
  50   0.0000       0.127487         3.4691 
  51   0.0000       0.134960         3.6724 
  52   0.0000       0.135314         3.6821 
  53   0.0000       0.144601         3.9348 
  54   0.0000       0.151117         4.1121 
  55   0.0000       0.159870         4.3503 
  56   0.0000       0.172295         4.6884 
  57   0.0000       0.176372         4.7993 
  58   0.0000       0.178926         4.8688 
  59   0.0000       0.189664         5.1610 
  60   0.0000       0.194048         5.2803 
  61   0.0000       0.201255         5.4764 
  62   0.0000       0.206165         5.6100 
  63   0.0000       0.206381         5.6159 
  64   0.0000       0.212572         5.7844 
  65   0.0000       0.218876         5.9559 
  66   0.0000       0.226362         6.1596 
  67   0.0000       0.234395         6.3782 
  68   0.0000       0.240605         6.5472 
  69   0.0000       0.263763         7.1773 
  70   0.0000       0.268785         7.3140 
  71   0.0000       0.279607         7.6085 
  72   0.0000       0.281417         7.6578 
  73   0.0000       0.292025         7.9464 
  74   0.0000       0.295052         8.0288 
  75   0.0000       0.301137         8.1944 
  76   0.0000       0.303964         8.2713 
  77   0.0000       0.314649         8.5620 
  78   0.0000       0.324041         8.8176 
  79   0.0000       0.331447         9.0191 
  80   0.0000       0.343928         9.3588 
  81   0.0000       0.358247         9.7484 
  82   0.0000       0.363628         9.8948 
  83   0.0000       0.369509        10.0549 
  84   0.0000       0.373803        10.1717 
  85   0.0000       0.381158        10.3718 
  86   0.0000       0.396187        10.7808 
  87   0.0000       0.406775        11.0689 
  88   0.0000       0.418288        11.3822 
  89   0.0000       0.424516        11.5517 
  90   0.0000       0.426346        11.6015 
  91   0.0000       0.429101        11.6764 
  92   0.0000       0.438252        11.9254 
  93   0.0000       0.443560        12.0699 
  94   0.0000       0.452094        12.3021 
  95   0.0000       0.461929        12.5697 
  96   0.0000       0.473004        12.8711 
  97   0.0000       0.475839        12.9482 
  98   0.0000       0.477345        12.9892 
  99   0.0000       0.482857        13.1392 
 100   0.0000       0.487440        13.2639 
 101   0.0000       0.489994        13.3334 
 102   0.0000       0.497789        13.5455 
 103   0.0000       0.501131        13.6365 
 104   0.0000       0.509820        13.8729 
 105   0.0000       0.512217        13.9381 
 106   0.0000       0.518725        14.1152 
 107   0.0000       0.532803        14.4983 
 108   0.0000       0.539607        14.6835 
 109   0.0000       0.548031        14.9127 
 110   0.0000       0.555776        15.1234 
 111   0.0000       0.561800        15.2873 
 112   0.0000       0.565840        15.3973 
 113   0.0000       0.570783        15.5318 
 114   0.0000       0.587576        15.9887 
 115   0.0000       0.592111        16.1122 
 116   0.0000       0.597618        16.2620 
 117   0.0000       0.600978        16.3534 
 118   0.0000       0.610495        16.6124 
 119   0.0000       0.611415        16.6374 
 120   0.0000       0.623233        16.9590 
 121   0.0000       0.625896        17.0315 
 122   0.0000       0.634568        17.2675 
 123   0.0000       0.637285        17.3414 
 124   0.0000       0.648259        17.6400 
 125   0.0000       0.649558        17.6754 
 126   0.0000       0.658465        17.9177 
 127   0.0000       0.662451        18.0262 
 128   0.0000       0.669329        18.2134 
 129   0.0000       0.674526        18.3548 
 130   0.0000       0.684319        18.6213 
 131   0.0000       0.693529        18.8719 
 132   0.0000       0.698498        19.0071 
 133   0.0000       0.707915        19.2633 
 134   0.0000       0.717699        19.5296 
 135   0.0000       0.725193        19.7335 
 136   0.0000       0.736723        20.0472 
 137   0.0000       0.741785        20.1850 
 138   0.0000       0.752894        20.4873 
 139   0.0000       0.756351        20.5814 
 140   0.0000       0.769425        20.9371 
 141   0.0000       0.774040        21.0627 
 142   0.0000       0.780501        21.2385 
 143   0.0000       0.792094        21.5540 
 144   0.0000       0.804178        21.8828 
 145   0.0000       0.814473        22.1629 
 146   0.0000       0.831792        22.6342 
 147   0.0000       0.834695        22.7132 
 148   0.0000       0.847910        23.0728 
 149   0.0000       0.860654        23.4196 
 150   0.0000       0.863509        23.4973 
 151   0.0000       0.871098        23.7038 
 152   0.0000       0.885539        24.0967 
 153   0.0000       0.892657        24.2904 
 154   0.0000       0.912938        24.8423 
 155   0.0000       0.923772        25.1371 
 156   0.0000       0.931416        25.3451 
 157   0.0000       0.943892        25.6846 
 158   0.0000       0.949721        25.8432 
 159   0.0000       0.970475        26.4080 
 160   0.0000       0.996206        27.1081 
 161   0.0000       1.016888        27.6709 
 162   0.0000       1.041684        28.3457 
 163   0.0000       1.068688        29.0805 
 164   0.0000       1.079468        29.3738 
 165   0.0000       1.100054        29.9340 
 166   0.0000       1.121689        30.5227 
 167   0.0000       1.129487        30.7349 
 168   0.0000       1.157071        31.4855 
 169   0.0000       1.168933        31.8083 
 170   0.0000       1.177934        32.0532 
 171   0.0000       1.181203        32.1422 
 172   0.0000       1.185912        32.2703 
 173   0.0000       1.196770        32.5658 
 174   0.0000       1.213479        33.0204 
 175   0.0000       1.229720        33.4624 
 176   0.0000       1.233882        33.5756 
 177   0.0000       1.246632        33.9226 
 178   0.0000       1.255595        34.1665 
 179   0.0000       1.265467        34.4351 
 180   0.0000       1.284948        34.9652 
 181   0.0000       1.303736        35.4765 
 182   0.0000       1.307812        35.5874 
 183   0.0000       1.339853        36.4592 
 184   0.0000       1.349725        36.7279 
 185   0.0000       1.365323        37.1523 
 186   0.0000       1.394771        37.9537 
 187   0.0000       1.411523        38.4095 
 188   0.0000       1.421530        38.6818 
 189   0.0000       1.444837        39.3160 
 190   0.0000       1.462668        39.8012 
 191   0.0000       1.479012        40.2460 
 192   0.0000       1.493897        40.6510 
 193   0.0000       1.508278        41.0423 
 194   0.0000       1.554751        42.3069 
 195   0.0000       1.562513        42.5182 
 196   0.0000       1.591032        43.2942 
 197   0.0000       1.604260        43.6541 
 198   0.0000       1.614747        43.9395 
 199   0.0000       1.649126        44.8750 
 200   0.0000       1.672324        45.5063 
 201   0.0000       1.680451        45.7274 
 202   0.0000       1.741818        47.3973 
 203   0.0000       1.766279        48.0629 
 204   0.0000       1.768772        48.1307 
 205   0.0000       1.792503        48.7765 
 206   0.0000       1.800428        48.9921 
 207   0.0000       1.826400        49.6989 
 208   0.0000       1.845270        50.2124 
 209   0.0000       1.859487        50.5992 
 210   0.0000       1.882634        51.2291 
 211   0.0000       1.913696        52.0743 
 212   0.0000       1.915357        52.1195 
 213   0.0000       1.931982        52.5719 
 214   0.0000       1.938198        52.7410 
 215   0.0000       1.979576        53.8670 
 216   0.0000       1.996339        54.3232 
 217   0.0000       2.017803        54.9072 
 218   0.0000       2.066435        56.2305 
 219   0.0000       2.073256        56.4162 
 220   0.0000       2.082110        56.6571 
 221   0.0000       2.111802        57.4650 
 222   0.0000       2.138083        58.1802 
 223   0.0000       2.145133        58.3720 
 224   0.0000       2.168101        58.9970 
 225   0.0000       2.184007        59.4299 
 226   0.0000       2.218738        60.3749 
 227   0.0000       2.230885        60.7055 
 228   0.0000       2.244094        61.0649 
 229   0.0000       2.261729        61.5448 
 230   0.0000       2.274436        61.8905 
 231   0.0000       2.279720        62.0343 
 232   0.0000       2.292881        62.3925 
 233   0.0000       2.305232        62.7286 
 234   0.0000       2.311376        62.8958 
 235   0.0000       2.332128        63.4604 
 236   0.0000       2.341580        63.7176 
 237   0.0000       2.345038        63.8117 
 238   0.0000       2.377855        64.7047 
 239   0.0000       2.407605        65.5143 
 240   0.0000       2.472581        67.2823 
 241   0.0000       2.497873        67.9706 
 242   0.0000       2.526445        68.7481 
 243   0.0000       2.540969        69.1433 
 244   0.0000       2.570077        69.9354 
 245   0.0000       2.600008        70.7498 
 246   0.0000       2.638537        71.7982 
 247   0.0000       2.644391        71.9576 
 248   0.0000       2.695943        73.3603 
 249   0.0000       2.730804        74.3089 
 250   0.0000       2.753637        74.9303 
 251   0.0000       2.787219        75.8441 
 252   0.0000       2.809859        76.4602 
 253   0.0000       2.871698        78.1429 
 254   0.0000       2.900489        78.9263 
 255   0.0000       2.907775        79.1246 
 256   0.0000       3.005335        81.7793 
 257   0.0000       3.032719        82.5245 
 258   0.0000       3.064229        83.3819 
 259   0.0000       3.103724        84.4566 
 260   0.0000       3.125091        85.0380 
 261   0.0000       3.171533        86.3018 
 262   0.0000       3.185171        86.6729 
 263   0.0000       3.268225        88.9329 
 264   0.0000       3.701539       100.7240 
 265   0.0000       3.730306       101.5068 
 266   0.0000       3.747284       101.9688 
 267   0.0000       3.794884       103.2640 
 268   0.0000       3.815299       103.8196 
 269   0.0000       3.891772       105.9005 
 270   0.0000       3.970218       108.0351 
 271   0.0000       3.981910       108.3533 
 272   0.0000       4.285074       116.6028 
 273   0.0000       4.438512       120.7781 

                    ********************************
                    * MULLIKEN POPULATION ANALYSIS *
                    ********************************

-----------------------
MULLIKEN ATOMIC CHARGES
-----------------------
   0 B :   -0.148339
   1 B :   -0.230480
   2 B :    0.850213
   3 O :   -0.898039
   4 C :    0.377821
   5 H :   -0.127249
   6 H :   -0.230231
   7 H :   -0.373583
   8 B :    0.836498
   9 O :   -0.823588
  10 C :    0.414437
  11 H :   -0.235660
  12 H :   -0.372486
  13 H :   -0.133543
  14 H :    0.409079
  15 H :    0.208429
  16 H :    0.246143
  17 H :    0.230578
Sum of atomic charges:    0.0000000

--------------------------------
MULLIKEN REDUCED ORBITAL CHARGES
--------------------------------
  0 B s       :     2.263769  s :     2.263769
      pz      :     1.175864  p :     2.854867
      px      :     0.959454
      py      :     0.719549
      dz2     :     0.005649  d :     0.029702
      dxz     :     0.017408
      dyz     :     0.022824
      dx2y2   :    -0.006364
      dxy     :    -0.009815
  1 B s       :     2.373506  s :     2.373506
      pz      :     1.153930  p :     2.825370
      px      :     0.931484
      py      :     0.739956
      dz2     :     0.006724  d :     0.031604
      dxz     :     0.022533
      dyz     :     0.018836
      dx2y2   :    -0.007712
      dxy     :    -0.008777
  2 B s       :     2.424255  s :     2.424255
      pz      :     0.172329  p :     1.497036
      px      :     0.765854
      py      :     0.558853
      dz2     :     0.041184  d :     0.228496
      dxz     :    -0.039833
      dyz     :     0.032372
      dx2y2   :     0.022201
      dxy     :     0.172572
  3 O s       :     4.178251  s :     4.178251
      pz      :     1.818696  p :     4.709317
      px      :     1.375872
      py      :     1.514749
      dz2     :    -0.000103  d :     0.010471
      dxz     :     0.000330
      dyz     :     0.006206
      dx2y2   :     0.000717
      dxy     :     0.003321
  4 C s       :     2.925838  s :     2.925838
      pz      :     0.823744  p :     2.696382
      px      :     1.086714
      py      :     0.785924
      dz2     :    -0.005681  d :    -0.000041
      dxz     :    -0.002505
      dyz     :    -0.014845
      dx2y2   :     0.005702
      dxy     :     0.017287
  5 H s       :     1.127986  s :     1.127986
      pz      :    -0.009533  p :    -0.000737
      px      :     0.006918
      py      :     0.001878
  6 H s       :     1.254941  s :     1.254941
      pz      :    -0.011129  p :    -0.024709
      px      :    -0.001325
      py      :    -0.012255
  7 H s       :     1.365511  s :     1.365511
      pz      :    -0.004257  p :     0.008073
      px      :     0.020201
      py      :    -0.007871
  8 B s       :     2.514015  s :     2.514015
      pz      :     0.138703  p :     1.509739
      px      :     0.809458
      py      :     0.561577
      dz2     :     0.018992  d :     0.139748
      dxz     :    -0.047669
      dyz     :     0.045268
      dx2y2   :     0.018580
      dxy     :     0.104577
  9 O s       :     3.997491  s :     3.997491
      pz      :     1.825768  p :     4.817904
      px      :     1.628658
      py      :     1.363477
      dz2     :     0.000009  d :     0.008194
      dxz     :     0.001380
      dyz     :     0.003313
      dx2y2   :     0.004259
      dxy     :    -0.000768
 10 C s       :     2.890200  s :     2.890200
      pz      :     0.826593  p :     2.690544
      px      :     1.067093
      py      :     0.796857
      dz2     :    -0.003439  d :     0.004819
      dxz     :    -0.003000
      dyz     :    -0.014565
      dx2y2   :     0.007368
      dxy     :     0.018454
 11 H s       :     1.248361  s :     1.248361
      pz      :    -0.006963  p :    -0.012700
      px      :    -0.003827
      py      :    -0.001910
 12 H s       :     1.375445  s :     1.375445
      pz      :    -0.003585  p :    -0.002959
      px      :     0.011719
      py      :    -0.011093
 13 H s       :     1.137270  s :     1.137270
      pz      :    -0.010254  p :    -0.003727
      px      :     0.003018
      py      :     0.003508
 14 H s       :     0.561373  s :     0.561373
      pz      :     0.019311  p :     0.029548
      px      :     0.014486
      py      :    -0.004250
 15 H s       :     0.720253  s :     0.720253
      pz      :     0.021338  p :     0.071319
      px      :     0.033235
      py      :     0.016746
 16 H s       :     0.676275  s :     0.676275
      pz      :     0.046014  p :     0.077581
      px      :     0.018404
      py      :     0.013163
 17 H s       :     0.690999  s :     0.690999
      pz      :     0.046331  p :     0.078423
      px      :     0.019429
      py      :     0.012663


                     *******************************
                     * LOEWDIN POPULATION ANALYSIS *
                     *******************************

----------------------
LOEWDIN ATOMIC CHARGES
----------------------
   0 B :    0.100438
   1 B :    0.107705
   2 B :   -0.190191
   3 O :    0.152312
   4 C :    0.141181
   5 H :   -0.033036
   6 H :   -0.039879
   7 H :   -0.037136
   8 B :   -0.169132
   9 O :    0.155047
  10 C :    0.149726
  11 H :   -0.033915
  12 H :   -0.039032
  13 H :   -0.027131
  14 H :   -0.123830
  15 H :   -0.043000
  16 H :   -0.035921
  17 H :   -0.034208

-------------------------------
LOEWDIN REDUCED ORBITAL CHARGES
-------------------------------
  0 B s       :     2.526590  s :     2.526590
      pz      :     0.756330  p :     1.903115
      px      :     0.668110
      py      :     0.478675
      dz2     :     0.098741  d :     0.469857
      dxz     :     0.111658
      dyz     :     0.069896
      dx2y2   :     0.095574
      dxy     :     0.093989
  1 B s       :     2.528368  s :     2.528368
      pz      :     0.754345  p :     1.893852
      px      :     0.655084
      py      :     0.484423
      dz2     :     0.100904  d :     0.470075
      dxz     :     0.112730
      dyz     :     0.069802
      dx2y2   :     0.096333
      dxy     :     0.090306
  2 B s       :     2.414920  s :     2.414920
      pz      :     0.268131  p :     1.708665
      px      :     0.747922
      py      :     0.692612
      dz2     :     0.099780  d :     1.066606
      dxz     :     0.137188
      dyz     :     0.197826
      dx2y2   :     0.290353
      dxy     :     0.341459
  3 O s       :     3.219015  s :     3.219015
      pz      :     1.560992  p :     4.478503
      px      :     1.381987
      py      :     1.535524
      dz2     :     0.018631  d :     0.150170
      dxz     :     0.001460
      dyz     :     0.010196
      dx2y2   :     0.065523
      dxy     :     0.054360
  4 C s       :     2.621172  s :     2.621172
      pz      :     0.930742  p :     2.887411
      px      :     1.017262
      py      :     0.939407
      dz2     :     0.050929  d :     0.350236
      dxz     :     0.060647
      dyz     :     0.061017
      dx2y2   :     0.095221
      dxy     :     0.082421
  5 H s       :     0.732111  s :     0.732111
      pz      :     0.127280  p :     0.300924
      px      :     0.096492
      py      :     0.077152
  6 H s       :     0.739057  s :     0.739057
      pz      :     0.092734  p :     0.300823
      px      :     0.082261
      py      :     0.125828
  7 H s       :     0.738749  s :     0.738749
      pz      :     0.091088  p :     0.298387
      px      :     0.100511
      py      :     0.106788
  8 B s       :     2.420467  s :     2.420467
      pz      :     0.262970  p :     1.698589
      px      :     0.761143
      py      :     0.674476
      dz2     :     0.101141  d :     1.050076
      dxz     :     0.143238
      dyz     :     0.189989
      dx2y2   :     0.270167
      dxy     :     0.345540
  9 O s       :     3.213886  s :     3.213886
      pz      :     1.571528  p :     4.474725
      px      :     1.483879
      py      :     1.419318
      dz2     :     0.017733  d :     0.156341
      dxz     :     0.003684
      dyz     :     0.011863
      dx2y2   :     0.048430
      dxy     :     0.074631
 10 C s       :     2.619074  s :     2.619074
      pz      :     0.933544  p :     2.885116
      px      :     1.015750
      py      :     0.935822
      dz2     :     0.046949  d :     0.346084
      dxz     :     0.063462
      dyz     :     0.062143
      dx2y2   :     0.092774
      dxy     :     0.080755
 11 H s       :     0.733561  s :     0.733561
      pz      :     0.093084  p :     0.300354
      px      :     0.081456
      py      :     0.125814
 12 H s       :     0.740775  s :     0.740775
      pz      :     0.092228  p :     0.298257
      px      :     0.099199
      py      :     0.106830
 13 H s       :     0.727915  s :     0.727915
      pz      :     0.125678  p :     0.299216
      px      :     0.096935
      py      :     0.076602
 14 H s       :     0.593576  s :     0.593576
      pz      :     0.123343  p :     0.530254
      px      :     0.293377
      py      :     0.113534
 15 H s       :     0.611494  s :     0.611494
      pz      :     0.122714  p :     0.431505
      px      :     0.170455
      py      :     0.138336
 16 H s       :     0.838328  s :     0.838328
      pz      :     0.093220  p :     0.197594
      px      :     0.052835
      py      :     0.051539
 17 H s       :     0.836798  s :     0.836798
      pz      :     0.092995  p :     0.197410
      px      :     0.053378
      py      :     0.051037


                      *****************************
                      * MAYER POPULATION ANALYSIS *
                      *****************************

  NA   - Mulliken gross atomic population
  ZA   - Total nuclear charge
  QA   - Mulliken gross atomic charge
  VA   - Mayer's total valence
  BVA  - Mayer's bonded valence
  FA   - Mayer's free valence

  ATOM       NA         ZA         QA         VA         BVA        FA
  0 B      5.1483     5.0000    -0.1483     2.7076     2.7076     0.0000
  1 B      5.2305     5.0000    -0.2305     2.8345     2.8345     0.0000
  2 B      4.1498     5.0000     0.8502     2.5455     2.5455     0.0000
  3 O      8.8980     8.0000    -0.8980     1.2918     1.2918     0.0000
  4 C      5.6222     6.0000     0.3778     4.0207     4.0207     0.0000
  5 H      1.1272     1.0000    -0.1272     0.9251     0.9251     0.0000
  6 H      1.2302     1.0000    -0.2302     0.7560     0.7560    -0.0000
  7 H      1.3736     1.0000    -0.3736     0.8666     0.8666    -0.0000
  8 B      4.1635     5.0000     0.8365     2.5745     2.5745    -0.0000
  9 O      8.8236     8.0000    -0.8236     1.6374     1.6374     0.0000
 10 C      5.5856     6.0000     0.4144     3.9866     3.9866    -0.0000
 11 H      1.2357     1.0000    -0.2357     0.7537     0.7537     0.0000
 12 H      1.3725     1.0000    -0.3725     0.8063     0.8063    -0.0000
 13 H      1.1335     1.0000    -0.1335     0.8799     0.8799    -0.0000
 14 H      0.5909     1.0000     0.4091     0.7117     0.7117     0.0000
 15 H      0.7916     1.0000     0.2084     0.9753     0.9753     0.0000
 16 H      0.7539     1.0000     0.2461     1.2950     1.2950     0.0000
 17 H      0.7694     1.0000     0.2306     1.2878     1.2878    -0.0000

  Mayer bond orders larger than 0.100000
B(  0-B ,  1-B ) :   0.6407 B(  0-B ,  2-B ) :   0.2857 B(  0-B ,  8-B ) :   0.7254 
B(  0-B , 16-H ) :   0.1693 B(  0-B , 17-H ) :   0.7831 B(  1-B ,  2-B ) :   0.7286 
B(  1-B ,  8-B ) :   0.3763 B(  1-B , 16-H ) :   0.8560 B(  1-B , 17-H ) :   0.1609 
B(  2-B ,  3-O ) :   0.3851 B(  2-B ,  4-C ) :   0.9553 B(  2-B , 16-H ) :   0.2561 
B(  3-O , 14-H ) :   0.7160 B(  4-C ,  5-H ) :   0.9395 B(  4-C ,  6-H ) :   0.9513 
B(  4-C ,  7-H ) :   1.0258 B(  8-B ,  9-O ) :   0.3833 B(  8-B , 10-C ) :   0.9834 
B(  8-B , 11-H ) :  -0.1041 B(  8-B , 17-H ) :   0.3251 B(  9-O , 15-H ) :   1.0108 
B( 10-C , 11-H ) :   0.9811 B( 10-C , 12-H ) :   0.9824 B( 10-C , 13-H ) :   0.9565 


-------
TIMINGS
-------

Total SCF time: 0 days 0 hours 1 min 5 sec 

Total time                  ....      65.166 sec
Sum of individual times     ....      63.381 sec  ( 97.3%)

Fock matrix formation       ....      21.372 sec  ( 32.8%)
Diagonalization             ....       2.599 sec  (  4.0%)
Density matrix formation    ....       0.114 sec  (  0.2%)
Population analysis         ....       0.289 sec  (  0.4%)
Initial guess               ....       0.952 sec  (  1.5%)
Orbital Transformation      ....       0.000 sec  (  0.0%)
Orbital Orthonormalization  ....       0.000 sec  (  0.0%)
DIIS solution               ....       0.336 sec  (  0.5%)
SOSCF solution              ....       0.111 sec  (  0.2%)
SCF Stability Analysis      ....      35.979 sec  ( 55.2%)

Maximum memory used throughout the entire SCF-calculation: 236.4 MB


           ************************************************************
           *        Program running with 16 parallel MPI-processes    *
           *              working on a common directory               *
           ************************************************************

------------------------------------------------------------------------------
                                ORCA  MP2 
------------------------------------------------------------------------------

Freezing NCore=16 chemical core electrons

-------------
RI-MP2 ENERGY
-------------
Dimension of the basis                    ...  274
Memory devoted to MP2                     ... 3800 MB   
Data format for buffers                   ... DOUBLE
Compression type for matrix containers    ... UNCOMPRESSED
Overall scaling of the MP2 energy         ...   1.000e+00
Calculating two index integrals           ... done (    0.007 sec)
Cholesky decomposition of V**-1           ... done (    0.162 sec)

-----------------
RI-TRANSFORMATION (AUX index driven)
-----------------

Dimension of the orbital-basis         ... 274
Dimension of the aux-basis             ... 806
Transformation of internal/external MOs...    8-  28 to   29- 273
Number Format for Storage              ... Double (8 Byte)
Integral mode                          ... Direct

First Phase: integral generation and transformation of MO indices
  Aux angular momentum 0               ... done (    0.017 sec)
  Aux angular momentum 1               ... done (    0.019 sec)
  Aux angular momentum 2               ... done (    0.029 sec)
  Aux angular momentum 3               ... done (    0.015 sec)
Closing buffer VIA ( 0.03 GB; CompressionRatio= 1.00)
  Phase 1 completed in     1.199 sec
Second Phase: sorting and transformation of aux index

IA-Transformation
Memory available                       ... 3751 MB 
Max. # MO pairs treated in a batch     ... 2    
# of internal orbitals                 ... 21
# batches for internal orbitals        ... 1
Closing buffer IAV ( 0.03 GB; CompressionRatio= 1.00)
(ia|v) transformation done in     0.591 sec

  Phase 2 completed in     0.687 sec
RI-Integral transformation completed in     2.011 sec
Opening buffers                              ... done

Starting loop over batches of integrals:

Operator 0  - window                       ... (  8- 28)x( 29-273)
Operator 0  - Memory available             ...  3800 MB
Operator 0  - Memory needed per MO         ...   1.5 MB
Operator 0  - Number of orbitals per batch ... 2
Operator 0  - Number of batches            ... 1

OPERATOR  0   PASS   0:  MOs     8 ...    9 +   10 ...   11 +   12 ...   13 +   14 ...   15
                            +   16 ...   17 +   18 ...   19 +   20 ...   21 +   22 ...   23
                            +   24 ...   25 +   26 ...   27 +   28 ...   28
  Reading integrals       ... ok
Time spent in pair loops =     0.010 sec
Deleting buffer (Ka|jb)[aa] ...done

-----------------------------------------------
 RI-MP2 CORRELATION ENERGY:     -1.029035237 Eh
-----------------------------------------------


-------
TIMINGS
-------

Total time                :    2.406 sec
Integral trafo            :    2.023 sec ( 84.1%)
I/O of integrals          :    0.001 sec (  0.0%)
K(i,j) Operators          :    0.007 sec (  0.3%)
T(i,j) pair energies      :    0.000 sec (  0.0%)
V-calculation             :    0.007 sec (  0.3%)
V**(-1/2)                 :    0.162 sec (  6.7%)
Gamma(ia|P)               :    0.000 sec (  0.0%)
Gamma-Trafo               :    0.000 sec (  0.0%)
D(virtual)                :    0.000 sec (  0.0%)
D(internal)               :    0.000 sec (  0.0%)
W(virtual)                :    0.000 sec (  0.0%)
W(internal)               :    0.000 sec (  0.0%)
L(virtual)                :    0.000 sec (  0.0%)
L(internal)               :    0.000 sec (  0.0%)
G(D)                      :    0.000 sec (  0.0%)
G(Z)                      :    0.000 sec (  0.0%)
Z-Vector Solution         :    0.000 sec (  0.0%)
3-Index Derivative        :    0.000 sec (  0.0%)
2-Index Derivative        :    0.000 sec (  0.0%)
Separable Gradient        :    0.000 sec (  0.0%)


---------------------------------------
MP2 TOTAL ENERGY:     -331.153482918 Eh
---------------------------------------

Maximum memory used throughout the entire MP2-calculation: 97.1 MB

-------------------------   --------------------
FINAL SINGLE POINT ENERGY      -331.153482918406
-------------------------   --------------------


                            ***************************************
                            *     ORCA property calculations      *
                            ***************************************


  WARNING: The energy has been calculated at the MP2 level but the densities
           used in the property calculations are still SCF densities
           MP2 response densities have not been calculated 
           use %mp2 Density relaxed end
           or  %mp2 Density unrelaxed end

                                    ---------------------
                                    Active property flags
                                    ---------------------
   (+) Dipole Moment


------------------------------------------------------------------------------
                       ORCA ELECTRIC PROPERTIES CALCULATION
------------------------------------------------------------------------------

Dipole Moment Calculation                       ... on
Quadrupole Moment Calculation                   ... off
Polarizability Calculation                      ... off
GBWName                                         ... DZ_B-B_70_AB.gbw
Electron density                                ... DZ_B-B_70_AB.scfp
The origin for moment calculation is the CENTER OF MASS  = (-0.024790,  0.026213 -0.007149)

-------------
DIPOLE MOMENT
-------------
                                X             Y             Z
Electronic contribution:     -0.14594       1.51192      -0.22154
Nuclear contribution   :      1.43781      -1.52035       0.41464
                        -----------------------------------------
Total Dipole Moment    :      1.29187      -0.00842       0.19310
                        -----------------------------------------
Magnitude (a.u.)       :      1.30625
Magnitude (Debye)      :      3.32021



--------------------
Rotational spectrum 
--------------------
 
Rotational constants in cm-1:     0.139412     0.033928     0.028768 
Rotational constants in MHz :  4179.469124  1017.127251   862.435064 

 Dipole components along the rotational axes: 
x,y,z [a.u.] :     1.290768    -0.000173     0.200486 
x,y,z [Debye]:     3.280872    -0.000440     0.509596 

 

Timings for individual modules:

Sum of individual times         ...       72.479 sec (=   1.208 min)
GTO integral calculation        ...        2.706 sec (=   0.045 min)   3.7 %
SCF iterations                  ...       66.116 sec (=   1.102 min)  91.2 %
MP2 module                      ...        3.657 sec (=   0.061 min)   5.0 %


                 $$$$$$$$$$$$$$$$  JOB NUMBER  2 $$$$$$$$$$$$$$


                       ****************************
                       * Single Point Calculation *
                       ****************************

---------------------------------
CARTESIAN COORDINATES (ANGSTROEM)
---------------------------------
  B      0.551606   -1.172763   -0.551778
  B     -0.597853   -1.153119    0.543844
  B     -1.783790    0.009110    0.137115
  O     -1.490557    1.328923    0.025246
  C     -3.267691   -0.435974   -0.118934
  H     -3.761562   -0.596998    0.844776
  H     -3.341154   -1.383154   -0.657476
  H     -3.831810    0.324288   -0.661498
  B      1.757759   -0.051571   -0.158624
  O      1.385017    1.268826   -0.076050
  C      3.237532   -0.474829    0.145663
  H      3.296643   -1.414730    0.696983
  H      3.805994    0.279625    0.697027
  H      3.753648   -0.650133   -0.803732
  H     -0.548536    1.535082    0.111158
  H      2.099895    1.870855    0.157968
  H     -0.671564   -1.693239    1.604251
  H      0.585115   -1.747060   -1.596177

----------------------------
CARTESIAN COORDINATES (A.U.)
----------------------------
  NO LB      ZA    FRAG     MASS         X           Y           Z
   0 B     5.0000    0    10.810    1.042384   -2.216201   -1.042709
   1 B     5.0000    0    10.810   -1.129778   -2.179079    1.027716
   2 B     5.0000    0    10.810   -3.370875    0.017215    0.259110
   3 O     8.0000    0    15.999   -2.816745    2.511301    0.047708
   4 C     6.0000    0    12.011   -6.175041   -0.823871   -0.224753
   5 H     1.0000    0     1.008   -7.108322   -1.128163    1.596395
   6 H     1.0000    0     1.008   -6.313866   -2.613782   -1.242450
   7 H     1.0000    0     1.008   -7.241071    0.612816   -1.250050
   8 B     5.0000    0    10.810    3.321683   -0.097455   -0.299756
[...]
[1731681979.793850] [nc30514:3876485:0]          mpool.c:42   UCX  WARN  object 0x1312bb80 was not returned to mpool ucp_requests
[1731681979.793855] [nc30514:3876485:0]          mpool.c:42   UCX  WARN  object 0x1312bd40 was not returned to mpool ucp_requests
[1731681979.793858] [nc30514:3876485:0]          mpool.c:42   UCX  WARN  object 0x1312bf00 was not returned to mpool ucp_requests
[1731681979.793861] [nc30514:3876485:0]          mpool.c:42   UCX  WARN  object 0x1312c0c0 was not returned to mpool ucp_requests
[1731681979.793864] [nc30514:3876485:0]          mpool.c:42   UCX  WARN  object 0x1312c280 was not returned to mpool ucp_requests
[1731681979.793866] [nc30514:3876485:0]          mpool.c:42   UCX  WARN  object 0x1312c440 was not returned to mpool ucp_requests
[1731681979.793869] [nc30514:3876485:0]          mpool.c:42   UCX  WARN  object 0x1312c600 was not returned to mpool ucp_requests
[1731681979.793967] [nc30514:3876496:0]          mpool.c:42   UCX  WARN  object 0x137a93c0 was not returned to mpool ucp_requests
[1731681979.793987] [nc30514:3876496:0]          mpool.c:42   UCX  WARN  object 0x137a9580 was not returned to mpool ucp_requests
[1731681979.793991] [nc30514:3876496:0]          mpool.c:42   UCX  WARN  object 0x137a9740 was not returned to mpool ucp_requests
[1731681979.793995] [nc30514:3876496:0]          mpool.c:42   UCX  WARN  object 0x137a9900 was not returned to mpool ucp_requests
[1731681979.793999] [nc30514:3876496:0]          mpool.c:42   UCX  WARN  object 0x137a9ac0 was not returned to mpool ucp_requests
[1731681979.794003] [nc30514:3876496:0]          mpool.c:42   UCX  WARN  object 0x137a9c80 was not returned to mpool ucp_requests
[1731681979.794007] [nc30514:3876496:0]          mpool.c:42   UCX  WARN  object 0x137a9e40 was not returned to mpool ucp_requests
[1731681979.794010] [nc30514:3876496:0]          mpool.c:42   UCX  WARN  object 0x137aa000 was not returned to mpool ucp_requests
[1731681979.794022] [nc30514:3876471:0]          mpool.c:42   UCX  WARN  object 0x14334480 was not returned to mpool ucp_requests
[1731681979.794038] [nc30514:3876471:0]          mpool.c:42   UCX  WARN  object 0x14334640 was not returned to mpool ucp_requests
[1731681979.794042] [nc30514:3876471:0]          mpool.c:42   UCX  WARN  object 0x14334800 was not returned to mpool ucp_requests
[1731681979.794044] [nc30514:3876471:0]          mpool.c:42   UCX  WARN  object 0x143349c0 was not returned to mpool ucp_requests
[1731681979.794048] [nc30514:3876471:0]          mpool.c:42   UCX  WARN  object 0x14334b80 was not returned to mpool ucp_requests
[1731681979.794050] [nc30514:3876471:0]          mpool.c:42   UCX  WARN  object 0x14334d40 was not returned to mpool ucp_requests
[1731681979.794053] [nc30514:3876471:0]          mpool.c:42   UCX  WARN  object 0x14334f00 was not returned to mpool ucp_requests
[1731681979.794056] [nc30514:3876471:0]          mpool.c:42   UCX  WARN  object 0x143350c0 was not returned to mpool ucp_requests
[1731681979.794239] [nc30514:3876478:0]          mpool.c:42   UCX  WARN  object 0x126a8ac0 was not returned to mpool ucp_requests
[1731681979.794252] [nc30514:3876478:0]          mpool.c:42   UCX  WARN  object 0x126a8c80 was not returned to mpool ucp_requests
[1731681979.794257] [nc30514:3876478:0]          mpool.c:42   UCX  WARN  object 0x126a8e40 was not returned to mpool ucp_requests
[1731681979.794260] [nc30514:3876478:0]          mpool.c:42   UCX  WARN  object 0x126a9000 was not returned to mpool ucp_requests
[1731681979.794264] [nc30514:3876478:0]          mpool.c:42   UCX  WARN  object 0x126a91c0 was not returned to mpool ucp_requests
[1731681979.794267] [nc30514:3876478:0]          mpool.c:42   UCX  WARN  object 0x126a9380 was not returned to mpool ucp_requests
[1731681979.794272] [nc30514:3876478:0]          mpool.c:42   UCX  WARN  object 0x126a9540 was not returned to mpool ucp_requests
[1731681979.794276] [nc30514:3876478:0]          mpool.c:42   UCX  WARN  object 0x126a9700 was not returned to mpool ucp_requests
[1731681979.794281] [nc30514:3876478:0]          mpool.c:42   UCX  WARN  object 0x126a98c0 was not returned to mpool ucp_requests
[1731681979.794284] [nc30514:3876478:0]          mpool.c:42   UCX  WARN  object 0x126a9a80 was not returned to mpool ucp_requests
[1731681979.794346] [nc30514:3876477:0]          mpool.c:42   UCX  WARN  object 0x12eb9a00 was not returned to mpool ucp_requests
[1731681979.794358] [nc30514:3876477:0]          mpool.c:42   UCX  WARN  object 0x12eb9bc0 was not returned to mpool ucp_requests
[1731681979.794363] [nc30514:3876477:0]          mpool.c:42   UCX  WARN  object 0x12eb9d80 was not returned to mpool ucp_requests
[1731681979.794365] [nc30514:3876477:0]          mpool.c:42   UCX  WARN  object 0x12eb9f40 was not returned to mpool ucp_requests
[1731681979.794368] [nc30514:3876477:0]          mpool.c:42   UCX  WARN  object 0x12eba100 was not returned to mpool ucp_requests
[1731681979.794370] [nc30514:3876477:0]          mpool.c:42   UCX  WARN  object 0x12eba2c0 was not returned to mpool ucp_requests
[1731681979.794373] [nc30514:3876477:0]          mpool.c:42   UCX  WARN  object 0x12eba480 was not returned to mpool ucp_requests
[1731681979.794376] [nc30514:3876477:0]          mpool.c:42   UCX  WARN  object 0x12eba640 was not returned to mpool ucp_requests
[1731681979.794378] [nc30514:3876477:0]          mpool.c:42   UCX  WARN  object 0x12eba800 was not returned to mpool ucp_requests
[1731681979.794380] [nc30514:3876477:0]          mpool.c:42   UCX  WARN  object 0x12eba9c0 was not returned to mpool ucp_requests
[1731681979.795565] [nc30514:3876472:0]          mpool.c:42   UCX  WARN  object 0x133420c0 was not returned to mpool ucp_requests
[1731681979.795587] [nc30514:3876472:0]          mpool.c:42   UCX  WARN  object 0x13342280 was not returned to mpool ucp_requests
[1731681979.795592] [nc30514:3876472:0]          mpool.c:42   UCX  WARN  object 0x13342440 was not returned to mpool ucp_requests
[1731681979.795597] [nc30514:3876472:0]          mpool.c:42   UCX  WARN  object 0x13342600 was not returned to mpool ucp_requests
[1731681979.795600] [nc30514:3876472:0]          mpool.c:42   UCX  WARN  object 0x133427c0 was not returned to mpool ucp_requests
[1731681979.795603] [nc30514:3876472:0]          mpool.c:42   UCX  WARN  object 0x13342980 was not returned to mpool ucp_requests
[1731681979.795608] [nc30514:3876472:0]          mpool.c:42   UCX  WARN  object 0x13342d00 was not returned to mpool ucp_requests
[1731681979.795612] [nc30514:3876472:0]          mpool.c:42   UCX  WARN  object 0x13342ec0 was not returned to mpool ucp_requests
[1731681979.795617] [nc30514:3876472:0]          mpool.c:42   UCX  WARN  object 0x13343080 was not returned to mpool ucp_requests
[1731681979.795662] [nc30514:3876482:0]          mpool.c:42   UCX  WARN  object 0x12e05940 was not returned to mpool ucp_requests
[1731681979.795676] [nc30514:3876482:0]          mpool.c:42   UCX  WARN  object 0x12e05b00 was not returned to mpool ucp_requests
[1731681979.795680] [nc30514:3876482:0]          mpool.c:42   UCX  WARN  object 0x12e05cc0 was not returned to mpool ucp_requests
[1731681979.795682] [nc30514:3876482:0]          mpool.c:42   UCX  WARN  object 0x12e05e80 was not returned to mpool ucp_requests
[1731681979.795685] [nc30514:3876482:0]          mpool.c:42   UCX  WARN  object 0x12e06040 was not returned to mpool ucp_requests
[1731681979.795688] [nc30514:3876482:0]          mpool.c:42   UCX  WARN  object 0x12e06200 was not returned to mpool ucp_requests
[1731681979.795690] [nc30514:3876482:0]          mpool.c:42   UCX  WARN  object 0x12e063c0 was not returned to mpool ucp_requests
[1731681979.795693] [nc30514:3876482:0]          mpool.c:42   UCX  WARN  object 0x12e06580 was not returned to mpool ucp_requests
[1731681979.795695] [nc30514:3876482:0]          mpool.c:42   UCX  WARN  object 0x12e06740 was not returned to mpool ucp_requests
[1731681979.795697] [nc30514:3876482:0]          mpool.c:42   UCX  WARN  object 0x12e06900 was not returned to mpool ucp_requests
[1731681979.795660] [nc30514:3876473:0]          mpool.c:42   UCX  WARN  object 0x133a4940 was not returned to mpool ucp_requests
[1731681979.795674] [nc30514:3876473:0]          mpool.c:42   UCX  WARN  object 0x133a4b00 was not returned to mpool ucp_requests
[1731681979.795677] [nc30514:3876473:0]          mpool.c:42   UCX  WARN  object 0x133a4cc0 was not returned to mpool ucp_requests
[1731681979.795680] [nc30514:3876473:0]          mpool.c:42   UCX  WARN  object 0x133a4e80 was not returned to mpool ucp_requests
[1731681979.795683] [nc30514:3876473:0]          mpool.c:42   UCX  WARN  object 0x133a5040 was not returned to mpool ucp_requests
[1731681979.795685] [nc30514:3876473:0]          mpool.c:42   UCX  WARN  object 0x133a5200 was not returned to mpool ucp_requests
[1731681979.795688] [nc30514:3876473:0]          mpool.c:42   UCX  WARN  object 0x133a5580 was not returned to mpool ucp_requests
[1731681979.795690] [nc30514:3876473:0]          mpool.c:42   UCX  WARN  object 0x133a5740 was not returned to mpool ucp_requests
[1731681979.795693] [nc30514:3876473:0]          mpool.c:42   UCX  WARN  object 0x133a5900 was not returned to mpool ucp_requests
[1731681979.795909] [nc30514:3876474:0]          mpool.c:42   UCX  WARN  object 0x1371f500 was not returned to mpool ucp_requests
[1731681979.795923] [nc30514:3876474:0]          mpool.c:42   UCX  WARN  object 0x1371f6c0 was not returned to mpool ucp_requests
[1731681979.795927] [nc30514:3876474:0]          mpool.c:42   UCX  WARN  object 0x1371f880 was not returned to mpool ucp_requests
[1731681979.795929] [nc30514:3876474:0]          mpool.c:42   UCX  WARN  object 0x1371fa40 was not returned to mpool ucp_requests
[1731681979.795932] [nc30514:3876474:0]          mpool.c:42   UCX  WARN  object 0x1371fc00 was not returned to mpool ucp_requests
[1731681979.795934] [nc30514:3876474:0]          mpool.c:42   UCX  WARN  object 0x1371fdc0 was not returned to mpool ucp_requests
[1731681979.795937] [nc30514:3876474:0]          mpool.c:42   UCX  WARN  object 0x1371ff80 was not returned to mpool ucp_requests
[1731681979.795940] [nc30514:3876474:0]          mpool.c:42   UCX  WARN  object 0x13720140 was not returned to mpool ucp_requests
[1731681979.795942] [nc30514:3876474:0]          mpool.c:42   UCX  WARN  object 0x13720300 was not returned to mpool ucp_requests
[1731681979.795999] [nc30514:3876491:0]          mpool.c:42   UCX  WARN  object 0x12a3d580 was not returned to mpool ucp_requests
[1731681979.796013] [nc30514:3876491:0]          mpool.c:42   UCX  WARN  object 0x12a3d740 was not returned to mpool ucp_requests
[1731681979.796016] [nc30514:3876491:0]          mpool.c:42   UCX  WARN  object 0x12a3d900 was not returned to mpool ucp_requests
[1731681979.796019] [nc30514:3876491:0]          mpool.c:42   UCX  WARN  object 0x12a3dac0 was not returned to mpool ucp_requests
[1731681979.796021] [nc30514:3876491:0]          mpool.c:42   UCX  WARN  object 0x12a3dc80 was not returned to mpool ucp_requests
[1731681979.796024] [nc30514:3876491:0]          mpool.c:42   UCX  WARN  object 0x12a3de40 was not returned to mpool ucp_requests
[1731681979.796026] [nc30514:3876491:0]          mpool.c:42   UCX  WARN  object 0x12a3e000 was not returned to mpool ucp_requests
[1731681979.796029] [nc30514:3876491:0]          mpool.c:42   UCX  WARN  object 0x12a3e1c0 was not returned to mpool ucp_requests
[1731681979.796176] [nc30514:3876475:0]          mpool.c:42   UCX  WARN  object 0x13216440 was not returned to mpool ucp_requests
[1731681979.796190] [nc30514:3876475:0]          mpool.c:42   UCX  WARN  object 0x132167c0 was not returned to mpool ucp_requests
[1731681979.796195] [nc30514:3876475:0]          mpool.c:42   UCX  WARN  object 0x13216980 was not returned to mpool ucp_requests
[1731681979.796198] [nc30514:3876475:0]          mpool.c:42   UCX  WARN  object 0x13216b40 was not returned to mpool ucp_requests
[1731681979.796202] [nc30514:3876475:0]          mpool.c:42   UCX  WARN  object 0x13216d00 was not returned to mpool ucp_requests
[1731681979.796206] [nc30514:3876475:0]          mpool.c:42   UCX  WARN  object 0x13216ec0 was not returned to mpool ucp_requests
[1731681979.796210] [nc30514:3876475:0]          mpool.c:42   UCX  WARN  object 0x13217080 was not returned to mpool ucp_requests
[1731681979.796214] [nc30514:3876475:0]          mpool.c:42   UCX  WARN  object 0x13217240 was not returned to mpool ucp_requests
[1731681979.796218] [nc30514:3876475:0]          mpool.c:42   UCX  WARN  object 0x13217400 was not returned to mpool ucp_requests


           ************************************************************
           *        Program running with 16 parallel MPI-processes    *
           *              working on a common directory               *
           ************************************************************

------------------------------------------------------------------------------
                                ORCA  MP2 
------------------------------------------------------------------------------

Freezing NCore=16 chemical core electrons

-------------
RI-MP2 ENERGY
-------------
Dimension of the basis                    ... 1100
Memory devoted to MP2                     ... 3800 MB   
Data format for buffers                   ... DOUBLE
Compression type for matrix containers    ... UNCOMPRESSED
Overall scaling of the MP2 energy         ...   1.000e+00
Calculating two index integrals           ... done (    0.043 sec)
Cholesky decomposition of V**-1           ... done (    0.451 sec)

-----------------
RI-TRANSFORMATION (AUX index driven)
-----------------

Dimension of the orbital-basis         ... 1100
Dimension of the aux-basis             ... 2144
Transformation of internal/external MOs...    8-  28 to   29-1099
Number Format for Storage              ... Double (8 Byte)
Integral mode                          ... Direct

First Phase: integral generation and transformation of MO indices
  Aux angular momentum 0               ... done (    2.282 sec)
  Aux angular momentum 1               ... done (    0.416 sec)
  Aux angular momentum 2               ... done (    0.502 sec)
  Aux angular momentum 3               ... done (    0.596 sec)
  Aux angular momentum 4               ... done (    0.644 sec)
  Aux angular momentum 5               ... done (    0.248 sec)
Closing buffer VIA ( 0.36 GB; CompressionRatio= 1.00)
  Phase 1 completed in     4.942 sec
Second Phase: sorting and transformation of aux index

IA-Transformation
Memory available                       ... 3705 MB 
Max. # MO pairs treated in a batch     ... 2    
# of internal orbitals                 ... 21
# batches for internal orbitals        ... 1
Closing buffer IAV ( 0.36 GB; CompressionRatio= 1.00)
(ia|v) transformation done in     2.089 sec

  Phase 2 completed in     2.508 sec
RI-Integral transformation completed in     7.540 sec
Opening buffers                              ... done

Starting loop over batches of integrals:

Operator 0  - window                       ... (  8- 28)x( 29-1099)
Operator 0  - Memory available             ...  3800 MB
Operator 0  - Memory needed per MO         ...  17.5 MB
Operator 0  - Number of orbitals per batch ... 2
Operator 0  - Number of batches            ... 1

OPERATOR  0   PASS   0:  MOs     8 ...    9 +   10 ...   11 +   12 ...   13 +   14 ...   15
                            +   16 ...   17 +   18 ...   19 +   20 ...   21 +   22 ...   23
                            +   24 ...   25 +   26 ...   27 +   28 ...   28
  Reading integrals       ... ok
Time spent in pair loops =     0.392 sec
Deleting buffer (Ka|jb)[aa] ...done

-----------------------------------------------
 RI-MP2 CORRELATION ENERGY:     -1.318617011 Eh
-----------------------------------------------


-------
TIMINGS
-------

Total time                :   13.059 sec
Integral trafo            :    7.554 sec ( 57.8%)
I/O of integrals          :    0.016 sec (  0.1%)
K(i,j) Operators          :    0.335 sec (  2.6%)
T(i,j) pair energies      :    0.015 sec (  0.1%)
V-calculation             :    0.043 sec (  0.3%)
V**(-1/2)                 :    0.451 sec (  3.5%)
Gamma(ia|P)               :    0.000 sec (  0.0%)
Gamma-Trafo               :    0.000 sec (  0.0%)
D(virtual)                :    0.000 sec (  0.0%)
D(internal)               :    0.000 sec (  0.0%)
W(virtual)                :    0.000 sec (  0.0%)
W(internal)               :    0.000 sec (  0.0%)
L(virtual)                :    0.000 sec (  0.0%)
L(internal)               :    0.000 sec (  0.0%)
G(D)                      :    0.000 sec (  0.0%)
G(Z)                      :    0.000 sec (  0.0%)
Z-Vector Solution         :    0.000 sec (  0.0%)
3-Index Derivative        :    0.000 sec (  0.0%)
2-Index Derivative        :    0.000 sec (  0.0%)
Separable Gradient        :    0.000 sec (  0.0%)


---------------------------------------
MP2 TOTAL ENERGY:     -331.547906637 Eh
---------------------------------------

Maximum memory used throughout the entire MP2-calculation: 269.0 MB

-------------------------   --------------------
FINAL SINGLE POINT ENERGY      -331.547906637332
-------------------------   --------------------


                            ***************************************
                            *     ORCA property calculations      *
                            ***************************************


  WARNING: The energy has been calculated at the MP2 level but the densities
           used in the property calculations are still SCF densities
           MP2 response densities have not been calculated 
           use %mp2 Density relaxed end
           or  %mp2 Density unrelaxed end

                                    ---------------------
                                    Active property flags
                                    ---------------------
   (+) Dipole Moment


------------------------------------------------------------------------------
                       ORCA ELECTRIC PROPERTIES CALCULATION
------------------------------------------------------------------------------

Dipole Moment Calculation                       ... on
Quadrupole Moment Calculation                   ... off
Polarizability Calculation                      ... off
GBWName                                         ... QZ_B-B_70_AB.gbw
Electron density                                ... QZ_B-B_70_AB.scfp
The origin for moment calculation is the CENTER OF MASS  = (-0.024790,  0.026213 -0.007149)

-------------
DIPOLE MOMENT
-------------
                                X             Y             Z
Electronic contribution:     -0.14616       1.50719      -0.22187
Nuclear contribution   :      1.43781      -1.52035       0.41464
                        -----------------------------------------
Total Dipole Moment    :      1.29165      -0.01316       0.19276
                        -----------------------------------------
Magnitude (a.u.)       :      1.30602
Magnitude (Debye)      :      3.31963



--------------------
Rotational spectrum 
--------------------
 
Rotational constants in cm-1:     0.139412     0.033928     0.028768 
Rotational constants in MHz :  4179.469124  1017.127251   862.435064 

 Dipole components along the rotational axes: 
x,y,z [a.u.] :     1.290586     0.004566     0.200125 
x,y,z [Debye]:     3.280409     0.011607     0.508677 

 

Timings for individual modules:

Sum of individual times         ...     6577.366 sec (= 109.623 min)
GTO integral calculation        ...        5.526 sec (=   0.092 min)   0.1 %
SCF iterations                  ...     6557.066 sec (= 109.284 min)  99.7 %
MP2 module                      ...       14.773 sec (=   0.246 min)   0.2 %



                             ****ORCA TERMINATED NORMALLY****
TOTAL RUN TIME: 0 days 2 hours 2 minutes 53 seconds 75 msec
