
                                 *****************
                                 * O   R   C   A *
                                 *****************

                                            #,                                       
                                            ###                                      
                                            ####                                     
                                            #####                                    
                                            ######                                   
                                           ########,                                 
                                     ,,################,,,,,                         
                               ,,#################################,,                 
                          ,,##########################################,,             
                       ,#########################################, ''#####,          
                    ,#############################################,,   '####,        
                  ,##################################################,,,,####,       
                ,###########''''           ''''###############################       
              ,#####''   ,,,,##########,,,,          '''####'''          '####       
            ,##' ,,,,###########################,,,                        '##       
           ' ,,###''''                  '''############,,,                           
         ,,##''                                '''############,,,,        ,,,,,,###''
      ,#''                                            '''#######################'''  
     '                                                          ''''####''''         
             ,#######,   #######,   ,#######,      ##                                
            ,#'     '#,  ##    ##  ,#'     '#,    #''#        ######   ,####,        
            ##       ##  ##   ,#'  ##            #'  '#       #        #'  '#        
            ##       ##  #######   ##           ,######,      #####,   #    #        
            '#,     ,#'  ##    ##  '#,     ,#' ,#      #,         ##   #,  ,#        
             '#######'   ##     ##  '#######'  #'      '#     #####' # '####'        



                  #######################################################
                  #                        -***-                        #
                  #          Department of theory and spectroscopy      #
                  #    Directorship and core code : Frank Neese         #
                  #        Max Planck Institute fuer Kohlenforschung    #
                  #                Kaiser Wilhelm Platz 1               #
                  #                 D-45470 Muelheim/Ruhr               #
                  #                      Germany                        #
                  #                                                     #
                  #                  All rights reserved                #
                  #                        -***-                        #
                  #######################################################


                         Program Version 5.0.4 -  RELEASE  -


 With contributions from (in alphabetic order):
   Daniel Aravena         : Magnetic Suceptibility
   Michael Atanasov       : Ab Initio Ligand Field Theory (pilot matlab implementation)
   Alexander A. Auer      : GIAO ZORA, VPT2 properties, NMR spectrum
   Ute Becker             : Parallelization
   Giovanni Bistoni       : ED, misc. LED, open-shell LED, HFLD
   Martin Brehm           : Molecular dynamics
   Dmytro Bykov           : SCF Hessian
   Vijay G. Chilkuri      : MRCI spin determinant printing, contributions to CSF-ICE
   Dipayan Datta          : RHF DLPNO-CCSD density
   Achintya Kumar Dutta   : EOM-CC, STEOM-CC
   Dmitry Ganyushin       : Spin-Orbit,Spin-Spin,Magnetic field MRCI
   Miquel Garcia          : C-PCM and meta-GGA Hessian, CC/C-PCM, Gaussian charge scheme
   Yang Guo               : DLPNO-NEVPT2, F12-NEVPT2, CIM, IAO-localization
   Andreas Hansen         : Spin unrestricted coupled pair/coupled cluster methods
   Benjamin Helmich-Paris : MC-RPA, TRAH-SCF, COSX integrals
   Lee Huntington         : MR-EOM, pCC
   Robert Izsak           : Overlap fitted RIJCOSX, COSX-SCS-MP3, EOM
   Marcus Kettner         : VPT2
   Christian Kollmar      : KDIIS, OOCD, Brueckner-CCSD(T), CCSD density, CASPT2, CASPT2-K
   Simone Kossmann        : Meta GGA functionals, TD-DFT gradient, OOMP2, MP2 Hessian
   Martin Krupicka        : Initial AUTO-CI
   Lucas Lang             : DCDCAS
   Marvin Lechner         : AUTO-CI (C++ implementation), FIC-MRCC
   Dagmar Lenk            : GEPOL surface, SMD
   Dimitrios Liakos       : Extrapolation schemes; Compound Job, initial MDCI parallelization
   Dimitrios Manganas     : Further ROCIS development; embedding schemes
   Dimitrios Pantazis     : SARC Basis sets
   Anastasios Papadopoulos: AUTO-CI, single reference methods and gradients
   Taras Petrenko         : DFT Hessian,TD-DFT gradient, ASA, ECA, R-Raman, ABS, FL, XAS/XES, NRVS
   Peter Pinski           : DLPNO-MP2, DLPNO-MP2 Gradient
   Christoph Reimann      : Effective Core Potentials
   Marius Retegan         : Local ZFS, SOC
   Christoph Riplinger    : Optimizer, TS searches, QM/MM, DLPNO-CCSD(T), (RO)-DLPNO pert. Triples
   Tobias Risthaus        : Range-separated hybrids, TD-DFT gradient, RPA, STAB
   Michael Roemelt        : Original ROCIS implementation
   Masaaki Saitow         : Open-shell DLPNO-CCSD energy and density
   Barbara Sandhoefer     : DKH picture change effects
   Avijit Sen             : IP-ROCIS
   Kantharuban Sivalingam : CASSCF convergence, NEVPT2, FIC-MRCI
   Bernardo de Souza      : ESD, SOC TD-DFT
   Georgi Stoychev        : AutoAux, RI-MP2 NMR, DLPNO-MP2 response
   Willem Van den Heuvel  : Paramagnetic NMR
   Boris Wezisla          : Elementary symmetry handling
   Frank Wennmohs         : Technical directorship


 We gratefully acknowledge several colleagues who have allowed us to
 interface, adapt or use parts of their codes:
   Stefan Grimme, W. Hujo, H. Kruse, P. Pracht,  : VdW corrections, initial TS optimization,
                  C. Bannwarth, S. Ehlert          DFT functionals, gCP, sTDA/sTD-DF
   Ed Valeev, F. Pavosevic, A. Kumar             : LibInt (2-el integral package), F12 methods
   Garnet Chan, S. Sharma, J. Yang, R. Olivares  : DMRG
   Ulf Ekstrom                                   : XCFun DFT Library
   Mihaly Kallay                                 : mrcc  (arbitrary order and MRCC methods)
   Jiri Pittner, Ondrej Demel                    : Mk-CCSD
   Frank Weinhold                                : gennbo (NPA and NBO analysis)
   Christopher J. Cramer and Donald G. Truhlar   : smd solvation model
   Lars Goerigk                                  : TD-DFT with DH, B97 family of functionals
   V. Asgeirsson, H. Jonsson                     : NEB implementation
   FAccTs GmbH                                   : IRC, NEB, NEB-TS, DLPNO-Multilevel, CI-OPT
                                                   MM, QMMM, 2- and 3-layer-ONIOM, Crystal-QMMM,
                                                   LR-CPCM, SF, NACMEs, symmetry and pop. for TD-DFT,
                                                   nearIR, NL-DFT gradient (VV10), updates on ESD,
                                                   ML-optimized integration grids
   S Lehtola, MJT Oliveira, MAL Marques          : LibXC Library
   Liviu Ungur et al                             : ANISO software


 Your calculation uses the libint2 library for the computation of 2-el integrals
 For citations please refer to: http://libint.valeyev.net

 Your ORCA version has been built with support for libXC version: 5.1.0
 For citations please refer to: https://tddft.org/programs/libxc/

 This ORCA versions uses:
   CBLAS   interface :  Fast vector & matrix operations
   LAPACKE interface :  Fast linear algebra routines
   SCALAPACK package :  Parallel linear algebra routines
   Shared memory     :  Shared parallel matrices
   BLAS/LAPACK       :  OpenBLAS 0.3.15  USE64BITINT DYNAMIC_ARCH NO_AFFINITY Zen SINGLE_THREADED
        Core in use  :  Zen
   Copyright (c) 2011-2014, The OpenBLAS Project


================================================================================

----- Orbital basis set information -----
Your calculation utilizes the basis: aug-cc-pVDZ 
    H, B-Ne : Obtained from the ccRepo (grant-hill.group.shef.ac.uk/ccrepo) Feb. 2017
              R. A. Kendall, T. H. Dunning, Jr., R. J. Harrison, J. Chem. Phys. 96, 6796 (1992)
         He : Obtained from the ccRepo (grant-hill.group.shef.ac.uk/ccrepo) Feb. 2017
              D. E. Woon, T. H. Dunning, Jr., J. Chem. Phys. 100, 2975 (1994)
  Li-Be, Na : Obtained from the ccRepo (grant-hill.group.shef.ac.uk/ccrepo) Feb. 2017
              B. P. Prascher, D. E. Woon, K. A. Peterson, T. H. Dunning, Jr., A. K. Wilson, Theor. Chem. Acc. 128, 69 (2011)
         Mg : Obtained from the Peterson Research Group Website (tyr0.chem.wsu.edu/~kipeters) Feb. 2017
              B. P. Prascher, D. E. Woon, K. A. Peterson, T. H. Dunning, Jr., A. K. Wilson, Theor. Chem. Acc. 128, 69 (2011)
      Al-Ar : Obtained from the ccRepo (grant-hill.group.shef.ac.uk/ccrepo) Feb. 2017
              D. E. Woon, T. H. Dunning, Jr., J. Chem. Phys. 98, 1358 (1993)
      Sc-Zn : Obtained from the ccRepo (grant-hill.group.shef.ac.uk/ccrepo) Feb. 2017
              N. B. Balabanov, K. A. Peterson, J. Chem. Phys. 123, 064107 (2005)
              N. B. Balabanov, K. A. Peterson, J. Chem. Phys. 125, 074110 (2006)
      Ga-Kr : Obtained from the ccRepo (grant-hill.group.shef.ac.uk/ccrepo) Feb. 2017
              A. K. Wilson, D. E. Woon, K. A. Peterson, T. H. Dunning, Jr., J. Chem. Phys. 110, 7667 (1999)

----- AuxC basis set information -----
Your calculation utilizes the auxiliary basis: aug-cc-pVDZ/C 
  H-He, B, Ne, Al-Ar, Ga-Ge, Se-Br : Obtained from the EMSL Basis Set Exchange (bse.pnl.gov) Feb. 2017
                                     F. Weigend, A. Kohn, C. Hattig, J. Chem. Phys. 116, 3175 (2002)
                            Be, Mg : Obtained from the TURBOMOLE 7.0 basis set library
                                     C. Haettig, Phys. Chem. Chem. Phys. 7, 59 (2005)
                               C-F : Obtained from the EMSL Basis Set Exchange (bse.pnl.gov) Feb. 2017
                                     C. Haettig, Phys. Chem. Chem. Phys. 7, 59 (2005)
                                     F. Weigend, A. Kohn, C. Hattig, J. Chem. Phys. 116, 3175 (2002)
                                As : Obtained from the EMSL Basis Set Exchange (bse.pnl.gov) Feb. 2017
                                     C. Haettig, G. Schmitz, J. Kossmann, Phys. Chem. Chem. Phys. 14, 6549 (2012)
                                Kr : Obtained from the TURBOMOLE 7.0 basis set library
                                     F. Weigend, A. Kohn, C. Hattig, J. Chem. Phys. 116, 3175 (2002)
                                     S function revised in Sep. 2009

================================================================================
                                        WARNINGS
                       Please study these warnings very carefully!
================================================================================


WARNING: your system is open-shell and RHF/RKS was chosen
  ===> : WILL SWITCH to UHF/UKS


WARNING: No MP2 level density has been requested!
         To caclulate MP2 level properties use
         %mp2 Density relaxed end
         or
         %mp2 Density unrelaxed end

WARNING: Post HF methods need fully converged wavefunctions
  ===> : Setting SCFConvForced true
         You can overwrite this default with %scf ConvForced false 


INFO   : the flag for use of the SHARK integral package has been found!

================================================================================

----- Orbital basis set information -----
Your calculation utilizes the basis: aug-cc-pVTZ 
    H, B-Ne : Obtained from the ccRepo (grant-hill.group.shef.ac.uk/ccrepo) Feb. 2017
              R. A. Kendall, T. H. Dunning, Jr., R. J. Harrison, J. Chem. Phys. 96, 6796 (1992)
         He : Obtained from the ccRepo (grant-hill.group.shef.ac.uk/ccrepo) Feb. 2017
              D. E. Woon, T. H. Dunning, Jr., J. Chem. Phys. 100, 2975 (1994)
  Li-Be, Na : Obtained from the ccRepo (grant-hill.group.shef.ac.uk/ccrepo) Feb. 2017
              B. P. Prascher, D. E. Woon, K. A. Peterson, T. H. Dunning, Jr., A. K. Wilson, Theor. Chem. Acc. 128, 69 (2011)
         Mg : Obtained from the Peterson Research Group Website (tyr0.chem.wsu.edu/~kipeters) Feb. 2017
              B. P. Prascher, D. E. Woon, K. A. Peterson, T. H. Dunning, Jr., A. K. Wilson, Theor. Chem. Acc. 128, 69 (2011)
      Al-Ar : Obtained from the ccRepo (grant-hill.group.shef.ac.uk/ccrepo) Feb. 2017
              D. E. Woon, T. H. Dunning, Jr., J. Chem. Phys. 98, 1358 (1993)
      Sc-Zn : Obtained from the ccRepo (grant-hill.group.shef.ac.uk/ccrepo) Feb. 2017
              N. B. Balabanov, K. A. Peterson, J. Chem. Phys. 123, 064107 (2005)
              N. B. Balabanov, K. A. Peterson, J. Chem. Phys. 125, 074110 (2006)
      Ga-Kr : Obtained from the ccRepo (grant-hill.group.shef.ac.uk/ccrepo) Feb. 2017
              A. K. Wilson, D. E. Woon, K. A. Peterson, T. H. Dunning, Jr., J. Chem. Phys. 110, 7667 (1999)
     Ag, Au : Obtained from the Peterson Research Group Website (tyr0.chem.wsu.edu/~kipeters) Feb. 2017
              K. A. Peterson, C. Puzzarini, Theor. Chem. Acc. 114, 283 (2005)

----- AuxC basis set information -----
Your calculation utilizes the auxiliary basis: aug-cc-pVTZ/C 
  H-He, B-F, Al-Ar, Ga-Kr : Obtained from the EMSL Basis Set Exchange (bse.pnl.gov) Feb. 2017
                            F. Weigend, A. Kohn, C. Hattig, J. Chem. Phys. 116, 3175 (2002)
                   Be, Mg : Obtained from the TURBOMOLE 7.0 basis set library
                            C. Haettig, Phys. Chem. Chem. Phys. 7, 59 (2005)
                       Ne : Obtained from the EMSL Basis Set Exchange (bse.pnl.gov) Feb. 2017
                            C. Haettig, Phys. Chem. Chem. Phys. 7, 59 (2005)
                            F. Weigend, A. Kohn, C. Hattig, J. Chem. Phys. 116, 3175 (2002)
                    Sc-Zn : Obtained from the EMSL Basis Set Exchange (bse.pnl.gov) Feb. 2017
                            J. G. Hill, J. A. Platts, J. Chem. Phys. 128, 044104 (2008)

================================================================================
                                        WARNINGS
                       Please study these warnings very carefully!
================================================================================


WARNING: No MP2 level density has been requested!
         To caclulate MP2 level properties use
         %mp2 Density relaxed end
         or
         %mp2 Density unrelaxed end

INFO   : the flag for use of the SHARK integral package has been found!

================================================================================

----- Orbital basis set information -----
Your calculation utilizes the basis: aug-cc-pVQZ 
    H, B-Ne : Obtained from the ccRepo (grant-hill.group.shef.ac.uk/ccrepo) Feb. 2017
              R. A. Kendall, T. H. Dunning, Jr., R. J. Harrison, J. Chem. Phys. 96, 6796 (1992)
         He : Obtained from the ccRepo (grant-hill.group.shef.ac.uk/ccrepo) Feb. 2017
              D. E. Woon, T. H. Dunning, Jr., J. Chem. Phys. 100, 2975 (1994)
  Li-Be, Na : Obtained from the ccRepo (grant-hill.group.shef.ac.uk/ccrepo) Feb. 2017
              B. P. Prascher, D. E. Woon, K. A. Peterson, T. H. Dunning, Jr., A. K. Wilson, Theor. Chem. Acc. 128, 69 (2011)
         Mg : Obtained from the Peterson Research Group Website (tyr0.chem.wsu.edu/~kipeters) Feb. 2017
              B. P. Prascher, D. E. Woon, K. A. Peterson, T. H. Dunning, Jr., A. K. Wilson, Theor. Chem. Acc. 128, 69 (2011)
      Al-Ar : Obtained from the ccRepo (grant-hill.group.shef.ac.uk/ccrepo) Feb. 2017
              D. E. Woon, T. H. Dunning, Jr., J. Chem. Phys. 98, 1358 (1993)
      Sc-Zn : Obtained from the ccRepo (grant-hill.group.shef.ac.uk/ccrepo) Feb. 2017
              N. B. Balabanov, K. A. Peterson, J. Chem. Phys. 123, 064107 (2005)
              N. B. Balabanov, K. A. Peterson, J. Chem. Phys. 125, 074110 (2006)
      Ga-Kr : Obtained from the ccRepo (grant-hill.group.shef.ac.uk/ccrepo) Feb. 2017
              A. K. Wilson, D. E. Woon, K. A. Peterson, T. H. Dunning, Jr., J. Chem. Phys. 110, 7667 (1999)

----- AuxC basis set information -----
Your calculation utilizes the auxiliary basis: aug-cc-pVQZ/C 
  H-He, B-F, Al-Ar, Ga-Kr : Obtained from the EMSL Basis Set Exchange (bse.pnl.gov) Feb. 2017
                            F. Weigend, A. Kohn, C. Hattig, J. Chem. Phys. 116, 3175 (2002)
                   Be, Mg : Obtained from the TURBOMOLE 7.0 basis set library
                            C. Haettig, Phys. Chem. Chem. Phys. 7, 59 (2005)
                       Ne : Obtained from the EMSL Basis Set Exchange (bse.pnl.gov) Feb. 2017
                            C. Haettig, Phys. Chem. Chem. Phys. 7, 59 (2005)
                            F. Weigend, A. Kohn, C. Hattig, J. Chem. Phys. 116, 3175 (2002)
                    Sc-Zn : Obtained from the EMSL Basis Set Exchange (bse.pnl.gov) Feb. 2017
                            D. H. Bross, J. G. Hill, H. J. Werner, K. A. Peterson, J. Chem. Phys. 139, 094302 (2013)

================================================================================
                                        WARNINGS
                       Please study these warnings very carefully!
================================================================================


WARNING: No MP2 level density has been requested!
         To caclulate MP2 level properties use
         %mp2 Density relaxed end
         or
         %mp2 Density unrelaxed end

INFO   : the flag for use of the SHARK integral package has been found!

================================================================================
                                       INPUT FILE
================================================================================
NAME = B-Si_68_A.inp
|  1> ! ri-mp2 aug-cc-pvdz aug-cc-pvdz/c tightscf
|  2> %pal nprocs 16 end
|  3> %maxcore 3800
|  4> %base "DZ_B-Si_68_A"
|  5> %scf
|  6> STABPerform true 
|  7> STABRestartUHFifUnstable true
|  8> end
|  9> 
| 10> *xyz 0 2
| 11> Si        -0.000007   -0.000002    0.536113
| 12> Cl         0.975764   -1.661129   -0.147172
| 13> Cl         0.950708    1.675597   -0.147164
| 14> Cl        -1.926466   -0.014466   -0.147168
| 15> *
| 16> 
| 17> $new_job
| 18> ! ri-mp2 aug-cc-pvtz aug-cc-pvtz/c tightscf
| 19> %pal nprocs 16 end
| 20> %maxcore 3800
| 21> %base "TZ_B-Si_68_A"
| 22> 
| 23> *xyz 0 2
| 24> Si        -0.000007   -0.000002    0.536113
| 25> Cl         0.975764   -1.661129   -0.147172
| 26> Cl         0.950708    1.675597   -0.147164
| 27> Cl        -1.926466   -0.014466   -0.147168
| 28> *
| 29> 
| 30> $new_job
| 31> ! ri-mp2 aug-cc-pvqz aug-cc-pvqz/c tightscf
| 32> %pal nprocs 16 end
| 33> %maxcore 3800
| 34> %base "QZ_B-Si_68_A"
| 35> 
| 36> *xyz 0 2
| 37> Si        -0.000007   -0.000002    0.536113
| 38> Cl         0.975764   -1.661129   -0.147172
| 39> Cl         0.950708    1.675597   -0.147164
| 40> Cl        -1.926466   -0.014466   -0.147168
| 41> *
| 42> 
| 43> 
| 44> 
| 45> 
| 46>                          ****END OF INPUT****
================================================================================


                 $$$$$$$$$$$$$$$$$$$$$$$$$$$$$$$$$$$$$$$$$$$$$$ 
                 $ THERE ARE  3 JOBS TO BE PROCESSED THIS RUN $
                 $$$$$$$$$$$$$$$$$$$$$$$$$$$$$$$$$$$$$$$$$$$$$$ 




                 $$$$$$$$$$$$$$$$  JOB NUMBER  1 $$$$$$$$$$$$$$


                       ****************************
                       * Single Point Calculation *
                       ****************************

---------------------------------
CARTESIAN COORDINATES (ANGSTROEM)
---------------------------------
  Si    -0.000007   -0.000002    0.536113
  Cl     0.975764   -1.661129   -0.147172
  Cl     0.950708    1.675597   -0.147164
  Cl    -1.926466   -0.014466   -0.147168

----------------------------
CARTESIAN COORDINATES (A.U.)
----------------------------
  NO LB      ZA    FRAG     MASS         X           Y           Z
   0 Si   14.0000    0    28.086   -0.000013   -0.000004    1.013107
   1 Cl   17.0000    0    35.453    1.843927   -3.139079   -0.278115
   2 Cl   17.0000    0    35.453    1.796578    3.166419   -0.278100
   3 Cl   17.0000    0    35.453   -3.640493   -0.027337   -0.278107

--------------------------------
INTERNAL COORDINATES (ANGSTROEM)
--------------------------------
 Si     0   0   0     0.000000000000     0.00000000     0.00000000
 Cl     1   0   0     2.044101354091     0.00000000     0.00000000
 Cl     1   2   0     2.044103343463   109.41370634     0.00000000
 Cl     1   2   3     2.044095499466   109.41452442   119.86084131

---------------------------
INTERNAL COORDINATES (A.U.)
---------------------------
 Si     0   0   0     0.000000000000     0.00000000     0.00000000
 Cl     1   0   0     3.862791749209     0.00000000     0.00000000
 Cl     1   2   0     3.862795508577   109.41370634     0.00000000
 Cl     1   2   3     3.862780685572   109.41452442   119.86084131

---------------------
BASIS SET INFORMATION
---------------------
There are 2 groups of distinct atoms

 Group   1 Type Si  : 35s16p2d contracted to 5s4p2d pattern {11111111/7711/11}
 Group   2 Type Cl  : 35s16p2d contracted to 5s4p2d pattern {11111111/7711/11}

Atom   0Si   basis set group =>   1
Atom   1Cl   basis set group =>   2
Atom   2Cl   basis set group =>   2
Atom   3Cl   basis set group =>   2
---------------------------------
AUXILIARY/C BASIS SET INFORMATION
---------------------------------
There are 2 groups of distinct atoms

 Group   1 Type Si  : 10s8p6d4f contracted to 10s8p6d4f pattern {1111111111/11111111/111111/1111}
 Group   2 Type Cl  : 10s8p6d4f contracted to 10s8p6d4f pattern {1111111111/11111111/111111/1111}

Atom   0Si   basis set group =>   1
Atom   1Cl   basis set group =>   2
Atom   2Cl   basis set group =>   2
Atom   3Cl   basis set group =>   2


           ************************************************************
           *        Program running with 16 parallel MPI-processes    *
           *              working on a common directory               *
           ************************************************************
------------------------------------------------------------------------------
                           ORCA GTO INTEGRAL CALCULATION
------------------------------------------------------------------------------
------------------------------------------------------------------------------
                   ___                                                        
                  /   \      - P O W E R E D   B Y -                         
                 /     \                                                     
                 |  |  |   _    _      __       _____    __    __             
                 |  |  |  | |  | |    /  \     |  _  \  |  |  /  |          
                  \  \/   | |  | |   /    \    | | | |  |  | /  /          
                 / \  \   | |__| |  /  /\  \   | |_| |  |  |/  /          
                |  |  |   |  __  | /  /__\  \  |    /   |      \           
                |  |  |   | |  | | |   __   |  |    \   |  |\   \          
                \     /   | |  | | |  |  |  |  | |\  \  |  | \   \       
                 \___/    |_|  |_| |__|  |__|  |_| \__\ |__|  \__/        
                                                                              
                      - O R C A' S   B I G   F R I E N D -                    
                                      &                                       
                       - I N T E G R A L  F E E D E R -                       
                                                                              
 v1 FN, 2020, v2 2021                                                         
------------------------------------------------------------------------------


Reading SHARK input file DZ_B-Si_68_A.SHARKINP.tmp ... ok
----------------------
SHARK INTEGRAL PACKAGE
----------------------

Number of atoms                             ...      4
Number of basis functions                   ...    200
Number of shells                            ...     96
Maximum angular momentum                    ...      2
Integral batch strategy                     ... SHARK/LIBINT Hybrid
RI-J (if used) integral strategy            ... SPLIT-RIJ (Revised 2003 algorithm where possible)
Printlevel                                  ...      1
Contraction scheme used                     ... PARTIAL GENERAL contraction
Coulomb Range Separation                    ... NOT USED
Exchange Range Separation                   ... NOT USED
Finite Nucleus Model                        ... NOT USED
Auxiliary Coulomb fitting basis             ... NOT available
Auxiliary J/K fitting basis                 ... NOT available
Auxiliary Correlation fitting basis         ... AVAILABLE
   # of basis functions in Aux-C            ...    368
   # of shells in Aux-C                     ...    112
   Maximum angular momentum in Aux-C        ...      3
Auxiliary 'external' fitting basis          ... NOT available
Integral threshold                          ...     2.500000e-11
Primitive cut-off                           ...     2.500000e-12
Primitive pair pre-selection threshold      ...     2.500000e-12

Calculating pre-screening integrals         ... done (  0.0 sec) Dimension = 96
Calculating pre-screening integrals (ORCA)  ... done (  0.1 sec) Dimension = 44
Organizing shell pair data                  ... done (  0.6 sec)
Shell pair information
Total number of shell pairs                 ...      4656
Shell pairs after pre-screening             ...      3258
Total number of primitive shell pairs       ...      4656
Primitive shell pairs kept                  ...      3258
          la=0 lb=0:    802 shell pairs
          la=1 lb=0:   1230 shell pairs
          la=1 lb=1:    486 shell pairs
          la=2 lb=0:    416 shell pairs
          la=2 lb=1:    288 shell pairs
          la=2 lb=2:     36 shell pairs

Calculating one electron integrals          ... done (  0.0 sec)
Calculating RI/C V-Matrix + Cholesky decomp.... done (  0.9 sec)
Calculating Nuclear repulsion               ... done (  0.0 sec) ENN=    322.335394688655 Eh

SHARK setup successfully completed in   4.5 seconds

Maximum memory used throughout the entire GTOINT-calculation: 27.3 MB


           ************************************************************
           *        Program running with 16 parallel MPI-processes    *
           *              working on a common directory               *
           ************************************************************
-------------------------------------------------------------------------------
                                 ORCA SCF
-------------------------------------------------------------------------------

------------
SCF SETTINGS
------------
Hamiltonian:
 Ab initio Hamiltonian  Method          .... Hartree-Fock(GTOs)


General Settings:
 Integral files         IntName         .... DZ_B-Si_68_A
 Hartree-Fock type      HFTyp           .... UHF
 Total Charge           Charge          ....    0
 Multiplicity           Mult            ....    2
 Number of Electrons    NEL             ....   65
 Basis Dimension        Dim             ....  108
 Nuclear Repulsion      ENuc            ....    322.3353946887 Eh

Convergence Acceleration:
 DIIS                   CNVDIIS         .... on
   Start iteration      DIISMaxIt       ....    12
   Startup error        DIISStart       ....  0.200000
   # of expansion vecs  DIISMaxEq       ....     5
   Bias factor          DIISBfac        ....   1.050
   Max. coefficient     DIISMaxC        ....  10.000
 Trust-Rad. Augm. Hess. CNVTRAH         .... auto
   Auto Start mean grad. ratio tolernc. ....  1.125000
   Auto Start start iteration           ....    20
   Auto Start num. interpolation iter.  ....    10
   Max. Number of Micro iterations      ....    16
   Max. Number of Macro iterations      .... Maxiter - #DIIS iter
   Number of Davidson start vectors     ....     2
   Converg. threshold I  (grad. norm)   ....   1.000e-05
   Converg. threshold II (energy diff.) ....   1.000e-08
   Grad. Scal. Fac. for Micro threshold ....   0.100
   Minimum threshold for Micro iter.    ....   0.010
   NR start threshold (gradient norm)   ....   0.001
   Initial trust radius                 ....   0.400
   Minimum AH scaling param. (alpha)    ....   1.000
   Maximum AH scaling param. (alpha)    .... 1000.000
   Orbital update algorithm             .... Taylor
   White noise on init. David. guess    .... on
   Maximum white noise                  ....   0.010
   Quad. conv. algorithm                .... NR
 SOSCF                  CNVSOSCF        .... off
 Level Shifting         CNVShift        .... on
   Level shift para.    LevelShift      ....    0.2500
   Turn off err/grad.   ShiftErr        ....    0.0010
 Zerner damping         CNVZerner       .... off
 Static damping         CNVDamp         .... on
   Fraction old density DampFac         ....    0.7000
   Max. Damping (<1)    DampMax         ....    0.9800
   Min. Damping (>=0)   DampMin         ....    0.0000
   Turn off err/grad.   DampErr         ....    0.1000
 Fernandez-Rico         CNVRico         .... off

SCF Procedure:
 Maximum # iterations   MaxIter         ....   125
 SCF integral mode      SCFMode         .... Direct
   Integral package                     .... SHARK and LIBINT hybrid scheme
 Reset frequency        DirectResetFreq ....    20
 Integral Threshold     Thresh          ....  2.500e-11 Eh
 Primitive CutOff       TCut            ....  2.500e-12 Eh

Convergence Tolerance:
 Convergence Check Mode ConvCheckMode   .... Total+1el-Energy
 Convergence forced     ConvForced      .... 1
 Energy Change          TolE            ....  1.000e-08 Eh
 1-El. energy change                    ....  1.000e-05 Eh
 DIIS Error             TolErr          ....  5.000e-07


Diagonalization of the overlap matrix:
Smallest eigenvalue                        ... 1.983e-03
Time for diagonalization                   ...    0.002 sec
Threshold for overlap eigenvalues          ... 1.000e-08
Number of eigenvalues below threshold      ... 0
Time for construction of square roots      ...    0.399 sec
Total time needed                          ...    0.401 sec

Time for model grid setup =    0.086 sec

------------------------------
INITIAL GUESS: MODEL POTENTIAL
------------------------------
Loading Hartree-Fock densities                     ... done
Calculating cut-offs                               ... done
Initializing the effective Hamiltonian             ... done
Setting up the integral package (SHARK)            ... done
Starting the Coulomb interaction                   ... done (   0.0 sec)
Reading the grid                                   ... done
Mapping shells                                     ... done
Starting the XC term evaluation                    ... done (   0.0 sec)
Transforming the Hamiltonian                       ... done (   0.0 sec)
Diagonalizing the Hamiltonian                      ... done (   0.0 sec)
Back transforming the eigenvectors                 ... done (   0.0 sec)
Now organizing SCF variables                       ... done
                      ------------------
                      INITIAL GUESS DONE (   0.1 sec)
                      ------------------
--------------
SCF ITERATIONS
--------------
ITER       Energy         Delta-E        Max-DP      RMS-DP      [F,P]     Damp
               ***  Starting incremental Fock matrix formation  ***
  0  -1667.5017086485   0.000000000000 0.01287783  0.00077586  0.0504450 0.7000
  1  -1667.5187239103  -0.017015261825 0.01385491  0.00062153  0.0362690 0.7000
                               ***Turning on DIIS***
  2  -1667.5314155708  -0.012691660463 0.04629859  0.00155781  0.0257028 0.0000
  3  -1667.6081188266  -0.076703255843 0.03951543  0.00050240  0.0079704 0.0000
  4  -1667.5021334020   0.105985424672 0.02797000  0.00035427  0.0045942 0.0000
  5  -1667.5441535526  -0.042020150659 0.01770952  0.00022842  0.0023881 0.0000
  6  -1667.5640213919  -0.019867839305 0.00996668  0.00015323  0.0009932 0.0000
  7  -1667.5655906385  -0.001569246540 0.00192497  0.00004386  0.0004027 0.0000
  8  -1667.5676234439  -0.002032805393 0.00035870  0.00001076  0.0001448 0.0000
  9  -1667.5676888446  -0.000065400744 0.00014858  0.00000490  0.0000549 0.0000
 10  -1667.5673642608   0.000324583775 0.00006930  0.00000168  0.0000180 0.0000
 11  -1667.5675001768  -0.000135915929 0.00001983  0.00000039  0.0000060 0.0000
 12  -1667.5674674161   0.000032760633 0.00000597  0.00000014  0.0000020 0.0000
                            ***DIIS convergence achieved***

               *****************************************************
               *                     SUCCESS                       *
               *           SCF CONVERGED AFTER  13 CYCLES          *
               *****************************************************


------------------------------------------------------------------------------
                          SCF STABILITY ANALYSIS                              
------------------------------------------------------------------------------


                       ****Iteration    0****

   Memory handling for direct AO based CIS:
   Memory per vector needed      ...     1 MB
   Memory needed                 ...     3 MB
   Memory available              ...  3800 MB
   Number of vectors per batch   ...  3800
   Number of batches             ...     1
   Time for densities:     0.001
   Using LibInt in JK Direct
   Time for J+K (Direct):     0.871
   Time for Sigma-Completion:     0.079
   Lowest Energy          :     0.278391498283
   Maximum Energy change  :     0.290576021440 (vector 2)
   Maximum residual norm  :     0.010325994008

                       ****Iteration    1****
   Time for densities:     0.000
   Using LibInt in JK Direct
   Time for J+K (Direct):     0.668
   Time for Sigma-Completion:     0.069
   Lowest Energy          :     0.235366457907
   Maximum Energy change  :     0.043025040377 (vector 0)
   Maximum residual norm  :     0.008012496735

                       ****Iteration    2****
   Time for densities:     0.000
   Using LibInt in JK Direct
   Time for J+K (Direct):     0.659
   Time for Sigma-Completion:     0.087
   Lowest Energy          :     0.227105835918
   Maximum Energy change  :     0.010657265356 (vector 1)
   Maximum residual norm  :     0.001812404381

                       ****Iteration    3****
   Time for densities:     0.000
   Using LibInt in JK Direct
   Time for J+K (Direct):     0.666
   Time for Sigma-Completion:     0.097
   Lowest Energy          :     0.224023708307
   Maximum Energy change  :     0.005727382078 (vector 1)
   Maximum residual norm  :     0.000986573800

                       ****Iteration    4****
   Time for densities:     0.000
   Using LibInt in JK Direct
   Time for J+K (Direct):     0.661
   Time for Sigma-Completion:     0.101
   Lowest Energy          :     0.222659346301
   Maximum Energy change  :     0.004353628269 (vector 2)
   Maximum residual norm  :     0.002043363603

                       ****Iteration    5****
   Time for densities:     0.000
   Using LibInt in JK Direct
   Time for J+K (Direct):     0.661
   Time for Sigma-Completion:     0.012
   Lowest Energy          :     0.222255098656
   Maximum Energy change  :     0.005095793706 (vector 2)
   Maximum residual norm  :     0.001223430854

                       ****Iteration    6****
   Time for densities:     0.000
   Using LibInt in JK Direct
   Time for J+K (Direct):     0.667
   Time for Sigma-Completion:     0.012
   Lowest Energy          :     0.222188002348
   Maximum Energy change  :     0.004490480474 (vector 1)
   Maximum residual norm  :     0.001366461524

                       ****Iteration    7****
   Time for densities:     0.000
   Using LibInt in JK Direct
   Time for J+K (Direct):     0.659
   Time for Sigma-Completion:     0.013
   Lowest Energy          :     0.218368203334
   Maximum Energy change  :     0.004365595439 (vector 2)
   Maximum residual norm  :     0.002395984533

                       ****Iteration    8****
   Time for densities:     0.000
   Using LibInt in JK Direct
   Time for J+K (Direct):     0.659
   Time for Sigma-Completion:     0.020
   Lowest Energy          :     0.212718783447
   Maximum Energy change  :     0.005649419887 (vector 0)
   Maximum residual norm  :     0.001154142359

                       ****Iteration    9****
   Time for densities:     0.000
   Using LibInt in JK Direct
   Time for J+K (Direct):     0.653
   Time for Sigma-Completion:     0.021
   Lowest Energy          :     0.209128274355
   Maximum Energy change  :     0.003590509092 (vector 0)
   Maximum residual norm  :     0.000374080642

                       ****Iteration   10****
   Time for densities:     0.000
   Using LibInt in JK Direct
   Time for J+K (Direct):     0.601
   Time for Sigma-Completion:     0.007
   Lowest Energy          :     0.208074444317
   Maximum Energy change  :     0.001053830038 (vector 0)
   Maximum residual norm  :     0.000223699882

                       ****Iteration   11****
   Time for densities:     0.000
   Using LibInt in JK Direct
   Time for J+K (Direct):     0.593
   Time for Sigma-Completion:     0.009
   Lowest Energy          :     0.207671805728
   Maximum Energy change  :     0.000774638984 (vector 2)
   Maximum residual norm  :     0.000260022735

                       ****Iteration   12****
   Time for densities:     0.000
   Using LibInt in JK Direct
   Time for J+K (Direct):     0.592
   Time for Sigma-Completion:     0.010
   Lowest Energy          :     0.207469091450
   Maximum Energy change  :     0.000882066431 (vector 2)
   Maximum residual norm  :     0.000106533535

                       ****Iteration   13****
   Time for densities:     0.000
   Using LibInt in JK Direct
   Time for J+K (Direct):     0.592
   Time for Sigma-Completion:     0.009
   Lowest Energy          :     0.207435444650
   Maximum Energy change  :     0.000261899461 (vector 2)
   Maximum residual norm  :     0.000019886875

      *** CONVERGENCE OF RESIDUAL NORM REACHED ***

----------------------------- 
SCF STABILITY ANALYSIS RESULT 
----------------------------- 

UHF/UKS->UHF/UKS - singlet - internal

   Root    Eigenvalue (au) 
     0       0.207435 
     1       0.222177 
     2       0.228331 

Stability Analysis indicates a stable HF/KS wave function.


Total time for performing the stability analysis:    12.001sec


----------------
TOTAL SCF ENERGY
----------------

Total Energy       :        -1667.56746889 Eh          -45376.81774 eV

Components:
Nuclear Repulsion  :          322.33539469 Eh            8771.19201 eV
Electronic Energy  :        -1989.90286358 Eh          -54148.00975 eV
One Electron Energy:        -2948.75518871 Eh          -80239.70799 eV
Two Electron Energy:          958.85232513 Eh           26091.69824 eV

Virial components:
Potential Energy   :        -3335.21897826 Eh          -90755.92234 eV
Kinetic Energy     :         1667.65150937 Eh           45379.10460 eV
Virial Ratio       :            1.99994961


---------------
SCF CONVERGENCE
---------------

  Last Energy change         ...   -1.4706e-06  Tolerance :   1.0000e-08
  Last MAX-Density change    ...    3.0987e-06  Tolerance :   1.0000e-07
  Last RMS-Density change    ...    5.9986e-08  Tolerance :   5.0000e-09
  Last DIIS Error            ...    7.2704e-07  Tolerance :   5.0000e-07

             **** THE GBW FILE WAS UPDATED (DZ_B-Si_68_A.gbw) ****
             **** DENSITY DZ_B-Si_68_A.scfp WAS UPDATED ****
             **** ENERGY FILE WAS UPDATED (DZ_B-Si_68_A.en.tmp) ****
----------------------
UHF SPIN CONTAMINATION
----------------------

Expectation value of <S**2>     :     0.754914
Ideal value S*(S+1) for S=0.5   :     0.750000
Deviation                       :     0.004914

             **** THE GBW FILE WAS UPDATED (DZ_B-Si_68_A.gbw) ****
             **** DENSITY DZ_B-Si_68_A.scfp WAS UPDATED ****
----------------
ORBITAL ENERGIES
----------------
                 SPIN UP ORBITALS
  NO   OCC          E(Eh)            E(eV) 
   0   1.0000    -104.857274     -2853.3115 
   1   1.0000    -104.857273     -2853.3115 
   2   1.0000    -104.857273     -2853.3114 
   3   1.0000     -68.934015     -1875.7899 
   4   1.0000     -10.585698      -288.0515 
   5   1.0000     -10.585697      -288.0515 
   6   1.0000     -10.585687      -288.0512 
   7   1.0000      -8.054313      -219.1690 
   8   1.0000      -8.054311      -219.1690 
   9   1.0000      -8.054310      -219.1689 
  10   1.0000      -8.050199      -219.0571 
  11   1.0000      -8.050198      -219.0570 
  12   1.0000      -8.050197      -219.0570 
  13   1.0000      -8.049718      -219.0440 
  14   1.0000      -8.049716      -219.0439 
  15   1.0000      -8.049716      -219.0439 
  16   1.0000      -6.270611      -170.6320 
  17   1.0000      -4.379261      -119.1658 
  18   1.0000      -4.373162      -118.9998 
  19   1.0000      -4.373162      -118.9998 
  20   1.0000      -1.161843       -31.6154 
  21   1.0000      -1.119569       -30.4650 
  22   1.0000      -1.119567       -30.4650 
  23   1.0000      -0.726545       -19.7703 
  24   1.0000      -0.588764       -16.0211 
  25   1.0000      -0.588762       -16.0210 
  26   1.0000      -0.555918       -15.1273 
  27   1.0000      -0.513352       -13.9690 
  28   1.0000      -0.513352       -13.9690 
  29   1.0000      -0.485773       -13.2186 
  30   1.0000      -0.485772       -13.2185 
  31   1.0000      -0.470753       -12.8098 
  32   1.0000      -0.375628       -10.2214 
  33   0.0000       0.055284         1.5043 
  34   0.0000       0.055289         1.5045 
  35   0.0000       0.055289         1.5045 
  36   0.0000       0.058451         1.5905 
  37   0.0000       0.116887         3.1807 
  38   0.0000       0.125392         3.4121 
  39   0.0000       0.125393         3.4121 
  40   0.0000       0.128180         3.4880 
  41   0.0000       0.128181         3.4880 
  42   0.0000       0.148387         4.0378 
  43   0.0000       0.148388         4.0378 
  44   0.0000       0.168552         4.5865 
  45   0.0000       0.183747         5.0000 
  46   0.0000       0.184806         5.0288 
  47   0.0000       0.196730         5.3533 
  48   0.0000       0.196730         5.3533 
  49   0.0000       0.244996         6.6667 
  50   0.0000       0.266482         7.2513 
  51   0.0000       0.266483         7.2514 
  52   0.0000       0.282525         7.6879 
  53   0.0000       0.287938         7.8352 
  54   0.0000       0.287939         7.8352 
  55   0.0000       0.337567         9.1857 
  56   0.0000       0.337568         9.1857 
  57   0.0000       0.442189        12.0326 
  58   0.0000       0.445184        12.1141 
  59   0.0000       0.445185        12.1141 
  60   0.0000       0.470081        12.7916 
  61   0.0000       0.482022        13.1165 
  62   0.0000       0.482024        13.1165 
  63   0.0000       0.490729        13.3534 
  64   0.0000       0.523043        14.2327 
  65   0.0000       0.523044        14.2327 
  66   0.0000       0.548134        14.9155 
  67   0.0000       0.548135        14.9155 
  68   0.0000       0.586820        15.9682 
  69   0.0000       0.603464        16.4211 
  70   0.0000       0.638928        17.3861 
  71   0.0000       0.638929        17.3861 
  72   0.0000       0.642903        17.4943 
  73   0.0000       0.764942        20.8151 
  74   0.0000       0.764943        20.8152 
  75   0.0000       0.776516        21.1301 
  76   0.0000       0.817505        22.2454 
  77   0.0000       0.817506        22.2455 
  78   0.0000       0.849420        23.1139 
  79   0.0000       0.942131        25.6367 
  80   0.0000       0.942132        25.6367 
  81   0.0000       0.984407        26.7871 
  82   0.0000       0.984408        26.7871 
  83   0.0000       0.996096        27.1051 
  84   0.0000       1.046715        28.4826 
  85   0.0000       1.066078        29.0095 
  86   0.0000       1.066081        29.0095 
  87   0.0000       1.122610        30.5478 
  88   0.0000       1.179181        32.0871 
  89   0.0000       1.179181        32.0871 
  90   0.0000       1.381619        37.5958 
  91   0.0000       1.414754        38.4974 
  92   0.0000       1.417740        38.5787 
  93   0.0000       1.417741        38.5787 
  94   0.0000       1.426395        38.8142 
  95   0.0000       1.426397        38.8142 
  96   0.0000       1.434160        39.0255 
  97   0.0000       1.464428        39.8491 
  98   0.0000       1.464428        39.8491 
  99   0.0000       1.495036        40.6820 
 100   0.0000       1.495037        40.6820 
 101   0.0000       1.505894        40.9775 
 102   0.0000       1.552633        42.2493 
 103   0.0000       1.552635        42.2494 
 104   0.0000       1.564709        42.5779 
 105   0.0000       1.732833        47.1528 
 106   0.0000       1.791356        48.7453 
 107   0.0000       1.791360        48.7454 

                 SPIN DOWN ORBITALS
  NO   OCC          E(Eh)            E(eV) 
   0   1.0000    -104.855962     -2853.2758 
   1   1.0000    -104.855961     -2853.2757 
   2   1.0000    -104.855960     -2853.2757 
   3   1.0000     -68.927660     -1875.6170 
   4   1.0000     -10.584253      -288.0122 
   5   1.0000     -10.584252      -288.0121 
   6   1.0000     -10.584239      -288.0118 
   7   1.0000      -8.050773      -219.0727 
   8   1.0000      -8.050772      -219.0726 
   9   1.0000      -8.050770      -219.0726 
  10   1.0000      -8.048999      -219.0244 
  11   1.0000      -8.048997      -219.0243 
  12   1.0000      -8.048997      -219.0243 
  13   1.0000      -8.047866      -218.9936 
  14   1.0000      -8.047864      -218.9935 
  15   1.0000      -8.047863      -218.9935 
  16   1.0000      -6.259876      -170.3399 
  17   1.0000      -4.369135      -118.8902 
  18   1.0000      -4.369135      -118.8902 
  19   1.0000      -4.360224      -118.6477 
  20   1.0000      -1.149990       -31.2928 
  21   1.0000      -1.109042       -30.1786 
  22   1.0000      -1.109040       -30.1785 
  23   1.0000      -0.690334       -18.7849 
  24   1.0000      -0.575084       -15.6488 
  25   1.0000      -0.575083       -15.6488 
  26   1.0000      -0.526957       -14.3392 
  27   1.0000      -0.503175       -13.6921 
  28   1.0000      -0.503175       -13.6921 
  29   1.0000      -0.481492       -13.1021 
  30   1.0000      -0.481491       -13.1020 
  31   1.0000      -0.468726       -12.7547 
  32   0.0000       0.001270         0.0346 
  33   0.0000       0.057487         1.5643 
  34   0.0000       0.057487         1.5643 
  35   0.0000       0.058717         1.5978 
  36   0.0000       0.075445         2.0530 
  37   0.0000       0.119929         3.2634 
  38   0.0000       0.126671         3.4469 
  39   0.0000       0.126671         3.4469 
  40   0.0000       0.138657         3.7730 
  41   0.0000       0.138657         3.7731 
  42   0.0000       0.167958         4.5704 
  43   0.0000       0.167959         4.5704 
  44   0.0000       0.170078         4.6281 
  45   0.0000       0.185046         5.0354 
  46   0.0000       0.185762         5.0549 
  47   0.0000       0.199183         5.4200 
  48   0.0000       0.199183         5.4201 
  49   0.0000       0.252336         6.8664 
  50   0.0000       0.269274         7.3273 
  51   0.0000       0.269274         7.3273 
  52   0.0000       0.292164         7.9502 
  53   0.0000       0.294569         8.0156 
  54   0.0000       0.294570         8.0157 
  55   0.0000       0.351271         9.5586 
  56   0.0000       0.351271         9.5586 
  57   0.0000       0.448594        12.2069 
  58   0.0000       0.448595        12.2069 
  59   0.0000       0.463766        12.6197 
  60   0.0000       0.487628        13.2690 
  61   0.0000       0.487629        13.2691 
  62   0.0000       0.492997        13.4151 
  63   0.0000       0.506912        13.7938 
  64   0.0000       0.527252        14.3473 
  65   0.0000       0.527253        14.3473 
  66   0.0000       0.551411        15.0047 
  67   0.0000       0.551412        15.0047 
  68   0.0000       0.594624        16.1805 
  69   0.0000       0.604620        16.4526 
  70   0.0000       0.650915        17.7123 
  71   0.0000       0.650916        17.7123 
  72   0.0000       0.674897        18.3649 
  73   0.0000       0.783517        21.3206 
  74   0.0000       0.783518        21.3206 
  75   0.0000       0.805346        21.9146 
  76   0.0000       0.831768        22.6336 
  77   0.0000       0.831770        22.6336 
  78   0.0000       0.858747        23.3677 
  79   0.0000       0.948449        25.8086 
  80   0.0000       0.948451        25.8087 
  81   0.0000       0.991824        26.9889 
  82   0.0000       0.991825        26.9889 
  83   0.0000       0.996752        27.1230 
  84   0.0000       1.049250        28.5515 
  85   0.0000       1.070055        29.1177 
  86   0.0000       1.070058        29.1178 
  87   0.0000       1.127560        30.6825 
  88   0.0000       1.183365        32.2010 
  89   0.0000       1.183365        32.2010 
  90   0.0000       1.387453        37.7545 
  91   0.0000       1.419244        38.6196 
  92   0.0000       1.421142        38.6712 
  93   0.0000       1.421142        38.6712 
  94   0.0000       1.428204        38.8634 
  95   0.0000       1.428206        38.8634 
  96   0.0000       1.440494        39.1978 
  97   0.0000       1.469397        39.9843 
  98   0.0000       1.469397        39.9843 
  99   0.0000       1.503390        40.9093 
 100   0.0000       1.503391        40.9094 
 101   0.0000       1.509535        41.0765 
 102   0.0000       1.556873        42.3647 
 103   0.0000       1.556875        42.3647 
 104   0.0000       1.566915        42.6379 
 105   0.0000       1.738414        47.3047 
 106   0.0000       1.794411        48.8284 
 107   0.0000       1.794415        48.8285 

                    ********************************
                    * MULLIKEN POPULATION ANALYSIS *
                    ********************************

--------------------------------------------
MULLIKEN ATOMIC CHARGES AND SPIN POPULATIONS
--------------------------------------------
   0 Si:    1.356554    0.833734
   1 Cl:   -0.452185    0.055422
   2 Cl:   -0.452187    0.055422
   3 Cl:   -0.452182    0.055422
Sum of atomic charges         :   -0.0000000
Sum of atomic spin populations:    1.0000000

-----------------------------------------------------
MULLIKEN REDUCED ORBITAL CHARGES AND SPIN POPULATIONS
-----------------------------------------------------
CHARGE
  0 Sis       :     4.837989  s :     4.837989
      pz      :     2.623477  p :     7.425259
      px      :     2.400892
      py      :     2.400890
      dz2     :     0.069343  d :     0.380197
      dxz     :     0.057111
      dyz     :     0.057110
      dx2y2   :     0.098316
      dxy     :     0.098317
  1 Cls       :     6.040603  s :     6.040603
      pz      :     3.876838  p :    11.371475
      px      :     3.842823
      py      :     3.651815
      dz2     :     0.005915  d :     0.040107
      dxz     :     0.004173
      dyz     :     0.009362
      dx2y2   :     0.007688
      dxy     :     0.012969
  2 Cls       :     6.040603  s :     6.040603
      pz      :     3.876840  p :    11.371477
      px      :     3.847925
      py      :     3.646712
      dz2     :     0.005915  d :     0.040107
      dxz     :     0.004034
      dyz     :     0.009500
      dx2y2   :     0.007950
      dxy     :     0.012708
  3 Cls       :     6.040603  s :     6.040603
      pz      :     3.876838  p :    11.371471
      px      :     3.551200
      py      :     3.943433
      dz2     :     0.005915  d :     0.040107
      dxz     :     0.012095
      dyz     :     0.001440
      dx2y2   :     0.015348
      dxy     :     0.005310

SPIN
  0 Sis       :     0.337777  s :     0.337777
      pz      :     0.475756  p :     0.463098
      px      :    -0.006329
      py      :    -0.006329
      dz2     :     0.034247  d :     0.032859
      dxz     :    -0.000719
      dyz     :    -0.000720
      dx2y2   :     0.000025
      dxy     :     0.000025
  1 Cls       :     0.000193  s :     0.000193
      pz      :     0.035533  p :     0.056668
      px      :     0.004602
      py      :     0.016533
      dz2     :     0.000863  d :    -0.001439
      dxz     :    -0.000463
      dyz     :    -0.001420
      dx2y2   :    -0.000014
      dxy     :    -0.000405
  2 Cls       :     0.000193  s :     0.000193
      pz      :     0.035533  p :     0.056669
      px      :     0.004283
      py      :     0.016853
      dz2     :     0.000863  d :    -0.001439
      dxz     :    -0.000438
      dyz     :    -0.001446
      dx2y2   :    -0.000033
      dxy     :    -0.000386
  3 Cls       :     0.000193  s :     0.000193
      pz      :     0.035533  p :     0.056668
      px      :     0.022819
      py      :    -0.001684
      dz2     :     0.000863  d :    -0.001439
      dxz     :    -0.001924
      dyz     :     0.000041
      dx2y2   :    -0.000581
      dxy     :     0.000162


                     *******************************
                     * LOEWDIN POPULATION ANALYSIS *
                     *******************************

-------------------------------------------
LOEWDIN ATOMIC CHARGES AND SPIN POPULATIONS
-------------------------------------------
   0 Si:   -0.137906    0.689492
   1 Cl:    0.045967    0.103502
   2 Cl:    0.045966    0.103502
   3 Cl:    0.045972    0.103503

----------------------------------------------------
LOEWDIN REDUCED ORBITAL CHARGES AND SPIN POPULATIONS
----------------------------------------------------
CHARGE
  0 Sis       :     4.752144  s :     4.752144
      pz      :     2.692673  p :     7.924469
      px      :     2.615900
      py      :     2.615897
      dz2     :     0.227193  d :     1.461292
      dxz     :     0.226447
      dyz     :     0.226443
      dx2y2   :     0.390602
      dxy     :     0.390606
  1 Cls       :     5.652914  s :     5.652914
      pz      :     3.786857  p :    11.178672
      px      :     3.760141
      py      :     3.631674
      dz2     :     0.014391  d :     0.122447
      dxz     :     0.013248
      dyz     :     0.034547
      dx2y2   :     0.022708
      dxy     :     0.037553
  2 Cls       :     5.652914  s :     5.652914
      pz      :     3.786858  p :    11.178673
      px      :     3.763573
      py      :     3.628242
      dz2     :     0.014391  d :     0.122447
      dxz     :     0.012679
      dyz     :     0.035116
      dx2y2   :     0.023442
      dxy     :     0.036819
  3 Cls       :     5.652912  s :     5.652912
      pz      :     3.786856  p :    11.178668
      px      :     3.564004
      py      :     3.827808
      dz2     :     0.014391  d :     0.122448
      dxz     :     0.045767
      dyz     :     0.002029
      dx2y2   :     0.044241
      dxy     :     0.016020

SPIN
  0 Sis       :     0.198026  s :     0.198026
      pz      :     0.430864  p :     0.419310
      px      :    -0.005777
      py      :    -0.005777
      dz2     :     0.077992  d :     0.072156
      dxz     :    -0.002468
      dyz     :    -0.002468
      dx2y2   :    -0.000450
      dxy     :    -0.000450
  1 Cls       :     0.010513  s :     0.010513
      pz      :     0.046554  p :     0.072140
      px      :     0.005997
      py      :     0.019590
      dz2     :     0.002437  d :     0.020850
      dxz     :     0.004665
      dyz     :     0.013460
      dx2y2   :     0.000013
      dxy     :     0.000273
  2 Cls       :     0.010513  s :     0.010513
      pz      :     0.046553  p :     0.072140
      px      :     0.005634
      py      :     0.019953
      dz2     :     0.002437  d :     0.020849
      dxz     :     0.004431
      dyz     :     0.013695
      dx2y2   :     0.000026
      dxy     :     0.000260
  3 Cls       :     0.010513  s :     0.010513
      pz      :     0.046554  p :     0.072140
      px      :     0.026750
      py      :    -0.001164
      dz2     :     0.002437  d :     0.020850
      dxz     :     0.018093
      dyz     :     0.000033
      dx2y2   :     0.000390
      dxy     :    -0.000104


                      *****************************
                      * MAYER POPULATION ANALYSIS *
                      *****************************

  NA   - Mulliken gross atomic population
  ZA   - Total nuclear charge
  QA   - Mulliken gross atomic charge
  VA   - Mayer's total valence
  BVA  - Mayer's bonded valence
  FA   - Mayer's free valence

  ATOM       NA         ZA         QA         VA         BVA        FA
  0 Si    12.6434    14.0000     1.3566     3.2453     2.4514     0.7940
  1 Cl    17.4522    17.0000    -0.4522     0.9185     0.9101     0.0084
  2 Cl    17.4522    17.0000    -0.4522     0.9185     0.9101     0.0084
  3 Cl    17.4522    17.0000    -0.4522     0.9185     0.9101     0.0084

  Mayer bond orders larger than 0.100000
B(  0-Si,  1-Cl) :   0.8171 B(  0-Si,  2-Cl) :   0.8171 B(  0-Si,  3-Cl) :   0.8171 


-------
TIMINGS
-------

Total SCF time: 0 days 0 hours 0 min 19 sec 

Total time                  ....      19.296 sec
Sum of individual times     ....      16.384 sec  ( 84.9%)

Fock matrix formation       ....       3.787 sec  ( 19.6%)
Diagonalization             ....       0.211 sec  (  1.1%)
Density matrix formation    ....       0.004 sec  (  0.0%)
Population analysis         ....       0.151 sec  (  0.8%)
Initial guess               ....       0.047 sec  (  0.2%)
Orbital Transformation      ....       0.000 sec  (  0.0%)
Orbital Orthonormalization  ....       0.000 sec  (  0.0%)
DIIS solution               ....       0.098 sec  (  0.5%)
SCF Stability Analysis      ....      12.001 sec  ( 62.2%)

Maximum memory used throughout the entire SCF-calculation: 227.9 MB


           ************************************************************
           *        Program running with 16 parallel MPI-processes    *
           *              working on a common directory               *
           ************************************************************

------------------------------------------------------------------------------
                                ORCA  MP2 
------------------------------------------------------------------------------

Freezing NCore=40 chemical core electrons

-------------
RI-MP2 ENERGY
-------------
Dimension of the basis                    ...  108
Memory devoted to MP2                     ... 3800 MB   
Data format for buffers                   ... DOUBLE
Compression type for matrix containers    ... UNCOMPRESSED
Overall scaling of the MP2 energy         ...   1.000e+00
Calculating two index integrals           ... done (    0.002 sec)
Cholesky decomposition of V**-1           ... done (    0.012 sec)

-----------------
RI-TRANSFORMATION (AUX index driven)
-----------------

Dimension of the orbital-basis         ... 108
Dimension of the aux-basis             ... 368
Transformation of internal/external MOs...   20-  32 to   33- 107
Number Format for Storage              ... Double (8 Byte)
Integral mode                          ... Direct

First Phase: integral generation and transformation of MO indices
  Aux angular momentum 0               ... done (    0.003 sec)
  Aux angular momentum 1               ... done (    0.003 sec)
  Aux angular momentum 2               ... done (    0.003 sec)
  Aux angular momentum 3               ... done (    0.002 sec)
Closing buffer VIA ( 0.00 GB; CompressionRatio= 1.00)
  Phase 1 completed in     0.216 sec
Second Phase: sorting and transformation of aux index

IA-Transformation
Memory available                       ... 3756 MB 
Max. # MO pairs treated in a batch     ... 1    
# of internal orbitals                 ... 13
# batches for internal orbitals        ... 1
Closing buffer IAV ( 0.00 GB; CompressionRatio= 1.00)
(ia|v) transformation done in     0.051 sec

  Phase 2 completed in     0.075 sec
RI-Integral transformation completed in     0.300 sec

-----------------
RI-TRANSFORMATION (AUX index driven)
-----------------

Dimension of the orbital-basis         ... 108
Dimension of the aux-basis             ... 368
Transformation of internal/external MOs...   20-  31 to   32- 107
Number Format for Storage              ... Double (8 Byte)
Integral mode                          ... Direct

First Phase: integral generation and transformation of MO indices
  Aux angular momentum 0               ... done (    0.003 sec)
  Aux angular momentum 1               ... done (    0.002 sec)
  Aux angular momentum 2               ... done (    0.003 sec)
  Aux angular momentum 3               ... done (    0.002 sec)
Closing buffer VIA ( 0.00 GB; CompressionRatio= 1.00)
  Phase 1 completed in     0.738 sec
Second Phase: sorting and transformation of aux index

IA-Transformation
Memory available                       ... 3756 MB 
Max. # MO pairs treated in a batch     ... 1    
# of internal orbitals                 ... 12
# batches for internal orbitals        ... 1
Closing buffer IAV ( 0.00 GB; CompressionRatio= 1.00)
(ia|v) transformation done in     0.054 sec

  Phase 2 completed in    11.274 sec
RI-Integral transformation completed in    12.021 sec
Opening buffers                              ... done

Starting loop over batches of integrals:

Operator 0  - window                       ... ( 20- 32)x( 33-107)
Operator 0  - Memory available             ...  3800 MB
Operator 0  - Memory needed per MO         ...   0.2 MB
Operator 0  - Number of orbitals per batch ... 1
Operator 0  - Number of batches            ... 1

OPERATOR  0   PASS   0:  MOs    20 ...   20 +   21 ...   21 +   22 ...   22 +   23 ...   23
                            +   24 ...   24 +   25 ...   25 +   26 ...   26 +   27 ...   27
                            +   28 ...   28 +   29 ...   29 +   30 ...   30 +   31 ...   31
                            +   32 ...   32
  Reading integrals       ... ok

Operator 1  - window                       ... ( 20- 31)x( 32-107)
Operator 1  - Memory available             ...  3800 MB
Operator 1  - Memory needed per MO         ...   0.2 MB
Operator 1  - Number of orbitals per batch ... 1
Operator 1  - Number of batches            ... 1

OPERATOR  1   PASS   0:  MOs    20 ...   20 +   21 ...   21 +   22 ...   22 +   23 ...   23
                            +   24 ...   24 +   25 ...   25 +   26 ...   26 +   27 ...   27
                            +   28 ...   28 +   29 ...   29 +   30 ...   30 +   31 ...   31
  Reading integrals       ... ok
Time spent in pair loops =     0.041 sec
Deleting buffer (Ka|jb)[aa] ...done
Deleting buffer (Ka|jb)[ba] ...done
Deleting buffer (Ka|jb)[ab] ...done
Deleting buffer (Ka|jb)[bb] ...done

Correlation energy components}
 E2 and T2 for alpha/alpha pairs :     -0.073715937 Eh      0.000000000
 E2 and T2 for beta/beta   pairs :     -0.069068574 Eh      0.000000000
 E2 and T2 for alpha/beta  pairs :     -0.368525230 Eh      0.000000000


-----------------------------------------------
 RI-MP2 CORRELATION ENERGY:     -0.511309741 Eh
-----------------------------------------------


-------
TIMINGS
-------

Total time                :   12.422 sec
Integral trafo            :   12.337 sec ( 99.3%)
I/O of integrals          :    0.001 sec (  0.0%)
K(i,j) Operators          :    0.004 sec (  0.0%)
T(i,j) pair energies      :    0.000 sec (  0.0%)
V-calculation             :    0.002 sec (  0.0%)
V**(-1/2)                 :    0.012 sec (  0.1%)
Gamma(ia|P)               :    0.000 sec (  0.0%)
Gamma-Trafo               :    0.000 sec (  0.0%)
D(virtual)                :    0.000 sec (  0.0%)
D(internal)               :    0.000 sec (  0.0%)
W(virtual)                :    0.000 sec (  0.0%)
W(internal)               :    0.000 sec (  0.0%)
L(virtual)                :    0.000 sec (  0.0%)
L(internal)               :    0.000 sec (  0.0%)
G(D)                      :    0.000 sec (  0.0%)
G(Z)                      :    0.000 sec (  0.0%)
Z-Vector Solution         :    0.000 sec (  0.0%)
3-Index Derivative        :    0.000 sec (  0.0%)
2-Index Derivative        :    0.000 sec (  0.0%)
Separable Gradient        :    0.000 sec (  0.0%)


---------------------------------------
MP2 TOTAL ENERGY:    -1668.078778628 Eh
---------------------------------------

Maximum memory used throughout the entire MP2-calculation: 85.7 MB

-------------------------   --------------------
FINAL SINGLE POINT ENERGY     -1668.078778628179
-------------------------   --------------------


                            ***************************************
                            *     ORCA property calculations      *
                            ***************************************


  WARNING: The energy has been calculated at the MP2 level but the densities
           used in the property calculations are still SCF densities
           MP2 response densities have not been calculated 
           use %mp2 Density relaxed end
           or  %mp2 Density unrelaxed end

                                    ---------------------
                                    Active property flags
                                    ---------------------
   (+) Dipole Moment


------------------------------------------------------------------------------
                       ORCA ELECTRIC PROPERTIES CALCULATION
------------------------------------------------------------------------------

Dipole Moment Calculation                       ... on
Quadrupole Moment Calculation                   ... off
Polarizability Calculation                      ... off
GBWName                                         ... DZ_B-Si_68_A.gbw
Electron density                                ... DZ_B-Si_68_A.scfp
The origin for moment calculation is the CENTER OF MASS  = ( 0.000000,  0.000000 -0.008368)

-------------
DIPOLE MOMENT
-------------
                                X             Y             Z
Electronic contribution:     -0.00002      -0.00000      -0.19820
Nuclear contribution   :     -0.00001      -0.00000       0.54397
                        -----------------------------------------
Total Dipole Moment    :     -0.00002      -0.00001       0.34578
                        -----------------------------------------
Magnitude (a.u.)       :      0.34578
Magnitude (Debye)      :      0.87889



--------------------
Rotational spectrum 
--------------------
 
Rotational constants in cm-1:     0.081145     0.081145     0.042705 
Rotational constants in MHz :  2432.671449  2432.651377  1280.256979 

 Dipole components along the rotational axes: 
x,y,z [a.u.] :    -0.000024    -0.000004     0.345776 
x,y,z [Debye]:    -0.000062    -0.000009     0.878892 

 

Timings for individual modules:

Sum of individual times         ...       39.480 sec (=   0.658 min)
GTO integral calculation        ...        5.661 sec (=   0.094 min)  14.3 %
SCF iterations                  ...       20.236 sec (=   0.337 min)  51.3 %
MP2 module                      ...       13.583 sec (=   0.226 min)  34.4 %


                 $$$$$$$$$$$$$$$$  JOB NUMBER  2 $$$$$$$$$$$$$$


                       ****************************
                       * Single Point Calculation *
                       ****************************

---------------------------------
CARTESIAN COORDINATES (ANGSTROEM)
---------------------------------
  Si    -0.000007   -0.000002    0.536113
  Cl     0.975764   -1.661129   -0.147172
  Cl     0.950708    1.675597   -0.147164
  Cl    -1.926466   -0.014466   -0.147168

----------------------------
CARTESIAN COORDINATES (A.U.)
----------------------------
  NO LB      ZA    FRAG     MASS         X           Y           Z
   0 Si   14.0000    0    28.086   -0.000013   -0.000004    1.013107
   1 Cl   17.0000    0    35.453    1.843927   -3.139079   -0.278115
   2 Cl   17.0000    0    35.453    1.796578    3.166419   -0.278100
   3 Cl   17.0000    0    35.453   -3.640493   -0.027337   -0.278107

--------------------------------
INTERNAL COORDINATES (ANGSTROEM)
--------------------------------
 Si     0   0   0     0.000000000000     0.00000000     0.00000000
 Cl     1   0   0     2.044101354091     0.00000000     0.00000000
 Cl     1   2   0     2.044103343463   109.41370634     0.00000000
 Cl     1   2   3     2.044095499466   109.41452442   119.86084131

---------------------------
INTERNAL COORDINATES (A.U.)
---------------------------
 Si     0   0   0     0.000000000000     0.00000000     0.00000000
 Cl     1   0   0     3.862791749209     0.00000000     0.00000000
 Cl     1   2   0     3.862795508577   109.41370634     0.00000000
 Cl     1   2   3     3.862780685572   109.41452442   119.86084131

---------------------
BASIS SET INFORMATION
---------------------
There are 2 groups of distinct atoms

 Group   1 Type Si  : 42s17p3d2f contracted to 6s5p3d2f pattern {131313111/77111/111/11}
 Group   2 Type Cl  : 42s17p3d2f contracted to 6s5p3d2f pattern {131313111/77111/111/11}

Atom   0Si   basis set group =>   1
Atom   1Cl   basis set group =>   2
Atom   2Cl   basis set group =>   2
Atom   3Cl   basis set group =>   2
---------------------------------
AUXILIARY/C BASIS SET INFORMATION
---------------------------------
There are 2 groups of distinct atoms

 Group   1 Type Si  : 11s9p8d6f3g contracted to 11s9p8d6f3g pattern {11111111111/111111111/11111111/111111/111}
 Group   2 Type Cl  : 11s9p8d6f3g contracted to 11s9p8d6f3g pattern {11111111111/111111111/11111111/111111/111}

Atom   0Si   basis set group =>   1
Atom   1Cl   basis set group =>   2
Atom   2Cl   basis set group =>   2
Atom   3Cl   basis set group =>   2


           ************************************************************
           *        Program running with 16 parallel MPI-processes    *
           *              working on a common directory               *
           ************************************************************
------------------------------------------------------------------------------
                           ORCA GTO INTEGRAL CALCULATION
------------------------------------------------------------------------------
------------------------------------------------------------------------------
                   ___                                                        
                  /   \      - P O W E R E D   B Y -                         
                 /     \                                                     
                 |  |  |   _    _      __       _____    __    __             
                 |  |  |  | |  | |    /  \     |  _  \  |  |  /  |          
                  \  \/   | |  | |   /    \    | | | |  |  | /  /          
                 / \  \   | |__| |  /  /\  \   | |_| |  |  |/  /          
                |  |  |   |  __  | /  /__\  \  |    /   |      \           
                |  |  |   | |  | | |   __   |  |    \   |  |\   \          
                \     /   | |  | | |  |  |  |  | |\  \  |  | \   \       
                 \___/    |_|  |_| |__|  |__|  |_| \__\ |__|  \__/        
                                                                              
                      - O R C A' S   B I G   F R I E N D -                    
                                      &                                       
                       - I N T E G R A L  F E E D E R -                       
                                                                              
 v1 FN, 2020, v2 2021                                                         
------------------------------------------------------------------------------


Reading SHARK input file TZ_B-Si_68_A.SHARKINP.tmp ... ok
----------------------
SHARK INTEGRAL PACKAGE
----------------------

Number of atoms                             ...      4
Number of basis functions                   ...    300
Number of shells                            ...    124
Maximum angular momentum                    ...      3
Integral batch strategy                     ... SHARK/LIBINT Hybrid
RI-J (if used) integral strategy            ... SPLIT-RIJ (Revised 2003 algorithm where possible)
Printlevel                                  ...      1
Contraction scheme used                     ... PARTIAL GENERAL contraction
Coulomb Range Separation                    ... NOT USED
Exchange Range Separation                   ... NOT USED
Finite Nucleus Model                        ... NOT USED
Auxiliary Coulomb fitting basis             ... NOT available
Auxiliary J/K fitting basis                 ... NOT available
Auxiliary Correlation fitting basis         ... AVAILABLE
   # of basis functions in Aux-C            ...    588
   # of shells in Aux-C                     ...    148
   Maximum angular momentum in Aux-C        ...      4
Auxiliary 'external' fitting basis          ... NOT available
Integral threshold                          ...     2.500000e-11
Primitive cut-off                           ...     2.500000e-12
Primitive pair pre-selection threshold      ...     2.500000e-12

Calculating pre-screening integrals         ... done (  0.0 sec) Dimension = 124
Calculating pre-screening integrals (ORCA)  ... done (  0.1 sec) Dimension = 64
Organizing shell pair data                  ... done (  0.0 sec)
Shell pair information
Total number of shell pairs                 ...      7750
Shell pairs after pre-screening             ...      5558
Total number of primitive shell pairs       ...      7750
Primitive shell pairs kept                  ...      5558
          la=0 lb=0:   1183 shell pairs
          la=1 lb=0:   1621 shell pairs
          la=1 lb=1:    586 shell pairs
          la=2 lb=0:    702 shell pairs
          la=2 lb=1:    450 shell pairs
          la=2 lb=2:     78 shell pairs
          la=3 lb=0:    486 shell pairs
          la=3 lb=1:    320 shell pairs
          la=3 lb=2:     96 shell pairs
          la=3 lb=3:     36 shell pairs

Calculating one electron integrals          ... done (  0.0 sec)
Calculating RI/C V-Matrix + Cholesky decomp.... done (  0.0 sec)
Calculating Nuclear repulsion               ... done (  0.0 sec) ENN=    322.335394688655 Eh

SHARK setup successfully completed in   0.4 seconds

Maximum memory used throughout the entire GTOINT-calculation: 51.9 MB


           ************************************************************
           *        Program running with 16 parallel MPI-processes    *
           *              working on a common directory               *
           ************************************************************
-------------------------------------------------------------------------------
                                 ORCA SCF
-------------------------------------------------------------------------------

------------
SCF SETTINGS
------------
Hamiltonian:
 Ab initio Hamiltonian  Method          .... Hartree-Fock(GTOs)


General Settings:
 Integral files         IntName         .... TZ_B-Si_68_A
 Hartree-Fock type      HFTyp           .... UHF
 Total Charge           Charge          ....    0
 Multiplicity           Mult            ....    2
 Number of Electrons    NEL             ....   65
 Basis Dimension        Dim             ....  200
 Nuclear Repulsion      ENuc            ....    322.3353946887 Eh

Convergence Acceleration:
 DIIS                   CNVDIIS         .... on
   Start iteration      DIISMaxIt       ....    12
   Startup error        DIISStart       ....  0.200000
   # of expansion vecs  DIISMaxEq       ....     5
   Bias factor          DIISBfac        ....   1.050
   Max. coefficient     DIISMaxC        ....  10.000
 Trust-Rad. Augm. Hess. CNVTRAH         .... auto
   Auto Start mean grad. ratio tolernc. ....  1.125000
   Auto Start start iteration           ....     1
   Auto Start num. interpolation iter.  ....    10
   Max. Number of Micro iterations      ....    16
   Max. Number of Macro iterations      .... Maxiter - #DIIS iter
   Number of Davidson start vectors     ....     2
   Converg. threshold I  (grad. norm)   ....   1.000e-05
   Converg. threshold II (energy diff.) ....   1.000e-08
   Grad. Scal. Fac. for Micro threshold ....   0.100
   Minimum threshold for Micro iter.    ....   0.010
   NR start threshold (gradient norm)   ....   0.001
   Initial trust radius                 ....   0.400
   Minimum AH scaling param. (alpha)    ....   1.000
   Maximum AH scaling param. (alpha)    .... 1000.000
   Orbital update algorithm             .... Taylor
   White noise on init. David. guess    .... on
   Maximum white noise                  ....   0.010
   Quad. conv. algorithm                .... NR
 SOSCF                  CNVSOSCF        .... off
 Level Shifting         CNVShift        .... on
   Level shift para.    LevelShift      ....    0.2500
   Turn off err/grad.   ShiftErr        ....    0.0010
 Zerner damping         CNVZerner       .... off
 Static damping         CNVDamp         .... on
   Fraction old density DampFac         ....    0.7000
   Max. Damping (<1)    DampMax         ....    0.9800
   Min. Damping (>=0)   DampMin         ....    0.0000
   Turn off err/grad.   DampErr         ....    0.1000
 Fernandez-Rico         CNVRico         .... off

SCF Procedure:
 Maximum # iterations   MaxIter         ....   125
 SCF integral mode      SCFMode         .... Direct
   Integral package                     .... SHARK and LIBINT hybrid scheme
 Reset frequency        DirectResetFreq ....    20
 Integral Threshold     Thresh          ....  2.500e-11 Eh
 Primitive CutOff       TCut            ....  2.500e-12 Eh

Convergence Tolerance:
 Convergence Check Mode ConvCheckMode   .... Total+1el-Energy
 Convergence forced     ConvForced      .... 1
 Energy Change          TolE            ....  1.000e-08 Eh
 1-El. energy change                    ....  1.000e-05 Eh
 DIIS Error             TolErr          ....  5.000e-07


Diagonalization of the overlap matrix:
Smallest eigenvalue                        ... 2.196e-04
Time for diagonalization                   ...    0.004 sec
Threshold for overlap eigenvalues          ... 1.000e-08
Number of eigenvalues below threshold      ... 0
Time for construction of square roots      ...    0.022 sec
Total time needed                          ...    0.027 sec

---------------------
INITIAL GUESS: MOREAD
---------------------
Guess MOs are being read from file: DZ_B-Si_68_A.gbw
Input Geometry matches current geometry (good)
Atom 0: N(Shells)= 16 and 11 - projection required
Input basis set needs projection
NBasis(read)= 108
NBasis(calc)= 200
Basis set overlap was calculated
Using GuessMode=FMatrix for the initial guess
C*T matrix was formed
Effective Fockian was calculated
Effective Fockian was diagonalized
Initial density was built
C*T matrix was formed
Effective Fockian was calculated
Effective Fockian was diagonalized
Initial density was built
                      ------------------
                      INITIAL GUESS DONE (   0.0 sec)
                      ------------------
--------------
SCF ITERATIONS
--------------
ITER       Energy         Delta-E        Max-DP      RMS-DP      [F,P]     Damp
               ***  Starting incremental Fock matrix formation  ***
[...]
      pz      :     0.035762  p :     0.058020
      px      :     0.005008
      py      :     0.017250
      dz2     :     0.001790  d :    -0.002282
      dxz     :    -0.000658
      dyz     :    -0.002391
      dx2y2   :    -0.000211
      dxy     :    -0.000811
      f0      :    -0.000171  f :    -0.000241
      f+1     :     0.000067
      f-1     :     0.000208
      f+2     :    -0.000056
      f-2     :    -0.000249
      f+3     :    -0.000079
      f-3     :     0.000038
      g0      :     0.000026  g :     0.000087
      g+1     :     0.000000
      g-1     :    -0.000001
      g+2     :     0.000016
      g-2     :     0.000045
      g+3     :     0.000002
      g-3     :    -0.000002
      g+4     :     0.000002
      g-4     :    -0.000001
  3 Cls       :     0.002005  s :     0.002005
      pz      :     0.035762  p :     0.058020
      px      :     0.023060
      py      :    -0.000803
      dz2     :     0.001790  d :    -0.002281
      dxz     :    -0.003213
      dyz     :     0.000164
      dx2y2   :    -0.001143
      dxy     :     0.000121
      f0      :    -0.000171  f :    -0.000241
      f+1     :     0.000275
      f-1     :    -0.000000
      f+2     :    -0.000357
      f-2     :     0.000051
      f+3     :    -0.000079
      f-3     :     0.000038
      g0      :     0.000026  g :     0.000087
      g+1     :    -0.000002
      g-1     :     0.000001
      g+2     :     0.000061
      g-2     :    -0.000000
      g+3     :     0.000002
      g-3     :    -0.000002
      g+4     :    -0.000002
      g-4     :     0.000003


                     *******************************
                     * LOEWDIN POPULATION ANALYSIS *
                     *******************************

-------------------------------------------
LOEWDIN ATOMIC CHARGES AND SPIN POPULATIONS
-------------------------------------------
   0 Si:   -2.079850    0.578205
   1 Cl:    0.693282    0.140598
   2 Cl:    0.693280    0.140598
   3 Cl:    0.693288    0.140599

----------------------------------------------------
LOEWDIN REDUCED ORBITAL CHARGES AND SPIN POPULATIONS
----------------------------------------------------
CHARGE
  0 Sis       :     4.600991  s :     4.600991
      pz      :     2.575835  p :     7.751524
      px      :     2.587847
      py      :     2.587842
      dz2     :     0.275621  d :     1.736177
      dxz     :     0.265660
      dyz     :     0.265656
      dx2y2   :     0.464618
      dxy     :     0.464622
      f0      :     0.089953  f :     1.392529
      f+1     :     0.141175
      f-1     :     0.141172
      f+2     :     0.198781
      f-2     :     0.198784
      f+3     :     0.245736
      f-3     :     0.376928
      g0      :     0.060542  g :     0.598628
      g+1     :     0.024462
      g-1     :     0.024462
      g+2     :     0.063774
      g-2     :     0.063775
      g+3     :     0.070378
      g-3     :     0.095705
      g+4     :     0.097764
      g-4     :     0.097766
  1 Cls       :     5.386260  s :     5.386260
      pz      :     3.552134  p :    10.607401
      px      :     3.539288
      py      :     3.515979
      dz2     :     0.030861  d :     0.216568
      dxz     :     0.021257
      dyz     :     0.052135
      dx2y2   :     0.055781
      dxy     :     0.056533
      f0      :     0.005968  f :     0.076401
      f+1     :     0.005928
      f-1     :     0.013420
      f+2     :     0.006339
      f-2     :     0.013091
      f+3     :     0.012216
      f-3     :     0.019440
      g0      :     0.001698  g :     0.020089
      g+1     :     0.000950
      g-1     :     0.002307
      g+2     :     0.001086
      g-2     :     0.002114
      g+3     :     0.004253
      g-3     :     0.000853
      g+4     :     0.003295
      g-4     :     0.003532
  2 Cls       :     5.386261  s :     5.386261
      pz      :     3.552135  p :    10.607403
      px      :     3.539911
      py      :     3.515357
      dz2     :     0.030861  d :     0.216567
      dxz     :     0.020432
      dyz     :     0.052960
      dx2y2   :     0.055819
      dxy     :     0.056496
      f0      :     0.005968  f :     0.076401
      f+1     :     0.005728
      f-1     :     0.013620
      f+2     :     0.006673
      f-2     :     0.012757
      f+3     :     0.012216
      f-3     :     0.019440
      g0      :     0.001698  g :     0.020088
      g+1     :     0.000914
      g-1     :     0.002344
      g+2     :     0.001137
      g-2     :     0.002063
      g+3     :     0.004253
      g-3     :     0.000852
      g+4     :     0.003267
      g-4     :     0.003560
  3 Cls       :     5.386258  s :     5.386258
      pz      :     3.552132  p :    10.607395
      px      :     3.503700
      py      :     3.551564
      dz2     :     0.030861  d :     0.216568
      dxz     :     0.068401
      dyz     :     0.004992
      dx2y2   :     0.056872
      dxy     :     0.055442
      f0      :     0.005968  f :     0.076401
      f+1     :     0.017365
      f-1     :     0.001983
      f+2     :     0.016133
      f-2     :     0.003298
      f+3     :     0.012216
      f-3     :     0.019440
      g0      :     0.001698  g :     0.020089
      g+1     :     0.003022
      g-1     :     0.000235
      g+2     :     0.002577
      g-2     :     0.000622
      g+3     :     0.004253
      g-3     :     0.000853
      g+4     :     0.003679
      g-4     :     0.003148

SPIN
  0 Sis       :     0.145941  s :     0.145941
      pz      :     0.330052  p :     0.318120
      px      :    -0.005966
      py      :    -0.005966
      dz2     :     0.098208  d :     0.090462
      dxz     :    -0.002673
      dyz     :    -0.002673
      dx2y2   :    -0.001200
      dxy     :    -0.001200
      f0      :     0.002720  f :     0.019301
      f+1     :    -0.001221
      f-1     :    -0.001221
      f+2     :    -0.000635
      f-2     :    -0.000635
      f+3     :     0.020303
      f-3     :    -0.000008
      g0      :     0.003006  g :     0.004380
      g+1     :     0.000138
      g-1     :     0.000138
      g+2     :     0.000125
      g-2     :     0.000125
      g+3     :     0.000035
      g-3     :    -0.000049
      g+4     :     0.000432
      g-4     :     0.000432
  1 Cls       :     0.010944  s :     0.010944
      pz      :     0.043073  p :     0.067473
      px      :     0.005983
      py      :     0.018418
      dz2     :     0.006541  d :     0.042829
      dxz     :     0.008639
      dyz     :     0.025225
      dx2y2   :     0.000426
      dxy     :     0.001997
      f0      :     0.000871  f :     0.016240
      f+1     :     0.002215
      f-1     :     0.006432
      f+2     :     0.001504
      f-2     :     0.005035
      f+3     :     0.000283
      f-3     :    -0.000101
      g0      :     0.001005  g :     0.003111
      g+1     :    -0.000013
      g-1     :    -0.000026
      g+2     :     0.000369
      g-2     :     0.001210
      g+3     :     0.000598
      g-3     :    -0.000023
      g+4     :    -0.000012
      g-4     :     0.000003
  2 Cls       :     0.010944  s :     0.010944
      pz      :     0.043072  p :     0.067474
      px      :     0.005650
      py      :     0.018751
      dz2     :     0.006541  d :     0.042829
      dxz     :     0.008196
      dyz     :     0.025669
      dx2y2   :     0.000504
      dxy     :     0.001919
      f0      :     0.000871  f :     0.016240
      f+1     :     0.002103
      f-1     :     0.006545
      f+2     :     0.001678
      f-2     :     0.004860
      f+3     :     0.000283
      f-3     :    -0.000101
      g0      :     0.001005  g :     0.003111
      g+1     :    -0.000012
      g-1     :    -0.000026
      g+2     :     0.000411
      g-2     :     0.001168
      g+3     :     0.000598
      g-3     :    -0.000023
      g+4     :    -0.000014
      g-4     :     0.000004
  3 Cls       :     0.010944  s :     0.010944
      pz      :     0.043073  p :     0.067474
      px      :     0.024969
      py      :    -0.000568
      dz2     :     0.006541  d :     0.042830
      dxz     :     0.033963
      dyz     :    -0.000097
      dx2y2   :     0.002705
      dxy     :    -0.000281
      f0      :     0.000871  f :     0.016240
      f+1     :     0.008654
      f-1     :    -0.000006
      f+2     :     0.006625
      f-2     :    -0.000087
      f+3     :     0.000283
      f-3     :    -0.000101
      g0      :     0.001005  g :     0.003111
      g+1     :    -0.000033
      g-1     :    -0.000006
      g+2     :     0.001589
      g-2     :    -0.000009
      g+3     :     0.000598
      g-3     :    -0.000023
      g+4     :     0.000011
      g-4     :    -0.000021


                      *****************************
                      * MAYER POPULATION ANALYSIS *
                      *****************************

  NA   - Mulliken gross atomic population
  ZA   - Total nuclear charge
  QA   - Mulliken gross atomic charge
  VA   - Mayer's total valence
  BVA  - Mayer's bonded valence
  FA   - Mayer's free valence

  ATOM       NA         ZA         QA         VA         BVA        FA
  0 Si    12.5119    14.0000     1.4881     3.1156     2.3034     0.8122
  1 Cl    17.4960    17.0000    -0.4960     0.7722     0.7617     0.0105
  2 Cl    17.4960    17.0000    -0.4960     0.7722     0.7617     0.0105
  3 Cl    17.4960    17.0000    -0.4960     0.7722     0.7617     0.0105

  Mayer bond orders larger than 0.100000
B(  0-Si,  1-Cl) :   0.7678 B(  0-Si,  2-Cl) :   0.7678 B(  0-Si,  3-Cl) :   0.7678 


-------
TIMINGS
-------

Total SCF time: 0 days 0 hours 5 min 53 sec 

Total time                  ....     353.888 sec
Sum of individual times     ....     352.982 sec  ( 99.7%)

Fock matrix formation       ....      49.352 sec  ( 13.9%)
Diagonalization             ....       0.564 sec  (  0.2%)
Density matrix formation    ....       0.020 sec  (  0.0%)
Population analysis         ....       0.575 sec  (  0.2%)
Initial guess               ....       0.070 sec  (  0.0%)
Orbital Transformation      ....       0.000 sec  (  0.0%)
Orbital Orthonormalization  ....       0.000 sec  (  0.0%)
DIIS solution               ....       0.257 sec  (  0.1%)
SCF Stability Analysis      ....     302.143 sec  ( 85.4%)

Maximum memory used throughout the entire SCF-calculation: 244.1 MB


           ************************************************************
           *        Program running with 16 parallel MPI-processes    *
           *              working on a common directory               *
           ************************************************************

------------------------------------------------------------------------------
                                ORCA  MP2 
------------------------------------------------------------------------------

Freezing NCore=40 chemical core electrons

-------------
RI-MP2 ENERGY
-------------
Dimension of the basis                    ...  336
Memory devoted to MP2                     ... 3800 MB   
Data format for buffers                   ... DOUBLE
Compression type for matrix containers    ... UNCOMPRESSED
Overall scaling of the MP2 energy         ...   1.000e+00
Calculating two index integrals           ... done (    0.006 sec)
Cholesky decomposition of V**-1           ... done (    0.759 sec)

-----------------
RI-TRANSFORMATION (AUX index driven)
-----------------

Dimension of the orbital-basis         ... 336
Dimension of the aux-basis             ... 776
Transformation of internal/external MOs...   20-  32 to   33- 335
Number Format for Storage              ... Double (8 Byte)
Integral mode                          ... Direct

First Phase: integral generation and transformation of MO indices
  Aux angular momentum 0               ... done (    0.638 sec)
  Aux angular momentum 1               ... done (    0.016 sec)
  Aux angular momentum 2               ... done (    0.027 sec)
  Aux angular momentum 3               ... done (    0.029 sec)
  Aux angular momentum 4               ... done (    0.020 sec)
  Aux angular momentum 5               ... done (    0.035 sec)
Closing buffer VIA ( 0.02 GB; CompressionRatio= 1.00)
  Phase 1 completed in     3.790 sec
Second Phase: sorting and transformation of aux index

IA-Transformation
Memory available                       ... 3749 MB 
Max. # MO pairs treated in a batch     ... 1    
# of internal orbitals                 ... 13
# batches for internal orbitals        ... 1
Closing buffer IAV ( 0.02 GB; CompressionRatio= 1.00)
(ia|v) transformation done in     5.830 sec

  Phase 2 completed in     5.870 sec
RI-Integral transformation completed in     9.671 sec

-----------------
RI-TRANSFORMATION (AUX index driven)
-----------------

Dimension of the orbital-basis         ... 336
Dimension of the aux-basis             ... 776
Transformation of internal/external MOs...   20-  31 to   32- 335
Number Format for Storage              ... Double (8 Byte)
Integral mode                          ... Direct

First Phase: integral generation and transformation of MO indices
  Aux angular momentum 0               ... done (    0.009 sec)
  Aux angular momentum 1               ... done (    0.015 sec)
  Aux angular momentum 2               ... done (    0.026 sec)
  Aux angular momentum 3               ... done (    0.027 sec)
  Aux angular momentum 4               ... done (    0.020 sec)
  Aux angular momentum 5               ... done (    0.035 sec)
Closing buffer VIA ( 0.02 GB; CompressionRatio= 1.00)
  Phase 1 completed in     0.341 sec
Second Phase: sorting and transformation of aux index

IA-Transformation
Memory available                       ... 3749 MB 
Max. # MO pairs treated in a batch     ... 1    
# of internal orbitals                 ... 12
# batches for internal orbitals        ... 1
Closing buffer IAV ( 0.02 GB; CompressionRatio= 1.00)
(ia|v) transformation done in     0.236 sec

  Phase 2 completed in     0.273 sec
RI-Integral transformation completed in     0.623 sec
Opening buffers                              ... done

Starting loop over batches of integrals:

Operator 0  - window                       ... ( 20- 32)x( 33-335)
Operator 0  - Memory available             ...  3800 MB
Operator 0  - Memory needed per MO         ...   1.8 MB
Operator 0  - Number of orbitals per batch ... 1
Operator 0  - Number of batches            ... 1

OPERATOR  0   PASS   0:  MOs    20 ...   20 +   21 ...   21 +   22 ...   22 +   23 ...   23
                            +   24 ...   24 +   25 ...   25 +   26 ...   26 +   27 ...   27
                            +   28 ...   28 +   29 ...   29 +   30 ...   30 +   31 ...   31
                            +   32 ...   32
  Reading integrals       ... ok

Operator 1  - window                       ... ( 20- 31)x( 32-335)
Operator 1  - Memory available             ...  3800 MB
Operator 1  - Memory needed per MO         ...   1.8 MB
Operator 1  - Number of orbitals per batch ... 1
Operator 1  - Number of batches            ... 1

OPERATOR  1   PASS   0:  MOs    20 ...   20 +   21 ...   21 +   22 ...   22 +   23 ...   23
                            +   24 ...   24 +   25 ...   25 +   26 ...   26 +   27 ...   27
                            +   28 ...   28 +   29 ...   29 +   30 ...   30 +   31 ...   31
  Reading integrals       ... ok
Time spent in pair loops =     0.171 sec
Deleting buffer (Ka|jb)[aa] ...done
Deleting buffer (Ka|jb)[ba] ...done
Deleting buffer (Ka|jb)[ab] ...done
Deleting buffer (Ka|jb)[bb] ...done

Correlation energy components}
 E2 and T2 for alpha/alpha pairs :     -0.092440342 Eh      0.000000000
 E2 and T2 for beta/beta   pairs :     -0.085693660 Eh      0.000000000
 E2 and T2 for alpha/beta  pairs :     -0.548073857 Eh      0.000000000


-----------------------------------------------
 RI-MP2 CORRELATION ENERGY:     -0.726207860 Eh
-----------------------------------------------


-------
TIMINGS
-------

Total time                :   11.311 sec
Integral trafo            :   10.308 sec ( 91.1%)
I/O of integrals          :    0.002 sec (  0.0%)
K(i,j) Operators          :    0.088 sec (  0.8%)
T(i,j) pair energies      :    0.002 sec (  0.0%)
V-calculation             :    0.006 sec (  0.1%)
V**(-1/2)                 :    0.759 sec (  6.7%)
Gamma(ia|P)               :    0.000 sec (  0.0%)
Gamma-Trafo               :    0.000 sec (  0.0%)
D(virtual)                :    0.000 sec (  0.0%)
D(internal)               :    0.000 sec (  0.0%)
W(virtual)                :    0.000 sec (  0.0%)
W(internal)               :    0.000 sec (  0.0%)
L(virtual)                :    0.000 sec (  0.0%)
L(internal)               :    0.000 sec (  0.0%)
G(D)                      :    0.000 sec (  0.0%)
G(Z)                      :    0.000 sec (  0.0%)
Z-Vector Solution         :    0.000 sec (  0.0%)
3-Index Derivative        :    0.000 sec (  0.0%)
2-Index Derivative        :    0.000 sec (  0.0%)
Separable Gradient        :    0.000 sec (  0.0%)


---------------------------------------
MP2 TOTAL ENERGY:    -1668.372119432 Eh
---------------------------------------

Maximum memory used throughout the entire MP2-calculation: 105.4 MB

-------------------------   --------------------
FINAL SINGLE POINT ENERGY     -1668.372119432001
-------------------------   --------------------


                            ***************************************
                            *     ORCA property calculations      *
                            ***************************************


  WARNING: The energy has been calculated at the MP2 level but the densities
           used in the property calculations are still SCF densities
           MP2 response densities have not been calculated 
           use %mp2 Density relaxed end
           or  %mp2 Density unrelaxed end

                                    ---------------------
                                    Active property flags
                                    ---------------------
   (+) Dipole Moment


------------------------------------------------------------------------------
                       ORCA ELECTRIC PROPERTIES CALCULATION
------------------------------------------------------------------------------

Dipole Moment Calculation                       ... on
Quadrupole Moment Calculation                   ... off
Polarizability Calculation                      ... off
GBWName                                         ... QZ_B-Si_68_A.gbw
Electron density                                ... QZ_B-Si_68_A.scfp
The origin for moment calculation is the CENTER OF MASS  = ( 0.000000,  0.000000 -0.008368)

-------------
DIPOLE MOMENT
-------------
                                X             Y             Z
Electronic contribution:     -0.00002      -0.00000      -0.22346
Nuclear contribution   :     -0.00001      -0.00000       0.54397
                        -----------------------------------------
Total Dipole Moment    :     -0.00002      -0.00001       0.32052
                        -----------------------------------------
Magnitude (a.u.)       :      0.32052
Magnitude (Debye)      :      0.81469



--------------------
Rotational spectrum 
--------------------
 
Rotational constants in cm-1:     0.081145     0.081145     0.042705 
Rotational constants in MHz :  2432.671449  2432.651377  1280.256979 

 Dipole components along the rotational axes: 
x,y,z [a.u.] :    -0.000024    -0.000004     0.320516 
x,y,z [Debye]:    -0.000062    -0.000009     0.814686 

 

Timings for individual modules:

Sum of individual times         ...      368.984 sec (=   6.150 min)
GTO integral calculation        ...        1.645 sec (=   0.027 min)   0.4 %
SCF iterations                  ...      354.966 sec (=   5.916 min)  96.2 %
MP2 module                      ...       12.373 sec (=   0.206 min)   3.4 %



                             ****ORCA TERMINATED NORMALLY****
TOTAL RUN TIME: 0 days 0 hours 8 minutes 6 seconds 276 msec
