
                                 *****************
                                 * O   R   C   A *
                                 *****************

                                            #,                                       
                                            ###                                      
                                            ####                                     
                                            #####                                    
                                            ######                                   
                                           ########,                                 
                                     ,,################,,,,,                         
                               ,,#################################,,                 
                          ,,##########################################,,             
                       ,#########################################, ''#####,          
                    ,#############################################,,   '####,        
                  ,##################################################,,,,####,       
                ,###########''''           ''''###############################       
              ,#####''   ,,,,##########,,,,          '''####'''          '####       
            ,##' ,,,,###########################,,,                        '##       
           ' ,,###''''                  '''############,,,                           
         ,,##''                                '''############,,,,        ,,,,,,###''
      ,#''                                            '''#######################'''  
     '                                                          ''''####''''         
             ,#######,   #######,   ,#######,      ##                                
            ,#'     '#,  ##    ##  ,#'     '#,    #''#        ######   ,####,        
            ##       ##  ##   ,#'  ##            #'  '#       #        #'  '#        
            ##       ##  #######   ##           ,######,      #####,   #    #        
            '#,     ,#'  ##    ##  '#,     ,#' ,#      #,         ##   #,  ,#        
             '#######'   ##     ##  '#######'  #'      '#     #####' # '####'        



                  #######################################################
                  #                        -***-                        #
                  #          Department of theory and spectroscopy      #
                  #    Directorship and core code : Frank Neese         #
                  #        Max Planck Institute fuer Kohlenforschung    #
                  #                Kaiser Wilhelm Platz 1               #
                  #                 D-45470 Muelheim/Ruhr               #
                  #                      Germany                        #
                  #                                                     #
                  #                  All rights reserved                #
                  #                        -***-                        #
                  #######################################################


                         Program Version 5.0.4 -  RELEASE  -


 With contributions from (in alphabetic order):
   Daniel Aravena         : Magnetic Suceptibility
   Michael Atanasov       : Ab Initio Ligand Field Theory (pilot matlab implementation)
   Alexander A. Auer      : GIAO ZORA, VPT2 properties, NMR spectrum
   Ute Becker             : Parallelization
   Giovanni Bistoni       : ED, misc. LED, open-shell LED, HFLD
   Martin Brehm           : Molecular dynamics
   Dmytro Bykov           : SCF Hessian
   Vijay G. Chilkuri      : MRCI spin determinant printing, contributions to CSF-ICE
   Dipayan Datta          : RHF DLPNO-CCSD density
   Achintya Kumar Dutta   : EOM-CC, STEOM-CC
   Dmitry Ganyushin       : Spin-Orbit,Spin-Spin,Magnetic field MRCI
   Miquel Garcia          : C-PCM and meta-GGA Hessian, CC/C-PCM, Gaussian charge scheme
   Yang Guo               : DLPNO-NEVPT2, F12-NEVPT2, CIM, IAO-localization
   Andreas Hansen         : Spin unrestricted coupled pair/coupled cluster methods
   Benjamin Helmich-Paris : MC-RPA, TRAH-SCF, COSX integrals
   Lee Huntington         : MR-EOM, pCC
   Robert Izsak           : Overlap fitted RIJCOSX, COSX-SCS-MP3, EOM
   Marcus Kettner         : VPT2
   Christian Kollmar      : KDIIS, OOCD, Brueckner-CCSD(T), CCSD density, CASPT2, CASPT2-K
   Simone Kossmann        : Meta GGA functionals, TD-DFT gradient, OOMP2, MP2 Hessian
   Martin Krupicka        : Initial AUTO-CI
   Lucas Lang             : DCDCAS
   Marvin Lechner         : AUTO-CI (C++ implementation), FIC-MRCC
   Dagmar Lenk            : GEPOL surface, SMD
   Dimitrios Liakos       : Extrapolation schemes; Compound Job, initial MDCI parallelization
   Dimitrios Manganas     : Further ROCIS development; embedding schemes
   Dimitrios Pantazis     : SARC Basis sets
   Anastasios Papadopoulos: AUTO-CI, single reference methods and gradients
   Taras Petrenko         : DFT Hessian,TD-DFT gradient, ASA, ECA, R-Raman, ABS, FL, XAS/XES, NRVS
   Peter Pinski           : DLPNO-MP2, DLPNO-MP2 Gradient
   Christoph Reimann      : Effective Core Potentials
   Marius Retegan         : Local ZFS, SOC
   Christoph Riplinger    : Optimizer, TS searches, QM/MM, DLPNO-CCSD(T), (RO)-DLPNO pert. Triples
   Tobias Risthaus        : Range-separated hybrids, TD-DFT gradient, RPA, STAB
   Michael Roemelt        : Original ROCIS implementation
   Masaaki Saitow         : Open-shell DLPNO-CCSD energy and density
   Barbara Sandhoefer     : DKH picture change effects
   Avijit Sen             : IP-ROCIS
   Kantharuban Sivalingam : CASSCF convergence, NEVPT2, FIC-MRCI
   Bernardo de Souza      : ESD, SOC TD-DFT
   Georgi Stoychev        : AutoAux, RI-MP2 NMR, DLPNO-MP2 response
   Willem Van den Heuvel  : Paramagnetic NMR
   Boris Wezisla          : Elementary symmetry handling
   Frank Wennmohs         : Technical directorship


 We gratefully acknowledge several colleagues who have allowed us to
 interface, adapt or use parts of their codes:
   Stefan Grimme, W. Hujo, H. Kruse, P. Pracht,  : VdW corrections, initial TS optimization,
                  C. Bannwarth, S. Ehlert          DFT functionals, gCP, sTDA/sTD-DF
   Ed Valeev, F. Pavosevic, A. Kumar             : LibInt (2-el integral package), F12 methods
   Garnet Chan, S. Sharma, J. Yang, R. Olivares  : DMRG
   Ulf Ekstrom                                   : XCFun DFT Library
   Mihaly Kallay                                 : mrcc  (arbitrary order and MRCC methods)
   Jiri Pittner, Ondrej Demel                    : Mk-CCSD
   Frank Weinhold                                : gennbo (NPA and NBO analysis)
   Christopher J. Cramer and Donald G. Truhlar   : smd solvation model
   Lars Goerigk                                  : TD-DFT with DH, B97 family of functionals
   V. Asgeirsson, H. Jonsson                     : NEB implementation
   FAccTs GmbH                                   : IRC, NEB, NEB-TS, DLPNO-Multilevel, CI-OPT
                                                   MM, QMMM, 2- and 3-layer-ONIOM, Crystal-QMMM,
                                                   LR-CPCM, SF, NACMEs, symmetry and pop. for TD-DFT,
                                                   nearIR, NL-DFT gradient (VV10), updates on ESD,
                                                   ML-optimized integration grids
   S Lehtola, MJT Oliveira, MAL Marques          : LibXC Library
   Liviu Ungur et al                             : ANISO software


 Your calculation uses the libint2 library for the computation of 2-el integrals
 For citations please refer to: http://libint.valeyev.net

 Your ORCA version has been built with support for libXC version: 5.1.0
 For citations please refer to: https://tddft.org/programs/libxc/

 This ORCA versions uses:
   CBLAS   interface :  Fast vector & matrix operations
   LAPACKE interface :  Fast linear algebra routines
   SCALAPACK package :  Parallel linear algebra routines
   Shared memory     :  Shared parallel matrices
   BLAS/LAPACK       :  OpenBLAS 0.3.15  USE64BITINT DYNAMIC_ARCH NO_AFFINITY Zen SINGLE_THREADED
        Core in use  :  Zen
   Copyright (c) 2011-2014, The OpenBLAS Project


================================================================================

----- Orbital basis set information -----
Your calculation utilizes the basis: aug-cc-pVDZ 
    H, B-Ne : Obtained from the ccRepo (grant-hill.group.shef.ac.uk/ccrepo) Feb. 2017
              R. A. Kendall, T. H. Dunning, Jr., R. J. Harrison, J. Chem. Phys. 96, 6796 (1992)
         He : Obtained from the ccRepo (grant-hill.group.shef.ac.uk/ccrepo) Feb. 2017
              D. E. Woon, T. H. Dunning, Jr., J. Chem. Phys. 100, 2975 (1994)
  Li-Be, Na : Obtained from the ccRepo (grant-hill.group.shef.ac.uk/ccrepo) Feb. 2017
              B. P. Prascher, D. E. Woon, K. A. Peterson, T. H. Dunning, Jr., A. K. Wilson, Theor. Chem. Acc. 128, 69 (2011)
         Mg : Obtained from the Peterson Research Group Website (tyr0.chem.wsu.edu/~kipeters) Feb. 2017
              B. P. Prascher, D. E. Woon, K. A. Peterson, T. H. Dunning, Jr., A. K. Wilson, Theor. Chem. Acc. 128, 69 (2011)
      Al-Ar : Obtained from the ccRepo (grant-hill.group.shef.ac.uk/ccrepo) Feb. 2017
              D. E. Woon, T. H. Dunning, Jr., J. Chem. Phys. 98, 1358 (1993)
      Sc-Zn : Obtained from the ccRepo (grant-hill.group.shef.ac.uk/ccrepo) Feb. 2017
              N. B. Balabanov, K. A. Peterson, J. Chem. Phys. 123, 064107 (2005)
              N. B. Balabanov, K. A. Peterson, J. Chem. Phys. 125, 074110 (2006)
      Ga-Kr : Obtained from the ccRepo (grant-hill.group.shef.ac.uk/ccrepo) Feb. 2017
              A. K. Wilson, D. E. Woon, K. A. Peterson, T. H. Dunning, Jr., J. Chem. Phys. 110, 7667 (1999)

----- AuxC basis set information -----
Your calculation utilizes the auxiliary basis: aug-cc-pVDZ/C 
  H-He, B, Ne, Al-Ar, Ga-Ge, Se-Br : Obtained from the EMSL Basis Set Exchange (bse.pnl.gov) Feb. 2017
                                     F. Weigend, A. Kohn, C. Hattig, J. Chem. Phys. 116, 3175 (2002)
                            Be, Mg : Obtained from the TURBOMOLE 7.0 basis set library
                                     C. Haettig, Phys. Chem. Chem. Phys. 7, 59 (2005)
                               C-F : Obtained from the EMSL Basis Set Exchange (bse.pnl.gov) Feb. 2017
                                     C. Haettig, Phys. Chem. Chem. Phys. 7, 59 (2005)
                                     F. Weigend, A. Kohn, C. Hattig, J. Chem. Phys. 116, 3175 (2002)
                                As : Obtained from the EMSL Basis Set Exchange (bse.pnl.gov) Feb. 2017
                                     C. Haettig, G. Schmitz, J. Kossmann, Phys. Chem. Chem. Phys. 14, 6549 (2012)
                                Kr : Obtained from the TURBOMOLE 7.0 basis set library
                                     F. Weigend, A. Kohn, C. Hattig, J. Chem. Phys. 116, 3175 (2002)
                                     S function revised in Sep. 2009

================================================================================
                                        WARNINGS
                       Please study these warnings very carefully!
================================================================================


WARNING: No MP2 level density has been requested!
         To caclulate MP2 level properties use
         %mp2 Density relaxed end
         or
         %mp2 Density unrelaxed end

WARNING: Post HF methods need fully converged wavefunctions
  ===> : Setting SCFConvForced true
         You can overwrite this default with %scf ConvForced false 


INFO   : the flag for use of the SHARK integral package has been found!

================================================================================

----- Orbital basis set information -----
Your calculation utilizes the basis: aug-cc-pVTZ 
    H, B-Ne : Obtained from the ccRepo (grant-hill.group.shef.ac.uk/ccrepo) Feb. 2017
              R. A. Kendall, T. H. Dunning, Jr., R. J. Harrison, J. Chem. Phys. 96, 6796 (1992)
         He : Obtained from the ccRepo (grant-hill.group.shef.ac.uk/ccrepo) Feb. 2017
              D. E. Woon, T. H. Dunning, Jr., J. Chem. Phys. 100, 2975 (1994)
  Li-Be, Na : Obtained from the ccRepo (grant-hill.group.shef.ac.uk/ccrepo) Feb. 2017
              B. P. Prascher, D. E. Woon, K. A. Peterson, T. H. Dunning, Jr., A. K. Wilson, Theor. Chem. Acc. 128, 69 (2011)
         Mg : Obtained from the Peterson Research Group Website (tyr0.chem.wsu.edu/~kipeters) Feb. 2017
              B. P. Prascher, D. E. Woon, K. A. Peterson, T. H. Dunning, Jr., A. K. Wilson, Theor. Chem. Acc. 128, 69 (2011)
      Al-Ar : Obtained from the ccRepo (grant-hill.group.shef.ac.uk/ccrepo) Feb. 2017
              D. E. Woon, T. H. Dunning, Jr., J. Chem. Phys. 98, 1358 (1993)
      Sc-Zn : Obtained from the ccRepo (grant-hill.group.shef.ac.uk/ccrepo) Feb. 2017
              N. B. Balabanov, K. A. Peterson, J. Chem. Phys. 123, 064107 (2005)
              N. B. Balabanov, K. A. Peterson, J. Chem. Phys. 125, 074110 (2006)
      Ga-Kr : Obtained from the ccRepo (grant-hill.group.shef.ac.uk/ccrepo) Feb. 2017
              A. K. Wilson, D. E. Woon, K. A. Peterson, T. H. Dunning, Jr., J. Chem. Phys. 110, 7667 (1999)
     Ag, Au : Obtained from the Peterson Research Group Website (tyr0.chem.wsu.edu/~kipeters) Feb. 2017
              K. A. Peterson, C. Puzzarini, Theor. Chem. Acc. 114, 283 (2005)

----- AuxC basis set information -----
Your calculation utilizes the auxiliary basis: aug-cc-pVTZ/C 
  H-He, B-F, Al-Ar, Ga-Kr : Obtained from the EMSL Basis Set Exchange (bse.pnl.gov) Feb. 2017
                            F. Weigend, A. Kohn, C. Hattig, J. Chem. Phys. 116, 3175 (2002)
                   Be, Mg : Obtained from the TURBOMOLE 7.0 basis set library
                            C. Haettig, Phys. Chem. Chem. Phys. 7, 59 (2005)
                       Ne : Obtained from the EMSL Basis Set Exchange (bse.pnl.gov) Feb. 2017
                            C. Haettig, Phys. Chem. Chem. Phys. 7, 59 (2005)
                            F. Weigend, A. Kohn, C. Hattig, J. Chem. Phys. 116, 3175 (2002)
                    Sc-Zn : Obtained from the EMSL Basis Set Exchange (bse.pnl.gov) Feb. 2017
                            J. G. Hill, J. A. Platts, J. Chem. Phys. 128, 044104 (2008)

================================================================================
                                        WARNINGS
                       Please study these warnings very carefully!
================================================================================


WARNING: No MP2 level density has been requested!
         To caclulate MP2 level properties use
         %mp2 Density relaxed end
         or
         %mp2 Density unrelaxed end

INFO   : the flag for use of the SHARK integral package has been found!

================================================================================

----- Orbital basis set information -----
Your calculation utilizes the basis: aug-cc-pVQZ 
    H, B-Ne : Obtained from the ccRepo (grant-hill.group.shef.ac.uk/ccrepo) Feb. 2017
              R. A. Kendall, T. H. Dunning, Jr., R. J. Harrison, J. Chem. Phys. 96, 6796 (1992)
         He : Obtained from the ccRepo (grant-hill.group.shef.ac.uk/ccrepo) Feb. 2017
              D. E. Woon, T. H. Dunning, Jr., J. Chem. Phys. 100, 2975 (1994)
  Li-Be, Na : Obtained from the ccRepo (grant-hill.group.shef.ac.uk/ccrepo) Feb. 2017
              B. P. Prascher, D. E. Woon, K. A. Peterson, T. H. Dunning, Jr., A. K. Wilson, Theor. Chem. Acc. 128, 69 (2011)
         Mg : Obtained from the Peterson Research Group Website (tyr0.chem.wsu.edu/~kipeters) Feb. 2017
              B. P. Prascher, D. E. Woon, K. A. Peterson, T. H. Dunning, Jr., A. K. Wilson, Theor. Chem. Acc. 128, 69 (2011)
      Al-Ar : Obtained from the ccRepo (grant-hill.group.shef.ac.uk/ccrepo) Feb. 2017
              D. E. Woon, T. H. Dunning, Jr., J. Chem. Phys. 98, 1358 (1993)
      Sc-Zn : Obtained from the ccRepo (grant-hill.group.shef.ac.uk/ccrepo) Feb. 2017
              N. B. Balabanov, K. A. Peterson, J. Chem. Phys. 123, 064107 (2005)
              N. B. Balabanov, K. A. Peterson, J. Chem. Phys. 125, 074110 (2006)
      Ga-Kr : Obtained from the ccRepo (grant-hill.group.shef.ac.uk/ccrepo) Feb. 2017
              A. K. Wilson, D. E. Woon, K. A. Peterson, T. H. Dunning, Jr., J. Chem. Phys. 110, 7667 (1999)

----- AuxC basis set information -----
Your calculation utilizes the auxiliary basis: aug-cc-pVQZ/C 
  H-He, B-F, Al-Ar, Ga-Kr : Obtained from the EMSL Basis Set Exchange (bse.pnl.gov) Feb. 2017
                            F. Weigend, A. Kohn, C. Hattig, J. Chem. Phys. 116, 3175 (2002)
                   Be, Mg : Obtained from the TURBOMOLE 7.0 basis set library
                            C. Haettig, Phys. Chem. Chem. Phys. 7, 59 (2005)
                       Ne : Obtained from the EMSL Basis Set Exchange (bse.pnl.gov) Feb. 2017
                            C. Haettig, Phys. Chem. Chem. Phys. 7, 59 (2005)
                            F. Weigend, A. Kohn, C. Hattig, J. Chem. Phys. 116, 3175 (2002)
                    Sc-Zn : Obtained from the EMSL Basis Set Exchange (bse.pnl.gov) Feb. 2017
                            D. H. Bross, J. G. Hill, H. J. Werner, K. A. Peterson, J. Chem. Phys. 139, 094302 (2013)

================================================================================
                                        WARNINGS
                       Please study these warnings very carefully!
================================================================================


WARNING: No MP2 level density has been requested!
         To caclulate MP2 level properties use
         %mp2 Density relaxed end
         or
         %mp2 Density unrelaxed end

INFO   : the flag for use of the SHARK integral package has been found!

================================================================================
                                       INPUT FILE
================================================================================
NAME = B-P_9_AB.inp
|  1> ! ri-mp2 aug-cc-pvdz aug-cc-pvdz/c tightscf
|  2> %pal nprocs 16 end
|  3> %maxcore 3800
|  4> %base "DZ_B-P_9_AB"
|  5> %scf
|  6> STABPerform true 
|  7> STABRestartUHFifUnstable true
|  8> end
|  9> 
| 10> *xyz 0 1
| 11> P         0.761572   -0.019385   -0.613520
| 12> B        -1.084169    0.005569   -0.061629
| 13> O        -1.731041   -1.180767    0.080010
| 14> O        -1.807524    1.149395    0.130449
| 15> C         1.387370   -1.451395    0.363729
| 16> H         1.226302   -1.338382    1.435774
| 17> H         2.452818   -1.582682    0.177623
| 18> C         1.437510    1.408813    0.348854
| 19> H         2.520895    1.432916    0.234465
| 20> H         1.203170    1.367593    1.413077
| 21> H         1.060929    2.347171   -0.061515
| 22> H         0.871860   -2.350530    0.030344
| 23> H        -2.665377   -1.072870    0.291174
| 24> H        -1.314093    1.966185    0.030831
| 25> *
| 26> 
| 27> $new_job
| 28> ! ri-mp2 aug-cc-pvtz aug-cc-pvtz/c tightscf
| 29> %pal nprocs 16 end
| 30> %maxcore 3800
| 31> %base "TZ_B-P_9_AB"
| 32> 
| 33> *xyz 0 1
| 34> P         0.761572   -0.019385   -0.613520
| 35> B        -1.084169    0.005569   -0.061629
| 36> O        -1.731041   -1.180767    0.080010
| 37> O        -1.807524    1.149395    0.130449
| 38> C         1.387370   -1.451395    0.363729
| 39> H         1.226302   -1.338382    1.435774
| 40> H         2.452818   -1.582682    0.177623
| 41> C         1.437510    1.408813    0.348854
| 42> H         2.520895    1.432916    0.234465
| 43> H         1.203170    1.367593    1.413077
| 44> H         1.060929    2.347171   -0.061515
| 45> H         0.871860   -2.350530    0.030344
| 46> H        -2.665377   -1.072870    0.291174
| 47> H        -1.314093    1.966185    0.030831
| 48> *
| 49> 
| 50> $new_job
| 51> ! ri-mp2 aug-cc-pvqz aug-cc-pvqz/c tightscf
| 52> %pal nprocs 16 end
| 53> %maxcore 3800
| 54> %base "QZ_B-P_9_AB"
| 55> 
| 56> *xyz 0 1
| 57> P         0.761572   -0.019385   -0.613520
| 58> B        -1.084169    0.005569   -0.061629
| 59> O        -1.731041   -1.180767    0.080010
| 60> O        -1.807524    1.149395    0.130449
| 61> C         1.387370   -1.451395    0.363729
| 62> H         1.226302   -1.338382    1.435774
| 63> H         2.452818   -1.582682    0.177623
| 64> C         1.437510    1.408813    0.348854
| 65> H         2.520895    1.432916    0.234465
| 66> H         1.203170    1.367593    1.413077
| 67> H         1.060929    2.347171   -0.061515
| 68> H         0.871860   -2.350530    0.030344
| 69> H        -2.665377   -1.072870    0.291174
| 70> H        -1.314093    1.966185    0.030831
| 71> *
| 72> 
| 73> 
| 74> 
| 75> 
| 76>                          ****END OF INPUT****
================================================================================


                 $$$$$$$$$$$$$$$$$$$$$$$$$$$$$$$$$$$$$$$$$$$$$$ 
                 $ THERE ARE  3 JOBS TO BE PROCESSED THIS RUN $
                 $$$$$$$$$$$$$$$$$$$$$$$$$$$$$$$$$$$$$$$$$$$$$$ 




                 $$$$$$$$$$$$$$$$  JOB NUMBER  1 $$$$$$$$$$$$$$


                       ****************************
                       * Single Point Calculation *
                       ****************************

---------------------------------
CARTESIAN COORDINATES (ANGSTROEM)
---------------------------------
  P      0.761572   -0.019385   -0.613520
  B     -1.084169    0.005569   -0.061629
  O     -1.731041   -1.180767    0.080010
  O     -1.807524    1.149395    0.130449
  C      1.387370   -1.451395    0.363729
  H      1.226302   -1.338382    1.435774
  H      2.452818   -1.582682    0.177623
  C      1.437510    1.408813    0.348854
  H      2.520895    1.432916    0.234465
  H      1.203170    1.367593    1.413077
  H      1.060929    2.347171   -0.061515
  H      0.871860   -2.350530    0.030344
  H     -2.665377   -1.072870    0.291174
  H     -1.314093    1.966185    0.030831

----------------------------
CARTESIAN COORDINATES (A.U.)
----------------------------
  NO LB      ZA    FRAG     MASS         X           Y           Z
   0 P    15.0000    0    30.974    1.439163   -0.036632   -1.159385
   1 B     5.0000    0    10.810   -2.048782    0.010524   -0.116462
   2 O     8.0000    0    15.999   -3.271193   -2.231326    0.151197
   3 O     8.0000    0    15.999   -3.415725    2.172042    0.246513
   4 C     6.0000    0    12.011    2.621749   -2.742739    0.687348
   5 H     1.0000    0     1.008    2.317375   -2.529175    2.713220
   6 H     1.0000    0     1.008    4.635154   -2.990836    0.335659
   7 C     6.0000    0    12.011    2.716500    2.662271    0.659239
   8 H     1.0000    0     1.008    4.763801    2.707819    0.443075
   9 H     1.0000    0     1.008    2.273662    2.584376    2.670329
  10 H     1.0000    0     1.008    2.004865    4.435510   -0.116247
  11 H     1.0000    0     1.008    1.647577   -4.441858    0.057342
  12 H     1.0000    0     1.008   -5.036833   -2.027430    0.550239
  13 H     1.0000    0     1.008   -2.483276    3.715551    0.058262

--------------------------------
INTERNAL COORDINATES (ANGSTROEM)
--------------------------------
 P      0   0   0     0.000000000000     0.00000000     0.00000000
 B      1   0   0     1.926646365340     0.00000000     0.00000000
 O      2   1   0     1.358638324059   118.33836434     0.00000000
 O      2   1   3     1.366921479963   123.92128509   183.54947738
 C      1   2   3     1.843174268729   100.57082543   319.62018369
 H      5   1   2     1.089951980969   113.00171789   303.26578156
 H      5   1   2     1.089518774647   109.57707037   181.54908730
 C      1   2   3     1.850082544895   101.01165332   215.52728162
 H      8   1   2     1.089673738398   109.00898731   172.46570489
 H      8   1   2     1.090497555123   113.57528800    51.39642248
 H      8   1   2     1.091206534936   110.00632173   288.93988680
 H      5   1   2     1.088733147539   108.57293242    63.64763242
 H      3   2   1     0.963958380015   112.74234859   184.46805802
 H      4   2   1     0.959449739061   115.19030049   355.85607063

---------------------------
INTERNAL COORDINATES (A.U.)
---------------------------
 P      0   0   0     0.000000000000     0.00000000     0.00000000
 B      1   0   0     3.640833987407     0.00000000     0.00000000
 O      2   1   0     2.567454347521   118.33836434     0.00000000
 O      2   1   3     2.583107243705   123.92128509   183.54947738
 C      1   2   3     3.483094584989   100.57082543   319.62018369
 H      5   1   2     2.059710743156   113.00171789   303.26578156
 H      5   1   2     2.058892101849   109.57707037   181.54908730
 C      1   2   3     3.496149334999   101.01165332   215.52728162
 H      8   1   2     2.059184940899   109.00898731   172.46570489
 H      8   1   2     2.060741728893   113.57528800    51.39642248
 H      8   1   2     2.062081506573   110.00632173   288.93988680
 H      5   1   2     2.057407481771   108.57293242    63.64763242
 H      3   2   1     1.821617342727   112.74234859   184.46805802
 H      4   2   1     1.813097246088   115.19030049   355.85607063

---------------------
BASIS SET INFORMATION
---------------------
There are 5 groups of distinct atoms

 Group   1 Type P   : 35s16p2d contracted to 5s4p2d pattern {11111111/7711/11}
 Group   2 Type B   : 18s5p2d contracted to 4s3p2d pattern {8811/311/11}
 Group   3 Type O   : 18s5p2d contracted to 4s3p2d pattern {8811/311/11}
 Group   4 Type C   : 18s5p2d contracted to 4s3p2d pattern {8811/311/11}
 Group   5 Type H   : 5s2p contracted to 3s2p pattern {311/11}

Atom   0P    basis set group =>   1
Atom   1B    basis set group =>   2
Atom   2O    basis set group =>   3
Atom   3O    basis set group =>   3
Atom   4C    basis set group =>   4
Atom   5H    basis set group =>   5
Atom   6H    basis set group =>   5
Atom   7C    basis set group =>   4
Atom   8H    basis set group =>   5
Atom   9H    basis set group =>   5
Atom  10H    basis set group =>   5
Atom  11H    basis set group =>   5
Atom  12H    basis set group =>   5
Atom  13H    basis set group =>   5
---------------------------------
AUXILIARY/C BASIS SET INFORMATION
---------------------------------
There are 5 groups of distinct atoms

 Group   1 Type P   : 10s8p6d4f contracted to 10s8p6d4f pattern {1111111111/11111111/111111/1111}
 Group   2 Type B   : 8s6p5d3f contracted to 8s6p5d3f pattern {11111111/111111/11111/111}
 Group   3 Type O   : 8s6p5d3f contracted to 8s6p5d3f pattern {11111111/111111/11111/111}
 Group   4 Type C   : 8s6p5d3f contracted to 8s6p5d3f pattern {11111111/111111/11111/111}
 Group   5 Type H   : 4s3p2d contracted to 4s3p2d pattern {1111/111/11}

Atom   0P    basis set group =>   1
Atom   1B    basis set group =>   2
Atom   2O    basis set group =>   3
Atom   3O    basis set group =>   3
Atom   4C    basis set group =>   4
Atom   5H    basis set group =>   5
Atom   6H    basis set group =>   5
Atom   7C    basis set group =>   4
Atom   8H    basis set group =>   5
Atom   9H    basis set group =>   5
Atom  10H    basis set group =>   5
Atom  11H    basis set group =>   5
Atom  12H    basis set group =>   5
Atom  13H    basis set group =>   5


           ************************************************************
           *        Program running with 16 parallel MPI-processes    *
           *              working on a common directory               *
           ************************************************************
------------------------------------------------------------------------------
                           ORCA GTO INTEGRAL CALCULATION
------------------------------------------------------------------------------
------------------------------------------------------------------------------
                   ___                                                        
                  /   \      - P O W E R E D   B Y -                         
                 /     \                                                     
                 |  |  |   _    _      __       _____    __    __             
                 |  |  |  | |  | |    /  \     |  _  \  |  |  /  |          
                  \  \/   | |  | |   /    \    | | | |  |  | /  /          
                 / \  \   | |__| |  /  /\  \   | |_| |  |  |/  /          
                |  |  |   |  __  | /  /__\  \  |    /   |      \           
                |  |  |   | |  | | |   __   |  |    \   |  |\   \          
                \     /   | |  | | |  |  |  |  | |\  \  |  | \   \       
                 \___/    |_|  |_| |__|  |__|  |_| \__\ |__|  \__/        
                                                                              
                      - O R C A' S   B I G   F R I E N D -                    
                                      &                                       
                       - I N T E G R A L  F E E D E R -                       
                                                                              
 v1 FN, 2020, v2 2021                                                         
------------------------------------------------------------------------------


Reading SHARK input file DZ_B-P_9_AB.SHARKINP.tmp ... ok
----------------------
SHARK INTEGRAL PACKAGE
----------------------

Number of atoms                             ...     14
Number of basis functions                   ...    267
Number of shells                            ...    139
Maximum angular momentum                    ...      2
Integral batch strategy                     ... SHARK/LIBINT Hybrid
RI-J (if used) integral strategy            ... SPLIT-RIJ (Revised 2003 algorithm where possible)
Printlevel                                  ...      1
Contraction scheme used                     ... PARTIAL GENERAL contraction
Coulomb Range Separation                    ... NOT USED
Exchange Range Separation                   ... NOT USED
Finite Nucleus Model                        ... NOT USED
Auxiliary Coulomb fitting basis             ... NOT available
Auxiliary J/K fitting basis                 ... NOT available
Auxiliary Correlation fitting basis         ... AVAILABLE
   # of basis functions in Aux-C            ...    636
   # of shells in Aux-C                     ...    210
   Maximum angular momentum in Aux-C        ...      3
Auxiliary 'external' fitting basis          ... NOT available
Integral threshold                          ...     2.500000e-11
Primitive cut-off                           ...     2.500000e-12
Primitive pair pre-selection threshold      ...     2.500000e-12

Calculating pre-screening integrals         ... done (  0.0 sec) Dimension = 139
Calculating pre-screening integrals (ORCA)  ... done (  0.1 sec) Dimension = 96
Organizing shell pair data                  ... done (  0.1 sec)
Shell pair information
Total number of shell pairs                 ...      9730
Shell pairs after pre-screening             ...      8339
Total number of primitive shell pairs       ...     13734
Primitive shell pairs kept                  ...     10808
          la=0 lb=0:   2896 shell pairs
          la=1 lb=0:   3104 shell pairs
          la=1 lb=1:    803 shell pairs
          la=2 lb=0:    988 shell pairs
          la=2 lb=1:    470 shell pairs
          la=2 lb=2:     78 shell pairs

Calculating one electron integrals          ... done (  0.0 sec)
Calculating RI/C V-Matrix + Cholesky decomp.... done (  3.9 sec)
Calculating Nuclear repulsion               ... done (  0.0 sec) ENN=    295.841749886789 Eh

SHARK setup successfully completed in   6.6 seconds

Maximum memory used throughout the entire GTOINT-calculation: 31.2 MB


           ************************************************************
           *        Program running with 16 parallel MPI-processes    *
           *              working on a common directory               *
           ************************************************************
-------------------------------------------------------------------------------
                                 ORCA SCF
-------------------------------------------------------------------------------

------------
SCF SETTINGS
------------
Hamiltonian:
 Ab initio Hamiltonian  Method          .... Hartree-Fock(GTOs)


General Settings:
 Integral files         IntName         .... DZ_B-P_9_AB
 Hartree-Fock type      HFTyp           .... RHF
 Total Charge           Charge          ....    0
 Multiplicity           Mult            ....    1
 Number of Electrons    NEL             ....   56
 Basis Dimension        Dim             ....  214
 Nuclear Repulsion      ENuc            ....    295.8417498868 Eh

Convergence Acceleration:
 DIIS                   CNVDIIS         .... on
   Start iteration      DIISMaxIt       ....    12
   Startup error        DIISStart       ....  0.200000
   # of expansion vecs  DIISMaxEq       ....     5
   Bias factor          DIISBfac        ....   1.050
   Max. coefficient     DIISMaxC        ....  10.000
 Trust-Rad. Augm. Hess. CNVTRAH         .... auto
   Auto Start mean grad. ratio tolernc. ....  1.125000
   Auto Start start iteration           ....    20
   Auto Start num. interpolation iter.  ....    10
   Max. Number of Micro iterations      ....    16
   Max. Number of Macro iterations      .... Maxiter - #DIIS iter
   Number of Davidson start vectors     ....     2
   Converg. threshold I  (grad. norm)   ....   1.000e-05
   Converg. threshold II (energy diff.) ....   1.000e-08
   Grad. Scal. Fac. for Micro threshold ....   0.100
   Minimum threshold for Micro iter.    ....   0.010
   NR start threshold (gradient norm)   ....   0.001
   Initial trust radius                 ....   0.400
   Minimum AH scaling param. (alpha)    ....   1.000
   Maximum AH scaling param. (alpha)    .... 1000.000
   Orbital update algorithm             .... Taylor
   White noise on init. David. guess    .... on
   Maximum white noise                  ....   0.010
   Quad. conv. algorithm                .... NR
 SOSCF                  CNVSOSCF        .... on
   Start iteration      SOSCFMaxIt      ....   150
   Startup grad/error   SOSCFStart      ....  0.003300
 Level Shifting         CNVShift        .... on
   Level shift para.    LevelShift      ....    0.2500
   Turn off err/grad.   ShiftErr        ....    0.0010
 Zerner damping         CNVZerner       .... off
 Static damping         CNVDamp         .... on
   Fraction old density DampFac         ....    0.7000
   Max. Damping (<1)    DampMax         ....    0.9800
   Min. Damping (>=0)   DampMin         ....    0.0000
   Turn off err/grad.   DampErr         ....    0.1000
 Fernandez-Rico         CNVRico         .... off

SCF Procedure:
 Maximum # iterations   MaxIter         ....   125
 SCF integral mode      SCFMode         .... Direct
   Integral package                     .... SHARK and LIBINT hybrid scheme
 Reset frequency        DirectResetFreq ....    20
 Integral Threshold     Thresh          ....  2.500e-11 Eh
 Primitive CutOff       TCut            ....  2.500e-12 Eh

Convergence Tolerance:
 Convergence Check Mode ConvCheckMode   .... Total+1el-Energy
 Convergence forced     ConvForced      .... 1
 Energy Change          TolE            ....  1.000e-08 Eh
 1-El. energy change                    ....  1.000e-05 Eh
 Orbital Gradient       TolG            ....  1.000e-05
 Orbital Rotation angle TolX            ....  1.000e-05
 DIIS Error             TolErr          ....  5.000e-07


Diagonalization of the overlap matrix:
Smallest eigenvalue                        ... 1.675e-04
Time for diagonalization                   ...    0.005 sec
Threshold for overlap eigenvalues          ... 1.000e-08
Number of eigenvalues below threshold      ... 0
Time for construction of square roots      ...    0.047 sec
Total time needed                          ...    0.053 sec

Time for model grid setup =    1.528 sec

------------------------------
INITIAL GUESS: MODEL POTENTIAL
------------------------------
Loading Hartree-Fock densities                     ... done
Calculating cut-offs                               ... done
Initializing the effective Hamiltonian             ... done
Setting up the integral package (SHARK)            ... done
Starting the Coulomb interaction                   ... done (   2.2 sec)
Reading the grid                                   ... done
Mapping shells                                     ... done
Starting the XC term evaluation                    ... done (   0.1 sec)
Transforming the Hamiltonian                       ... done (   0.4 sec)
Diagonalizing the Hamiltonian                      ... done (   0.0 sec)
Back transforming the eigenvectors                 ... done (   0.0 sec)
Now organizing SCF variables                       ... done
                      ------------------
                      INITIAL GUESS DONE (   4.5 sec)
                      ------------------
--------------
SCF ITERATIONS
--------------
ITER       Energy         Delta-E        Max-DP      RMS-DP      [F,P]     Damp
               ***  Starting incremental Fock matrix formation  ***
  0   -595.3605385343   0.000000000000 0.11372207  0.00266965  0.2624126 0.7000
  1   -595.4816852075  -0.121146673205 0.07487376  0.00192247  0.1612515 0.7000
                               ***Turning on DIIS***
  2   -595.5521990357  -0.070513828171 0.16526535  0.00433610  0.0932647 0.0000
  3   -595.0003984671   0.551800568614 0.02637349  0.00062868  0.0500946 0.0000
  4   -595.6351190405  -0.634720573455 0.01853970  0.00024619  0.0068846 0.0000
  5   -595.6773910492  -0.042272008715 0.00802318  0.00011061  0.0042616 0.0000
                      *** Initiating the SOSCF procedure ***
                           *** Shutting down DIIS ***
                      *** Re-Reading the Fockian *** 
                      *** Removing any level shift *** 
ITER      Energy       Delta-E        Grad      Rot      Max-DP    RMS-DP
  6   -595.69246663  -0.0150755816  0.001114  0.001114  0.003731  0.000053
               *** Restarting incremental Fock matrix formation ***
  7   -595.69487142  -0.0024047873  0.000452  0.000877  0.001099  0.000025
  8   -595.69487810  -0.0000066868  0.000208  0.000759  0.001048  0.000020
  9   -595.69487983  -0.0000017243  0.000038  0.000028  0.000199  0.000003
 10   -595.69487987  -0.0000000435  0.000019  0.000018  0.000047  0.000001
 11   -595.69487988  -0.0000000088  0.000003  0.000009  0.000033  0.000001
                 **** Energy Check signals convergence ****
              ***Rediagonalizing the Fockian in SOSCF/NRSCF***

               *****************************************************
               *                     SUCCESS                       *
               *           SCF CONVERGED AFTER  12 CYCLES          *
               *****************************************************


------------------------------------------------------------------------------
                          SCF STABILITY ANALYSIS                              
------------------------------------------------------------------------------


                       ****Iteration    0****

   Memory handling for direct AO based CIS:
   Memory per vector needed      ...     1 MB
   Memory needed                 ...     6 MB
   Memory available              ...  3800 MB
   Number of vectors per batch   ...  3619
   Number of batches             ...     1
   Time for densities:     0.002
   Using LibInt in JK Direct
   Time for K (Direct):     2.784
   Time for Sigma-Completion:     0.291
   Lowest Energy          :     0.245330549074
   Maximum Energy change  :     0.267761709690 (vector 2)
   Maximum residual norm  :     0.002267370111

                       ****Iteration    1****
   Time for densities:     0.001
   Using LibInt in JK Direct
   Time for K (Direct):     1.784
   Time for Sigma-Completion:     0.124
   Lowest Energy          :     0.208375565289
   Maximum Energy change  :     0.048074215130 (vector 1)
   Maximum residual norm  :     0.006923427102

                       ****Iteration    2****
   Time for densities:     0.001
   Using LibInt in JK Direct
   Time for K (Direct):     1.756
   Time for Sigma-Completion:     0.086
   Lowest Energy          :     0.136645529655
   Maximum Energy change  :     0.071730035633 (vector 0)
   Maximum residual norm  :     0.005625267751

                       ****Iteration    3****
   Time for densities:     0.001
   Using LibInt in JK Direct
   Time for K (Direct):     1.792
   Time for Sigma-Completion:     0.249
   Lowest Energy          :     0.121658388921
   Maximum Energy change  :     0.015862246435 (vector 1)
   Maximum residual norm  :     0.000862701860

                       ****Iteration    4****
   Time for densities:     0.001
   Using LibInt in JK Direct
   Time for K (Direct):     1.768
   Time for Sigma-Completion:     0.127
   Lowest Energy          :     0.119710848305
   Maximum Energy change  :     0.001947540615 (vector 0)
   Maximum residual norm  :     0.000166624048

                       ****Iteration    5****
   Time for densities:     0.001
   Using LibInt in JK Direct
   Time for K (Direct):     1.715
   Time for Sigma-Completion:     0.122
   Lowest Energy          :     0.119374063007
   Maximum Energy change  :     0.000418593527 (vector 1)
   Maximum residual norm  :     0.000046300619

      *** CONVERGENCE OF RESIDUAL NORM REACHED ***

----------------------------- 
SCF STABILITY ANALYSIS RESULT 
----------------------------- 

RHF/RKS->UHF/UKS - triplet - external

   Root    Eigenvalue (au) 
     0       0.119374 
     1       0.137984 
     2       0.206207 

Stability Analysis indicates a stable HF/KS wave function.


Total time for performing the stability analysis:    15.126sec


----------------
TOTAL SCF ENERGY
----------------

Total Energy       :         -595.69487988 Eh          -16209.68177 eV

Components:
Nuclear Repulsion  :          295.84174989 Eh            8050.26328 eV
Electronic Energy  :         -891.53662977 Eh          -24259.94505 eV
One Electron Energy:        -1408.13868464 Eh          -38317.40163 eV
Two Electron Energy:          516.60205488 Eh           14057.45658 eV

Virial components:
Potential Energy   :        -1191.21940172 Eh          -32414.72785 eV
Kinetic Energy     :          595.52452184 Eh           16205.04609 eV
Virial Ratio       :            2.00028606


---------------
SCF CONVERGENCE
---------------

  Last Energy change         ...    2.6549e-09  Tolerance :   1.0000e-08
  Last MAX-Density change    ...    1.3372e-05  Tolerance :   1.0000e-07
  Last RMS-Density change    ...    1.8059e-07  Tolerance :   5.0000e-09
  Last Orbital Gradient      ...    1.6893e-06  Tolerance :   1.0000e-05
  Last Orbital Rotation      ...    5.0031e-06  Tolerance :   1.0000e-05

             **** THE GBW FILE WAS UPDATED (DZ_B-P_9_AB.gbw) ****
             **** DENSITY DZ_B-P_9_AB.scfp WAS UPDATED ****
             **** ENERGY FILE WAS UPDATED (DZ_B-P_9_AB.en.tmp) ****
             **** THE GBW FILE WAS UPDATED (DZ_B-P_9_AB.gbw) ****
             **** DENSITY DZ_B-P_9_AB.scfp WAS UPDATED ****
----------------
ORBITAL ENERGIES
----------------

  NO   OCC          E(Eh)            E(eV) 
   0   2.0000     -79.922849     -2174.8113 
   1   2.0000     -20.585735      -560.1663 
   2   2.0000     -20.577308      -559.9370 
   3   2.0000     -11.235746      -305.7402 
   4   2.0000     -11.226160      -305.4793 
   5   2.0000      -7.654972      -208.3024 
   6   2.0000      -7.465376      -203.1432 
   7   2.0000      -5.359980      -145.8525 
   8   2.0000      -5.359529      -145.8402 
   9   2.0000      -5.358172      -145.8033 
  10   2.0000      -1.395505       -37.9736 
  11   2.0000      -1.353848       -36.8401 
  12   2.0000      -1.003625       -27.3100 
  13   2.0000      -0.939674       -25.5698 
  14   2.0000      -0.793100       -21.5814 
  15   2.0000      -0.756463       -20.5844 
  16   2.0000      -0.716228       -19.4896 
  17   2.0000      -0.620376       -16.8813 
  18   2.0000      -0.591674       -16.1003 
  19   2.0000      -0.576174       -15.6785 
  20   2.0000      -0.572658       -15.5828 
  21   2.0000      -0.569734       -15.5033 
  22   2.0000      -0.555214       -15.1081 
  23   2.0000      -0.549271       -14.9464 
  24   2.0000      -0.505371       -13.7518 
  25   2.0000      -0.461409       -12.5556 
  26   2.0000      -0.434947       -11.8355 
  27   2.0000      -0.326191        -8.8761 
  28   0.0000       0.030779         0.8375 
  29   0.0000       0.043359         1.1799 
  30   0.0000       0.045533         1.2390 
  31   0.0000       0.053261         1.4493 
  32   0.0000       0.062380         1.6975 
  33   0.0000       0.067769         1.8441 
  34   0.0000       0.072569         1.9747 
  35   0.0000       0.075994         2.0679 
  36   0.0000       0.083853         2.2818 
  37   0.0000       0.091094         2.4788 
  38   0.0000       0.095523         2.5993 
  39   0.0000       0.108175         2.9436 
  40   0.0000       0.122848         3.3429 
  41   0.0000       0.125482         3.4145 
  42   0.0000       0.134429         3.6580 
  43   0.0000       0.155542         4.2325 
  44   0.0000       0.166234         4.5234 
  45   0.0000       0.170132         4.6295 
  46   0.0000       0.172652         4.6981 
  47   0.0000       0.182030         4.9533 
  48   0.0000       0.189537         5.1576 
  49   0.0000       0.194202         5.2845 
  50   0.0000       0.205871         5.6020 
  51   0.0000       0.212270         5.7762 
  52   0.0000       0.219745         5.9796 
  53   0.0000       0.231467         6.2985 
  54   0.0000       0.239467         6.5162 
  55   0.0000       0.243009         6.6126 
  56   0.0000       0.247787         6.7426 
  57   0.0000       0.251734         6.8500 
  58   0.0000       0.255495         6.9524 
  59   0.0000       0.267481         7.2785 
  60   0.0000       0.270275         7.3546 
  61   0.0000       0.285317         7.7639 
  62   0.0000       0.297561         8.0971 
  63   0.0000       0.299960         8.1623 
  64   0.0000       0.324518         8.8306 
  65   0.0000       0.331769         9.0279 
  66   0.0000       0.336787         9.1644 
  67   0.0000       0.366745         9.9797 
  68   0.0000       0.371898        10.1199 
  69   0.0000       0.383545        10.4368 
  70   0.0000       0.396333        10.7848 
  71   0.0000       0.408964        11.1285 
  72   0.0000       0.419232        11.4079 
  73   0.0000       0.430904        11.7255 
  74   0.0000       0.440598        11.9893 
  75   0.0000       0.449193        12.2232 
  76   0.0000       0.462158        12.5760 
  77   0.0000       0.466704        12.6997 
  78   0.0000       0.470264        12.7965 
  79   0.0000       0.479492        13.0476 
  80   0.0000       0.489884        13.3304 
  81   0.0000       0.498553        13.5663 
  82   0.0000       0.510104        13.8806 
  83   0.0000       0.516827        14.0636 
  84   0.0000       0.530545        14.4369 
  85   0.0000       0.535879        14.5820 
  86   0.0000       0.546093        14.8599 
  87   0.0000       0.552626        15.0377 
  88   0.0000       0.557747        15.1771 
  89   0.0000       0.562375        15.3030 
  90   0.0000       0.580586        15.7985 
  91   0.0000       0.585803        15.9405 
  92   0.0000       0.590906        16.0794 
  93   0.0000       0.598701        16.2915 
  94   0.0000       0.601069        16.3559 
  95   0.0000       0.613594        16.6967 
  96   0.0000       0.625456        17.0195 
  97   0.0000       0.629953        17.1419 
  98   0.0000       0.639236        17.3945 
  99   0.0000       0.653712        17.7884 
 100   0.0000       0.673454        18.3256 
 101   0.0000       0.687098        18.6969 
 102   0.0000       0.691485        18.8163 
 103   0.0000       0.696174        18.9439 
 104   0.0000       0.703237        19.1360 
 105   0.0000       0.712905        19.3991 
 106   0.0000       0.715617        19.4729 
 107   0.0000       0.722129        19.6501 
 108   0.0000       0.742390        20.2015 
 109   0.0000       0.749989        20.4082 
 110   0.0000       0.774078        21.0637 
 111   0.0000       0.774602        21.0780 
 112   0.0000       0.785993        21.3880 
 113   0.0000       0.807129        21.9631 
 114   0.0000       0.810720        22.0608 
 115   0.0000       0.823221        22.4010 
 116   0.0000       0.826974        22.5031 
 117   0.0000       0.840481        22.8706 
 118   0.0000       0.878352        23.9012 
 119   0.0000       0.885694        24.1010 
 120   0.0000       0.926273        25.2052 
 121   0.0000       0.955052        25.9883 
 122   0.0000       0.976994        26.5854 
 123   0.0000       1.006306        27.3830 
 124   0.0000       1.032681        28.1007 
 125   0.0000       1.071727        29.1632 
 126   0.0000       1.078195        29.3392 
 127   0.0000       1.094024        29.7699 
 128   0.0000       1.104348        30.0508 
 129   0.0000       1.109255        30.1844 
 130   0.0000       1.121355        30.5136 
 131   0.0000       1.129149        30.7257 
 132   0.0000       1.147953        31.2374 
 133   0.0000       1.154985        31.4287 
 134   0.0000       1.180370        32.1195 
 135   0.0000       1.200482        32.6668 
 136   0.0000       1.215583        33.0777 
 137   0.0000       1.228357        33.4253 
 138   0.0000       1.263514        34.3820 
 139   0.0000       1.274574        34.6829 
 140   0.0000       1.306461        35.5506 
 141   0.0000       1.325435        36.0669 
 142   0.0000       1.346031        36.6274 
 143   0.0000       1.373513        37.3752 
 144   0.0000       1.390138        37.8276 
 145   0.0000       1.433403        39.0049 
 146   0.0000       1.466439        39.9038 
 147   0.0000       1.473816        40.1046 
 148   0.0000       1.504103        40.9287 
 149   0.0000       1.520719        41.3809 
 150   0.0000       1.547371        42.1061 
 151   0.0000       1.553116        42.2624 
 152   0.0000       1.589557        43.2540 
 153   0.0000       1.601705        43.5846 
 154   0.0000       1.630170        44.3592 
 155   0.0000       1.692799        46.0634 
 156   0.0000       1.712747        46.6062 
 157   0.0000       1.741310        47.3835 
 158   0.0000       1.800555        48.9956 
 159   0.0000       1.810255        49.2595 
 160   0.0000       1.859348        50.5954 
 161   0.0000       1.875669        51.0396 
 162   0.0000       1.885710        51.3128 
 163   0.0000       1.895069        51.5675 
 164   0.0000       1.910093        51.9763 
 165   0.0000       1.935632        52.6712 
 166   0.0000       1.962207        53.3944 
 167   0.0000       2.028623        55.2016 
 168   0.0000       2.064241        56.1708 
 169   0.0000       2.094000        56.9806 
 170   0.0000       2.105233        57.2863 
 171   0.0000       2.112959        57.4965 
 172   0.0000       2.121235        57.7217 
 173   0.0000       2.149585        58.4932 
 174   0.0000       2.161698        58.8228 
 175   0.0000       2.175220        59.1908 
 176   0.0000       2.200490        59.8784 
 177   0.0000       2.222780        60.4849 
 178   0.0000       2.250186        61.2307 
 179   0.0000       2.263374        61.5895 
 180   0.0000       2.275510        61.9198 
 181   0.0000       2.315299        63.0025 
 182   0.0000       2.353791        64.0499 
 183   0.0000       2.365195        64.3602 
 184   0.0000       2.439092        66.3711 
 185   0.0000       2.485452        67.6326 
 186   0.0000       2.538645        69.0801 
 187   0.0000       2.548709        69.3539 
 188   0.0000       2.559835        69.6567 
 189   0.0000       2.578641        70.1684 
 190   0.0000       2.601313        70.7853 
 191   0.0000       2.609776        71.0156 
 192   0.0000       2.647091        72.0310 
 193   0.0000       2.703409        73.5635 
 194   0.0000       2.817087        76.6568 
 195   0.0000       2.870879        78.1206 
 196   0.0000       2.888355        78.5961 
 197   0.0000       2.991830        81.4118 
 198   0.0000       3.013736        82.0079 
 199   0.0000       3.044977        82.8580 
 200   0.0000       3.053213        83.0821 
 201   0.0000       3.064372        83.3858 
 202   0.0000       3.128386        85.1277 
 203   0.0000       3.579041        97.3907 
 204   0.0000       3.652479        99.3890 
 205   0.0000       3.693324       100.5005 
 206   0.0000       3.724823       101.3576 
 207   0.0000       3.742328       101.8339 
 208   0.0000       3.752193       102.1024 
 209   0.0000       3.801822       103.4528 
 210   0.0000       3.881592       105.6235 
 211   0.0000       3.902965       106.2051 
 212   0.0000       4.283550       116.5613 
 213   0.0000       4.315765       117.4379 

                    ********************************
                    * MULLIKEN POPULATION ANALYSIS *
                    ********************************

-----------------------
MULLIKEN ATOMIC CHARGES
-----------------------
   0 P :    0.143088
   1 B :    1.388693
   2 O :   -0.675032
   3 O :   -0.684423
   4 C :    0.254401
   5 H :   -0.202402
   6 H :   -0.173579
   7 C :    0.247696
   8 H :   -0.197685
   9 H :   -0.187727
  10 H :   -0.233770
  11 H :   -0.184926
  12 H :    0.239493
  13 H :    0.266173
Sum of atomic charges:   -0.0000000

--------------------------------
MULLIKEN REDUCED ORBITAL CHARGES
--------------------------------
  0 P s       :     5.380536  s :     5.380536
      pz      :     3.315795  p :     9.309247
      px      :     3.137402
      py      :     2.856050
      dz2     :     0.016423  d :     0.167129
      dxz     :     0.047487
      dyz     :     0.074095
      dx2y2   :     0.034827
      dxy     :    -0.005704
  1 B s       :     2.401926  s :     2.401926
      pz      :     0.227822  p :     1.075684
      px      :     0.487108
      py      :     0.360754
      dz2     :     0.015355  d :     0.133697
      dxz     :     0.016152
      dyz     :     0.037945
      dx2y2   :     0.132270
      dxy     :    -0.068025
  2 O s       :     3.967686  s :     3.967686
      pz      :     1.811152  p :     4.698132
      px      :     1.291440
      py      :     1.595540
      dz2     :    -0.000886  d :     0.009214
      dxz     :    -0.000643
      dyz     :     0.005679
      dx2y2   :     0.001650
      dxy     :     0.003413
  3 O s       :     4.005336  s :     4.005336
      pz      :     1.832870  p :     4.671306
      px      :     1.635136
      py      :     1.203300
      dz2     :    -0.001303  d :     0.007781
      dxz     :     0.004721
      dyz     :     0.000807
      dx2y2   :     0.003593
      dxy     :    -0.000038
  4 C s       :     2.996877  s :     2.996877
      pz      :     0.929534  p :     2.768308
      px      :     0.867225
      py      :     0.971549
      dz2     :    -0.006414  d :    -0.019586
      dxz     :     0.002259
      dyz     :     0.001618
      dx2y2   :    -0.017792
      dxy     :     0.000743
  5 H s       :     1.190623  s :     1.190623
      pz      :     0.024153  p :     0.011779
      px      :    -0.004485
      py      :    -0.007889
  6 H s       :     1.185586  s :     1.185586
      pz      :    -0.005336  p :    -0.012007
      px      :     0.002045
      py      :    -0.008716
  7 C s       :     3.028691  s :     3.028691
      pz      :     0.916028  p :     2.746288
      px      :     0.877768
      py      :     0.952492
      dz2     :    -0.005443  d :    -0.022675
      dxz     :     0.001591
      dyz     :     0.000067
      dx2y2   :    -0.024839
      dxy     :     0.005949
  8 H s       :     1.205368  s :     1.205368
      pz      :    -0.003184  p :    -0.007683
      px      :     0.004518
      py      :    -0.009018
  9 H s       :     1.189681  s :     1.189681
      pz      :     0.016244  p :    -0.001954
      px      :    -0.009352
      py      :    -0.008846
 10 H s       :     1.238920  s :     1.238920
      pz      :    -0.001587  p :    -0.005150
      px      :    -0.002082
      py      :    -0.001481
 11 H s       :     1.189029  s :     1.189029
      pz      :    -0.003221  p :    -0.004103
      px      :    -0.002680
      py      :     0.001798
 12 H s       :     0.681133  s :     0.681133
      pz      :     0.025492  p :     0.079374
      px      :     0.036102
      py      :     0.017779
 13 H s       :     0.664865  s :     0.664865
      pz      :     0.023276  p :     0.068962
      px      :     0.025949
      py      :     0.019737


                     *******************************
                     * LOEWDIN POPULATION ANALYSIS *
                     *******************************

----------------------
LOEWDIN ATOMIC CHARGES
----------------------
   0 P :    0.858163
   1 B :   -0.394505
   2 O :    0.110377
   3 O :    0.121997
   4 C :   -0.075530
   5 H :   -0.062876
   6 H :   -0.071298
   7 C :   -0.084465
   8 H :   -0.069867
   9 H :   -0.062743
  10 H :   -0.073926
  11 H :   -0.063698
  12 H :   -0.053659
  13 H :   -0.077972

-------------------------------
LOEWDIN REDUCED ORBITAL CHARGES
-------------------------------
  0 P s       :     4.781045  s :     4.781045
      pz      :     3.148452  p :     8.662364
      px      :     2.830279
      py      :     2.683634
      dz2     :     0.122506  d :     0.698427
      dxz     :     0.079468
      dyz     :     0.158971
      dx2y2   :     0.201272
      dxy     :     0.136210
  1 B s       :     2.407107  s :     2.407107
      pz      :     0.337532  p :     1.715002
      px      :     0.736604
      py      :     0.640866
      dz2     :     0.124380  d :     1.272396
      dxz     :     0.192234
      dyz     :     0.228479
      dx2y2   :     0.390450
      dxy     :     0.336852
  2 O s       :     3.237339  s :     3.237339
      pz      :     1.589509  p :     4.510785
      px      :     1.335844
      py      :     1.585432
      dz2     :     0.017113  d :     0.141498
      dxz     :     0.008106
      dyz     :     0.010614
      dx2y2   :     0.059611
      dxy     :     0.046054
  3 O s       :     3.233697  s :     3.233697
      pz      :     1.606311  p :     4.505040
      px      :     1.567958
      py      :     1.330771
      dz2     :     0.018252  d :     0.139266
      dxz     :     0.005885
      dyz     :     0.010669
      dx2y2   :     0.040874
      dxy     :     0.063586
  4 C s       :     2.655109  s :     2.655109
      pz      :     0.988997  p :     2.947996
      px      :     0.976180
      py      :     0.982820
      dz2     :     0.145249  d :     0.472425
      dxz     :     0.037054
      dyz     :     0.103319
      dx2y2   :     0.102336
      dxy     :     0.084467
  5 H s       :     0.755827  s :     0.755827
      pz      :     0.149989  p :     0.307049
      px      :     0.077458
      py      :     0.079602
  6 H s       :     0.761288  s :     0.761288
      pz      :     0.082057  p :     0.310010
      px      :     0.146981
      py      :     0.080972
  7 C s       :     2.656279  s :     2.656279
      pz      :     0.990621  p :     2.951043
      px      :     0.977100
      py      :     0.983322
      dz2     :     0.142029  d :     0.477143
      dxz     :     0.039768
      dyz     :     0.108664
      dx2y2   :     0.113169
      dxy     :     0.073512
  8 H s       :     0.757689  s :     0.757689
      pz      :     0.081245  p :     0.312178
      px      :     0.150826
      py      :     0.080107
  9 H s       :     0.755719  s :     0.755719
      pz      :     0.149179  p :     0.307023
      px      :     0.079519
      py      :     0.078326
 10 H s       :     0.759160  s :     0.759160
      pz      :     0.089642  p :     0.314766
      px      :     0.090856
      py      :     0.134268
 11 H s       :     0.750901  s :     0.750901
      pz      :     0.085390  p :     0.312796
      px      :     0.096974
      py      :     0.130432
 12 H s       :     0.613423  s :     0.613423
      pz      :     0.120644  p :     0.440236
      px      :     0.207172
      py      :     0.112419
 13 H s       :     0.618680  s :     0.618680
      pz      :     0.121965  p :     0.459292
      px      :     0.158380
      py      :     0.178947


                      *****************************
                      * MAYER POPULATION ANALYSIS *
                      *****************************

  NA   - Mulliken gross atomic population
  ZA   - Total nuclear charge
  QA   - Mulliken gross atomic charge
  VA   - Mayer's total valence
  BVA  - Mayer's bonded valence
  FA   - Mayer's free valence

  ATOM       NA         ZA         QA         VA         BVA        FA
  0 P     14.8569    15.0000     0.1431     2.5191     2.5191     0.0000
  1 B      3.6113     5.0000     1.3887     1.8798     1.8798    -0.0000
  2 O      8.6750     8.0000    -0.6750     1.6160     1.6160    -0.0000
  3 O      8.6844     8.0000    -0.6844     1.4242     1.4242    -0.0000
  4 C      5.7456     6.0000     0.2544     3.9236     3.9236    -0.0000
  5 H      1.2024     1.0000    -0.2024     0.9227     0.9227    -0.0000
  6 H      1.1736     1.0000    -0.1736     0.7834     0.7834    -0.0000
  7 C      5.7523     6.0000     0.2477     3.9143     3.9143    -0.0000
  8 H      1.1977     1.0000    -0.1977     0.7933     0.7933     0.0000
  9 H      1.1877     1.0000    -0.1877     0.8768     0.8768    -0.0000
 10 H      1.2338     1.0000    -0.2338     0.8073     0.8073    -0.0000
 11 H      1.1849     1.0000    -0.1849     0.8301     0.8301     0.0000
 12 H      0.7605     1.0000     0.2395     0.9616     0.9616    -0.0000
 13 H      0.7338     1.0000     0.2662     0.8932     0.8932    -0.0000

  Mayer bond orders larger than 0.100000
B(  0-P ,  1-B ) :   0.7832 B(  0-P ,  4-C ) :   1.0087 B(  0-P ,  7-C ) :   0.9699 
B(  1-B ,  2-O ) :   0.7131 B(  1-B ,  3-O ) :   0.6611 B(  2-O ,  3-O ) :  -0.1265 
B(  2-O , 12-H ) :   0.9551 B(  3-O , 13-H ) :   0.8994 B(  4-C ,  5-H ) :   1.0357 
B(  4-C ,  6-H ) :   0.9888 B(  4-C , 11-H ) :   0.9903 B(  7-C ,  8-H ) :   1.0045 
B(  7-C ,  9-H ) :   1.0218 B(  7-C , 10-H ) :   0.9912 

-------
TIMINGS
-------

Total SCF time: 0 days 0 hours 0 min 35 sec 

Total time                  ....      35.914 sec
Sum of individual times     ....      33.827 sec  ( 94.2%)

Fock matrix formation       ....      12.308 sec  ( 34.3%)
Diagonalization             ....       0.703 sec  (  2.0%)
Density matrix formation    ....       0.007 sec  (  0.0%)
Population analysis         ....       0.837 sec  (  2.3%)
Initial guess               ....       3.009 sec  (  8.4%)
Orbital Transformation      ....       0.000 sec  (  0.0%)
Orbital Orthonormalization  ....       0.000 sec  (  0.0%)
DIIS solution               ....       0.171 sec  (  0.5%)
SOSCF solution              ....       0.138 sec  (  0.4%)
SCF Stability Analysis      ....      15.126 sec  ( 42.1%)

Maximum memory used throughout the entire SCF-calculation: 232.7 MB


           ************************************************************
           *        Program running with 16 parallel MPI-processes    *
           *              working on a common directory               *
           ************************************************************

------------------------------------------------------------------------------
                                ORCA  MP2 
------------------------------------------------------------------------------

Freezing NCore=20 chemical core electrons

-------------
RI-MP2 ENERGY
-------------
Dimension of the basis                    ...  214
Memory devoted to MP2                     ... 3800 MB   
Data format for buffers                   ... DOUBLE
Compression type for matrix containers    ... UNCOMPRESSED
Overall scaling of the MP2 energy         ...   1.000e+00
Calculating two index integrals           ... done (    0.005 sec)
Cholesky decomposition of V**-1           ... done (    0.024 sec)

-----------------
RI-TRANSFORMATION (AUX index driven)
-----------------

Dimension of the orbital-basis         ... 214
Dimension of the aux-basis             ... 636
Transformation of internal/external MOs...   10-  27 to   28- 213
Number Format for Storage              ... Double (8 Byte)
Integral mode                          ... Direct

First Phase: integral generation and transformation of MO indices
  Aux angular momentum 0               ... done (    0.010 sec)
  Aux angular momentum 1               ... done (    0.010 sec)
  Aux angular momentum 2               ... done (    0.011 sec)
  Aux angular momentum 3               ... done (    0.010 sec)
Closing buffer VIA ( 0.02 GB; CompressionRatio= 1.00)
  Phase 1 completed in     0.860 sec
Second Phase: sorting and transformation of aux index

IA-Transformation
Memory available                       ... 3754 MB 
Max. # MO pairs treated in a batch     ... 2    
# of internal orbitals                 ... 18
# batches for internal orbitals        ... 1
Closing buffer IAV ( 0.02 GB; CompressionRatio= 1.00)
(ia|v) transformation done in     4.047 sec

  Phase 2 completed in     4.357 sec
RI-Integral transformation completed in     5.343 sec
Opening buffers                              ... done

Starting loop over batches of integrals:

Operator 0  - window                       ... ( 10- 27)x( 28-213)
Operator 0  - Memory available             ...  3800 MB
Operator 0  - Memory needed per MO         ...   0.9 MB
Operator 0  - Number of orbitals per batch ... 2
Operator 0  - Number of batches            ... 1

OPERATOR  0   PASS   0:  MOs    10 ...   11 +   12 ...   13 +   14 ...   15 +   16 ...   17
                            +   18 ...   19 +   20 ...   21 +   22 ...   23 +   24 ...   25
                            +   26 ...   27
  Reading integrals       ... ok
Time spent in pair loops =     0.005 sec
Deleting buffer (Ka|jb)[aa] ...done

-----------------------------------------------
 RI-MP2 CORRELATION ENERGY:     -0.915077699 Eh
-----------------------------------------------


-------
TIMINGS
-------

Total time                :    5.745 sec
Integral trafo            :    5.353 sec ( 93.2%)
I/O of integrals          :    0.000 sec (  0.0%)
K(i,j) Operators          :    0.003 sec (  0.1%)
T(i,j) pair energies      :    0.000 sec (  0.0%)
V-calculation             :    0.005 sec (  0.1%)
V**(-1/2)                 :    0.024 sec (  0.4%)
Gamma(ia|P)               :    0.000 sec (  0.0%)
Gamma-Trafo               :    0.000 sec (  0.0%)
D(virtual)                :    0.000 sec (  0.0%)
D(internal)               :    0.000 sec (  0.0%)
W(virtual)                :    0.000 sec (  0.0%)
W(internal)               :    0.000 sec (  0.0%)
L(virtual)                :    0.000 sec (  0.0%)
L(internal)               :    0.000 sec (  0.0%)
G(D)                      :    0.000 sec (  0.0%)
G(Z)                      :    0.000 sec (  0.0%)
Z-Vector Solution         :    0.000 sec (  0.0%)
3-Index Derivative        :    0.000 sec (  0.0%)
2-Index Derivative        :    0.000 sec (  0.0%)
Separable Gradient        :    0.000 sec (  0.0%)


---------------------------------------
MP2 TOTAL ENERGY:     -596.609957577 Eh
---------------------------------------

Maximum memory used throughout the entire MP2-calculation: 91.2 MB

-------------------------   --------------------
FINAL SINGLE POINT ENERGY      -596.609957577497
-------------------------   --------------------


                            ***************************************
                            *     ORCA property calculations      *
                            ***************************************


  WARNING: The energy has been calculated at the MP2 level but the densities
           used in the property calculations are still SCF densities
           MP2 response densities have not been calculated 
           use %mp2 Density relaxed end
           or  %mp2 Density unrelaxed end

                                    ---------------------
                                    Active property flags
                                    ---------------------
   (+) Dipole Moment


------------------------------------------------------------------------------
                       ORCA ELECTRIC PROPERTIES CALCULATION
------------------------------------------------------------------------------

Dipole Moment Calculation                       ... on
Quadrupole Moment Calculation                   ... off
Polarizability Calculation                      ... off
GBWName                                         ... DZ_B-P_9_AB.gbw
Electron density                                ... DZ_B-P_9_AB.scfp
The origin for moment calculation is the CENTER OF MASS  = (-0.096665, -0.013888 -0.074313)

-------------
DIPOLE MOMENT
-------------
                                X             Y             Z
Electronic contribution:     -5.37778      -0.26848      -3.59747
Nuclear contribution   :      5.41323       0.77773       4.16151
                        -----------------------------------------
Total Dipole Moment    :      0.03545       0.50925       0.56404
                        -----------------------------------------
Magnitude (a.u.)       :      0.76075
Magnitude (Debye)      :      1.93367



--------------------
Rotational spectrum 
--------------------
 
Rotational constants in cm-1:     0.123783     0.075249     0.052362 
Rotational constants in MHz :  3710.931655  2255.908643  1569.777381 

 Dipole components along the rotational axes: 
x,y,z [a.u.] :    -0.019678     0.511490     0.562788 
x,y,z [Debye]:    -0.050018     1.300104     1.430494 

 

Timings for individual modules:

Sum of individual times         ...       51.654 sec (=   0.861 min)
GTO integral calculation        ...        7.749 sec (=   0.129 min)  15.0 %
SCF iterations                  ...       36.972 sec (=   0.616 min)  71.6 %
MP2 module                      ...        6.934 sec (=   0.116 min)  13.4 %


                 $$$$$$$$$$$$$$$$  JOB NUMBER  2 $$$$$$$$$$$$$$


                       ****************************
                       * Single Point Calculation *
                       ****************************

---------------------------------
CARTESIAN COORDINATES (ANGSTROEM)
---------------------------------
  P      0.761572   -0.019385   -0.613520
  B     -1.084169    0.005569   -0.061629
  O     -1.731041   -1.180767    0.080010
  O     -1.807524    1.149395    0.130449
  C      1.387370   -1.451395    0.363729
  H      1.226302   -1.338382    1.435774
  H      2.452818   -1.582682    0.177623
  C      1.437510    1.408813    0.348854
  H      2.520895    1.432916    0.234465
  H      1.203170    1.367593    1.413077
  H      1.060929    2.347171   -0.061515
  H      0.871860   -2.350530    0.030344
  H     -2.665377   -1.072870    0.291174
  H     -1.314093    1.966185    0.030831

----------------------------
CARTESIAN COORDINATES (A.U.)
----------------------------
  NO LB      ZA    FRAG     MASS         X           Y           Z
   0 P    15.0000    0    30.974    1.439163   -0.036632   -1.159385
   1 B     5.0000    0    10.810   -2.048782    0.010524   -0.116462
   2 O     8.0000    0    15.999   -3.271193   -2.231326    0.151197
   3 O     8.0000    0    15.999   -3.415725    2.172042    0.246513
   4 C     6.0000    0    12.011    2.621749   -2.742739    0.687348
   5 H     1.0000    0     1.008    2.317375   -2.529175    2.713220
   6 H     1.0000    0     1.008    4.635154   -2.990836    0.335659
   7 C     6.0000    0    12.011    2.716500    2.662271    0.659239
   8 H     1.0000    0     1.008    4.763801    2.707819    0.443075
   9 H     1.0000    0     1.008    2.273662    2.584376    2.670329
  10 H     1.0000    0     1.008    2.004865    4.435510   -0.116247
  11 H     1.0000    0     1.008    1.647577   -4.441858    0.057342
  12 H     1.0000    0     1.008   -5.036833   -2.027430    0.550239
  13 H     1.0000    0     1.008   -2.483276    3.715551    0.058262

--------------------------------
INTERNAL COORDINATES (ANGSTROEM)
--------------------------------
 P      0   0   0     0.000000000000     0.00000000     0.00000000
 B      1   0   0     1.926646365340     0.00000000     0.00000000
 O      2   1   0     1.358638324059   118.33836434     0.00000000
 O      2   1   3     1.366921479963   123.92128509   183.54947738
 C      1   2   3     1.843174268729   100.57082543   319.62018369
 H      5   1   2     1.089951980969   113.00171789   303.26578156
 H      5   1   2     1.089518774647   109.57707037   181.54908730
 C      1   2   3     1.850082544895   101.01165332   215.52728162
 H      8   1   2     1.089673738398   109.00898731   172.46570489
 H      8   1   2     1.090497555123   113.57528800    51.39642248
 H      8   1   2     1.091206534936   110.00632173   288.93988680
 H      5   1   2     1.088733147539   108.57293242    63.64763242
 H      3   2   1     0.963958380015   112.74234859   184.46805802
 H      4   2   1     0.959449739061   115.19030049   355.85607063

---------------------------
INTERNAL COORDINATES (A.U.)
---------------------------
 P      0   0   0     0.000000000000     0.00000000     0.00000000
 B      1   0   0     3.640833987407     0.00000000     0.00000000
 O      2   1   0     2.567454347521   118.33836434     0.00000000
 O      2   1   3     2.583107243705   123.92128509   183.54947738
 C      1   2   3     3.483094584989   100.57082543   319.62018369
 H      5   1   2     2.059710743156   113.00171789   303.26578156
 H      5   1   2     2.058892101849   109.57707037   181.54908730
 C      1   2   3     3.496149334999   101.01165332   215.52728162
 H      8   1   2     2.059184940899   109.00898731   172.46570489
 H      8   1   2     2.060741728893   113.57528800    51.39642248
 H      8   1   2     2.062081506573   110.00632173   288.93988680
 H      5   1   2     2.057407481771   108.57293242    63.64763242
 H      3   2   1     1.821617342727   112.74234859   184.46805802
 H      4   2   1     1.813097246088   115.19030049   355.85607063

---------------------
BASIS SET INFORMATION
---------------------
There are 5 groups of distinct atoms

 Group   1 Type P   : 42s17p3d2f contracted to 6s5p3d2f pattern {131313111/77111/111/11}
 Group   2 Type B   : 19s6p3d2f contracted to 5s4p3d2f pattern {88111/3111/111/11}
 Group   3 Type O   : 19s6p3d2f contracted to 5s4p3d2f pattern {88111/3111/111/11}
 Group   4 Type C   : 19s6p3d2f contracted to 5s4p3d2f pattern {88111/3111/111/11}
 Group   5 Type H   : 6s3p2d contracted to 4s3p2d pattern {3111/111/11}

Atom   0P    basis set group =>   1
Atom   1B    basis set group =>   2
Atom   2O    basis set group =>   3
Atom   3O    basis set group =>   3
Atom   4C    basis set group =>   4
Atom   5H    basis set group =>   5
Atom   6H    basis set group =>   5
Atom   7C    basis set group =>   4
Atom   8H    basis set group =>   5
Atom   9H    basis set group =>   5
Atom  10H    basis set group =>   5
Atom  11H    basis set group =>   5
Atom  12H    basis set group =>   5
Atom  13H    basis set group =>   5
---------------------------------
AUXILIARY/C BASIS SET INFORMATION
---------------------------------
There are 5 groups of distinct atoms

 Group   1 Type P   : 11s9p8d6f3g contracted to 11s9p8d6f3g pattern {11111111111/111111111/11111111/111111/111}
 Group   2 Type B   : 9s7p6d4f2g contracted to 9s7p6d4f2g pattern {111111111/1111111/111111/1111/11}
 Group   3 Type O   : 9s7p6d4f2g contracted to 9s7p6d4f2g pattern {111111111/1111111/111111/1111/11}
 Group   4 Type C   : 9s7p6d4f2g contracted to 9s7p6d4f2g pattern {111111111/1111111/111111/1111/11}
 Group   5 Type H   : 5s4p3d2f contracted to 5s4p3d2f pattern {11111/1111/111/11}

Atom   0P    basis set group =>   1
Atom   1B    basis set group =>   2
Atom   2O    basis set group =>   3
Atom   3O    basis set group =>   3
Atom   4C    basis set group =>   4
Atom   5H    basis set group =>   5
Atom   6H    basis set group =>   5
Atom   7C    basis set group =>   4
Atom   8H    basis set group =>   5
Atom   9H    basis set group =>   5
Atom  10H    basis set group =>   5
Atom  11H    basis set group =>   5
Atom  12H    basis set group =>   5
Atom  13H    basis set group =>   5


           ************************************************************
           *        Program running with 16 parallel MPI-processes    *
           *              working on a common directory               *
           ************************************************************
------------------------------------------------------------------------------
                           ORCA GTO INTEGRAL CALCULATION
------------------------------------------------------------------------------
------------------------------------------------------------------------------
                   ___                                                        
                  /   \      - P O W E R E D   B Y -                         
                 /     \                                                     
                 |  |  |   _    _      __       _____    __    __             
                 |  |  |  | |  | |    /  \     |  _  \  |  |  /  |          
                  \  \/   | |  | |   /    \    | | | |  |  | /  /          
                 / \  \   | |__| |  /  /\  \   | |_| |  |  |/  /          
                |  |  |   |  __  | /  /__\  \  |    /   |      \           
                |  |  |   | |  | | |   __   |  |    \   |  |\   \          
                \     /   | |  | | |  |  |  |  | |\  \  |  | \   \       
                 \___/    |_|  |_| |__|  |__|  |_| \__\ |__|  \__/        
                                                                              
                      - O R C A' S   B I G   F R I E N D -                    
                                      &                                       
                       - I N T E G R A L  F E E D E R -                       
                                                                              
 v1 FN, 2020, v2 2021                                                         
------------------------------------------------------------------------------


Reading SHARK input file TZ_B-P_9_AB.SHARKINP.tmp ... ok
----------------------
SHARK INTEGRAL PACKAGE
----------------------

Number of atoms                             ...     14
Number of basis functions                   ...    519
Number of shells                            ...    203
Maximum angular momentum                    ...      3
Integral batch strategy                     ... SHARK/LIBINT Hybrid
RI-J (if used) integral strategy            ... SPLIT-RIJ (Revised 2003 algorithm where possible)
Printlevel                                  ...      1
Contraction scheme used                     ... PARTIAL GENERAL contraction
Coulomb Range Separation                    ... NOT USED
Exchange Range Separation                   ... NOT USED
Finite Nucleus Model                        ... NOT USED
Auxiliary Coulomb fitting basis             ... NOT available
Auxiliary J/K fitting basis                 ... NOT available
Auxiliary Correlation fitting basis         ... AVAILABLE
   # of basis functions in Aux-C            ...   1045
   # of shells in Aux-C                     ...    289
   Maximum angular momentum in Aux-C        ...      4
Auxiliary 'external' fitting basis          ... NOT available
Integral threshold                          ...     2.500000e-11
Primitive cut-off                           ...     2.500000e-12
Primitive pair pre-selection threshold      ...     2.500000e-12

[...]
      f+1     :     0.000137
      f-1     :    -0.000289
      f+2     :    -0.000121
      f-2     :    -0.000220
      f+3     :    -0.000624
      f-3     :    -0.001136


                     *******************************
                     * LOEWDIN POPULATION ANALYSIS *
                     *******************************

----------------------
LOEWDIN ATOMIC CHARGES
----------------------
   0 P :    1.047911
   1 B :   -1.411400
   2 O :    1.291590
   3 O :    1.325210
   4 C :    0.751364
   5 H :   -0.342127
   6 H :   -0.357417
   7 C :    0.749510
   8 H :   -0.356871
   9 H :   -0.340254
  10 H :   -0.364148
  11 H :   -0.365429
  12 H :   -0.798017
  13 H :   -0.829922

-------------------------------
LOEWDIN REDUCED ORBITAL CHARGES
-------------------------------
  0 P s       :     4.522021  s :     4.522021
      pz      :     2.831173  p :     7.926780
      px      :     2.613360
      py      :     2.482247
      dz2     :     0.140590  d :     0.724574
      dxz     :     0.071127
      dyz     :     0.147002
      dx2y2   :     0.210605
      dxy     :     0.155249
      f0      :     0.043032  f :     0.575748
      f+1     :     0.040690
      f-1     :     0.116136
      f+2     :     0.083268
      f-2     :     0.083038
      f+3     :     0.069030
      f-3     :     0.140555
      g0      :     0.010493  g :     0.202967
      g+1     :     0.012765
      g-1     :     0.030075
      g+2     :     0.020147
      g-2     :     0.018079
      g+3     :     0.016299
      g-3     :     0.042708
      g+4     :     0.032443
      g-4     :     0.019958
  1 B s       :     2.299897  s :     2.299897
      pz      :     0.281150  p :     1.486235
      px      :     0.627041
      py      :     0.578044
      dz2     :     0.126837  d :     1.246547
      dxz     :     0.187715
      dyz     :     0.216603
      dx2y2   :     0.363352
      dxy     :     0.352040
      f0      :     0.078136  f :     0.939767
      f+1     :     0.082384
      f-1     :     0.079147
      f+2     :     0.096118
      f-2     :     0.130312
      f+3     :     0.170357
      f-3     :     0.303312
      g0      :     0.027394  g :     0.438955
      g+1     :     0.023038
      g-1     :     0.045061
      g+2     :     0.035440
      g-2     :     0.034962
      g+3     :     0.056463
      g-3     :     0.013933
      g+4     :     0.111986
      g-4     :     0.090679
  2 O s       :     2.858933  s :     2.858933
      pz      :     1.169446  p :     3.521209
      px      :     1.110541
      py      :     1.241222
      dz2     :     0.026694  d :     0.221093
      dxz     :     0.017988
      dyz     :     0.024038
      dx2y2   :     0.088487
      dxy     :     0.063886
      f0      :     0.006988  f :     0.088751
      f+1     :     0.005987
      f-1     :     0.010001
      f+2     :     0.006302
      f-2     :     0.005076
      f+3     :     0.017877
      f-3     :     0.036520
      g0      :     0.001339  g :     0.018424
      g+1     :     0.000628
      g-1     :     0.001043
      g+2     :     0.001671
      g-2     :     0.002014
      g+3     :     0.000958
      g-3     :     0.000477
      g+4     :     0.004605
      g-4     :     0.005689
  3 O s       :     2.851415  s :     2.851415
      pz      :     1.177205  p :     3.505436
      px      :     1.209881
      py      :     1.118350
      dz2     :     0.028016  d :     0.216080
      dxz     :     0.012646
      dyz     :     0.025863
      dx2y2   :     0.069879
      dxy     :     0.079675
      f0      :     0.006841  f :     0.084306
      f+1     :     0.004300
      f-1     :     0.011683
      f+2     :     0.005745
      f-2     :     0.005226
      f+3     :     0.017972
      f-3     :     0.032538
      g0      :     0.001273  g :     0.017554
      g+1     :     0.000544
      g-1     :     0.001244
      g+2     :     0.001127
      g-2     :     0.002137
      g+3     :     0.001124
      g-3     :     0.000587
      g+4     :     0.004397
      g-4     :     0.005122
  4 C s       :     2.407188  s :     2.407188
      pz      :     0.693669  p :     2.053476
      px      :     0.685049
      py      :     0.674758
      dz2     :     0.156992  d :     0.518967
      dxz     :     0.039011
      dyz     :     0.108332
      dx2y2   :     0.123019
      dxy     :     0.091613
      f0      :     0.021187  f :     0.221302
      f+1     :     0.016044
      f-1     :     0.056716
      f+2     :     0.028923
      f-2     :     0.029053
      f+3     :     0.032162
      f-3     :     0.037217
      g0      :     0.006250  g :     0.047703
      g+1     :     0.003157
      g-1     :     0.006562
      g+2     :     0.005184
      g-2     :     0.004006
      g+3     :     0.006689
      g-3     :     0.004964
      g+4     :     0.006575
      g-4     :     0.004316
  5 H s       :     0.600721  s :     0.600721
      pz      :     0.152474  p :     0.329687
      px      :     0.086443
      py      :     0.090770
      dz2     :     0.066307  d :     0.286905
      dxz     :     0.091056
      dyz     :     0.102790
      dx2y2   :     0.019943
      dxy     :     0.006809
      f0      :     0.024911  f :     0.124813
      f+1     :     0.034982
      f-1     :     0.046313
      f+2     :     0.013319
      f-2     :     0.004061
      f+3     :     0.000484
      f-3     :     0.000744
  6 H s       :     0.612163  s :     0.612163
      pz      :     0.091305  p :     0.333841
      px      :     0.150083
      py      :     0.092453
      dz2     :     0.035848  d :     0.287204
      dxz     :     0.090783
      dyz     :     0.007677
      dx2y2   :     0.049453
      dxy     :     0.103443
      f0      :     0.010206  f :     0.124209
      f+1     :     0.024855
      f-1     :     0.003760
      f+2     :     0.022569
      f-2     :     0.004946
      f+3     :     0.015027
      f-3     :     0.042848
  7 C s       :     2.405682  s :     2.405682
      pz      :     0.695591  p :     2.052013
      px      :     0.680363
      py      :     0.676058
      dz2     :     0.154137  d :     0.523631
      dxz     :     0.041019
      dyz     :     0.114504
      dx2y2   :     0.135847
      dxy     :     0.078124
      f0      :     0.020374  f :     0.221727
      f+1     :     0.020466
      f-1     :     0.053095
      f+2     :     0.028235
      f-2     :     0.028963
      f+3     :     0.031611
      f-3     :     0.038982
      g0      :     0.006094  g :     0.047437
      g+1     :     0.003426
      g-1     :     0.006127
      g+2     :     0.005013
      g-2     :     0.004191
      g+3     :     0.006604
      g-3     :     0.005068
      g+4     :     0.006641
      g-4     :     0.004273
  8 H s       :     0.606795  s :     0.606795
      pz      :     0.090303  p :     0.334905
      px      :     0.151870
      py      :     0.092732
      dz2     :     0.029885  d :     0.289949
      dxz     :     0.099280
      dyz     :     0.005951
      dx2y2   :     0.048582
      dxy     :     0.106251
      f0      :     0.013361  f :     0.125222
      f+1     :     0.018907
      f-1     :     0.003581
      f+2     :     0.027672
      f-2     :     0.002853
      f+3     :     0.013474
      f-3     :     0.045374
  9 H s       :     0.600484  s :     0.600484
      pz      :     0.151050  p :     0.329043
      px      :     0.089141
      py      :     0.088852
      dz2     :     0.068007  d :     0.286360
      dxz     :     0.086066
      dyz     :     0.102994
      dx2y2   :     0.024959
      dxy     :     0.004335
      f0      :     0.026405  f :     0.124367
      f+1     :     0.029403
      f-1     :     0.047601
      f+2     :     0.017276
      f-2     :     0.002116
      f+3     :     0.001071
      f-3     :     0.000495
 10 H s       :     0.602600  s :     0.602600
      pz      :     0.096931  p :     0.339112
      px      :     0.101185
      py      :     0.140995
      dz2     :     0.062741  d :     0.295721
      dxz     :     0.014220
      dyz     :     0.071301
      dx2y2   :     0.081842
      dxy     :     0.065616
      f0      :     0.005458  f :     0.126716
      f+1     :     0.005293
      f-1     :     0.037661
      f+2     :     0.016147
      f-2     :     0.010481
      f+3     :     0.011609
      f-3     :     0.040068
 11 H s       :     0.600665  s :     0.600665
      pz      :     0.093654  p :     0.339874
      px      :     0.107748
      py      :     0.138473
      dz2     :     0.055015  d :     0.297992
      dxz     :     0.017943
      dyz     :     0.071242
      dx2y2   :     0.095557
      dxy     :     0.058236
      f0      :     0.005704  f :     0.126898
      f+1     :     0.010185
      f-1     :     0.030361
      f+2     :     0.012313
      f-2     :     0.013088
      f+3     :     0.011887
      f-3     :     0.043359
 12 H s       :     0.563916  s :     0.563916
      pz      :     0.151601  p :     0.549649
      px      :     0.245570
      py      :     0.152478
      dz2     :     0.048624  d :     0.455087
      dxz     :     0.132098
      dyz     :     0.013657
      dx2y2   :     0.106679
      dxy     :     0.154029
      f0      :     0.021516  f :     0.229366
      f+1     :     0.035783
      f-1     :     0.005284
      f+2     :     0.040580
      f-2     :     0.012427
      f+3     :     0.038376
      f-3     :     0.075400
 13 H s       :     0.562642  s :     0.562642
      pz      :     0.151386  p :     0.574780
      px      :     0.202607
      py      :     0.220787
      dz2     :     0.041651  d :     0.464739
      dxz     :     0.038913
      dyz     :     0.109200
      dx2y2   :     0.146319
      dxy     :     0.128656
      f0      :     0.027623  f :     0.227761
      f+1     :     0.010366
      f-1     :     0.020321
      f+2     :     0.014407
      f-2     :     0.033646
      f+3     :     0.037777
      f-3     :     0.083620


                      *****************************
                      * MAYER POPULATION ANALYSIS *
                      *****************************

  NA   - Mulliken gross atomic population
  ZA   - Total nuclear charge
  QA   - Mulliken gross atomic charge
  VA   - Mayer's total valence
  BVA  - Mayer's bonded valence
  FA   - Mayer's free valence

  ATOM       NA         ZA         QA         VA         BVA        FA
  0 P     14.4418    15.0000     0.5582     2.7782     2.7782    -0.0000
  1 B      3.7252     5.0000     1.2748     1.8743     1.8743     0.0000
  2 O      8.9882     8.0000    -0.9882     1.1923     1.1923    -0.0000
  3 O      9.1540     8.0000    -1.1540     1.1768     1.1768     0.0000
  4 C      7.1730     6.0000    -1.1730     3.4844     3.4844     0.0000
  5 H      0.7325     1.0000     0.2675     1.0777     1.0777     0.0000
  6 H      0.6366     1.0000     0.3634     0.9544     0.9544     0.0000
  7 C      7.1199     6.0000    -1.1199     3.4896     3.4896     0.0000
  8 H      0.6647     1.0000     0.3353     0.9697     0.9697     0.0000
  9 H      0.7278     1.0000     0.2722     1.0550     1.0550     0.0000
 10 H      0.6771     1.0000     0.3229     0.9718     0.9718     0.0000
 11 H      0.6296     1.0000     0.3704     0.9654     0.9654    -0.0000
 12 H      0.6810     1.0000     0.3190     0.9395     0.9395     0.0000
 13 H      0.6485     1.0000     0.3515     0.8850     0.8850    -0.0000

  Mayer bond orders larger than 0.100000
B(  0-P ,  1-B ) :   1.0386 B(  0-P ,  4-C ) :   0.8780 B(  0-P ,  7-C ) :   0.8577 
B(  1-B ,  2-O ) :   0.4343 B(  1-B ,  3-O ) :   0.4007 B(  2-O ,  3-O ) :  -0.1063 
B(  2-O , 12-H ) :   0.9471 B(  3-O , 13-H ) :   0.9178 B(  4-C ,  5-H ) :   0.9132 
B(  4-C ,  6-H ) :   0.8770 B(  4-C , 11-H ) :   0.8655 B(  7-C ,  8-H ) :   0.9019 
B(  7-C ,  9-H ) :   0.8966 B(  7-C , 10-H ) :   0.9042 

-------
TIMINGS
-------

Total SCF time: 0 days 0 hours 41 min 11 sec 

Total time                  ....    2471.188 sec
Sum of individual times     ....    2465.838 sec  ( 99.8%)

Fock matrix formation       ....     734.171 sec  ( 29.7%)
Diagonalization             ....       0.864 sec  (  0.0%)
Density matrix formation    ....       0.081 sec  (  0.0%)
Population analysis         ....       0.473 sec  (  0.0%)
Initial guess               ....       0.338 sec  (  0.0%)
Orbital Transformation      ....       0.000 sec  (  0.0%)
Orbital Orthonormalization  ....       0.000 sec  (  0.0%)
DIIS solution               ....       0.413 sec  (  0.0%)
SOSCF solution              ....       1.479 sec  (  0.1%)
SCF Stability Analysis      ....    1728.018 sec  ( 69.9%)

Maximum memory used throughout the entire SCF-calculation: 286.4 MB


           ************************************************************
           *        Program running with 16 parallel MPI-processes    *
           *              working on a common directory               *
           ************************************************************

------------------------------------------------------------------------------
                                ORCA  MP2 
------------------------------------------------------------------------------

Freezing NCore=20 chemical core electrons

-------------
RI-MP2 ENERGY
-------------
Dimension of the basis                    ...  852
Memory devoted to MP2                     ... 3800 MB   
Data format for buffers                   ... DOUBLE
Compression type for matrix containers    ... UNCOMPRESSED
Overall scaling of the MP2 energy         ...   1.000e+00
Calculating two index integrals           ... done (    0.028 sec)
Cholesky decomposition of V**-1           ... done (    0.448 sec)

-----------------
RI-TRANSFORMATION (AUX index driven)
-----------------

Dimension of the orbital-basis         ... 852
Dimension of the aux-basis             ... 1674
Transformation of internal/external MOs...   10-  27 to   28- 851
Number Format for Storage              ... Double (8 Byte)
Integral mode                          ... Direct

First Phase: integral generation and transformation of MO indices
  Aux angular momentum 0               ... done (    0.094 sec)
  Aux angular momentum 1               ... done (    0.180 sec)
  Aux angular momentum 2               ... done (    0.256 sec)
  Aux angular momentum 3               ... done (    0.310 sec)
  Aux angular momentum 4               ... done (    0.314 sec)
  Aux angular momentum 5               ... done (    0.165 sec)
Closing buffer VIA ( 0.19 GB; CompressionRatio= 1.00)
  Phase 1 completed in     8.580 sec
Second Phase: sorting and transformation of aux index

IA-Transformation
Memory available                       ... 3725 MB 
Max. # MO pairs treated in a batch     ... 2    
# of internal orbitals                 ... 18
# batches for internal orbitals        ... 1
Closing buffer IAV ( 0.18 GB; CompressionRatio= 1.00)
(ia|v) transformation done in     0.412 sec

  Phase 2 completed in     0.831 sec
RI-Integral transformation completed in     9.523 sec
Opening buffers                              ... done

Starting loop over batches of integrals:

Operator 0  - window                       ... ( 10- 27)x( 28-851)
Operator 0  - Memory available             ...  3800 MB
Operator 0  - Memory needed per MO         ...  10.5 MB
Operator 0  - Number of orbitals per batch ... 2
Operator 0  - Number of batches            ... 1

OPERATOR  0   PASS   0:  MOs    10 ...   11 +   12 ...   13 +   14 ...   15 +   16 ...   17
                            +   18 ...   19 +   20 ...   21 +   22 ...   23 +   24 ...   25
                            +   26 ...   27
  Reading integrals       ... ok
Time spent in pair loops =     0.188 sec
Deleting buffer (Ka|jb)[aa] ...done

-----------------------------------------------
 RI-MP2 CORRELATION ENERGY:     -1.176706763 Eh
-----------------------------------------------


-------
TIMINGS
-------

Total time                :   12.209 sec
Integral trafo            :    9.534 sec ( 78.1%)
I/O of integrals          :    0.005 sec (  0.0%)
K(i,j) Operators          :    0.150 sec (  1.2%)
T(i,j) pair energies      :    0.007 sec (  0.1%)
V-calculation             :    0.028 sec (  0.2%)
V**(-1/2)                 :    0.448 sec (  3.7%)
Gamma(ia|P)               :    0.000 sec (  0.0%)
Gamma-Trafo               :    0.000 sec (  0.0%)
D(virtual)                :    0.000 sec (  0.0%)
D(internal)               :    0.000 sec (  0.0%)
W(virtual)                :    0.000 sec (  0.0%)
W(internal)               :    0.000 sec (  0.0%)
L(virtual)                :    0.000 sec (  0.0%)
L(internal)               :    0.000 sec (  0.0%)
G(D)                      :    0.000 sec (  0.0%)
G(Z)                      :    0.000 sec (  0.0%)
Z-Vector Solution         :    0.000 sec (  0.0%)
3-Index Derivative        :    0.000 sec (  0.0%)
2-Index Derivative        :    0.000 sec (  0.0%)
Separable Gradient        :    0.000 sec (  0.0%)


---------------------------------------
MP2 TOTAL ENERGY:     -596.976861214 Eh
---------------------------------------

Maximum memory used throughout the entire MP2-calculation: 196.8 MB

-------------------------   --------------------
FINAL SINGLE POINT ENERGY      -596.976861213806
-------------------------   --------------------


                            ***************************************
                            *     ORCA property calculations      *
                            ***************************************


  WARNING: The energy has been calculated at the MP2 level but the densities
           used in the property calculations are still SCF densities
           MP2 response densities have not been calculated 
           use %mp2 Density relaxed end
           or  %mp2 Density unrelaxed end

                                    ---------------------
                                    Active property flags
                                    ---------------------
   (+) Dipole Moment


------------------------------------------------------------------------------
                       ORCA ELECTRIC PROPERTIES CALCULATION
------------------------------------------------------------------------------

Dipole Moment Calculation                       ... on
Quadrupole Moment Calculation                   ... off
Polarizability Calculation                      ... off
GBWName                                         ... QZ_B-P_9_AB.gbw
Electron density                                ... QZ_B-P_9_AB.scfp
The origin for moment calculation is the CENTER OF MASS  = (-0.096665, -0.013888 -0.074313)

-------------
DIPOLE MOMENT
-------------
                                X             Y             Z
Electronic contribution:     -5.37104      -0.27003      -3.60688
Nuclear contribution   :      5.41323       0.77773       4.16151
                        -----------------------------------------
Total Dipole Moment    :      0.04219       0.50770       0.55464
                        -----------------------------------------
Magnitude (a.u.)       :      0.75310
Magnitude (Debye)      :      1.91423



--------------------
Rotational spectrum 
--------------------
 
Rotational constants in cm-1:     0.123783     0.075249     0.052362 
Rotational constants in MHz :  3710.931655  2255.908643  1569.777381 

 Dipole components along the rotational axes: 
x,y,z [a.u.] :    -0.026631     0.509945     0.553543 
x,y,z [Debye]:    -0.067691     1.296177     1.406994 

 

Timings for individual modules:

Sum of individual times         ...     2490.447 sec (=  41.507 min)
GTO integral calculation        ...        4.609 sec (=   0.077 min)   0.2 %
SCF iterations                  ...     2472.326 sec (=  41.205 min)  99.3 %
MP2 module                      ...       13.512 sec (=   0.225 min)   0.5 %



                             ****ORCA TERMINATED NORMALLY****
TOTAL RUN TIME: 0 days 0 hours 47 minutes 20 seconds 167 msec
