
                                 *****************
                                 * O   R   C   A *
                                 *****************

                                            #,                                       
                                            ###                                      
                                            ####                                     
                                            #####                                    
                                            ######                                   
                                           ########,                                 
                                     ,,################,,,,,                         
                               ,,#################################,,                 
                          ,,##########################################,,             
                       ,#########################################, ''#####,          
                    ,#############################################,,   '####,        
                  ,##################################################,,,,####,       
                ,###########''''           ''''###############################       
              ,#####''   ,,,,##########,,,,          '''####'''          '####       
            ,##' ,,,,###########################,,,                        '##       
           ' ,,###''''                  '''############,,,                           
         ,,##''                                '''############,,,,        ,,,,,,###''
      ,#''                                            '''#######################'''  
     '                                                          ''''####''''         
             ,#######,   #######,   ,#######,      ##                                
            ,#'     '#,  ##    ##  ,#'     '#,    #''#        ######   ,####,        
            ##       ##  ##   ,#'  ##            #'  '#       #        #'  '#        
            ##       ##  #######   ##           ,######,      #####,   #    #        
            '#,     ,#'  ##    ##  '#,     ,#' ,#      #,         ##   #,  ,#        
             '#######'   ##     ##  '#######'  #'      '#     #####' # '####'        



                  #######################################################
                  #                        -***-                        #
                  #          Department of theory and spectroscopy      #
                  #    Directorship and core code : Frank Neese         #
                  #        Max Planck Institute fuer Kohlenforschung    #
                  #                Kaiser Wilhelm Platz 1               #
                  #                 D-45470 Muelheim/Ruhr               #
                  #                      Germany                        #
                  #                                                     #
                  #                  All rights reserved                #
                  #                        -***-                        #
                  #######################################################


                         Program Version 5.0.4 -  RELEASE  -


 With contributions from (in alphabetic order):
   Daniel Aravena         : Magnetic Suceptibility
   Michael Atanasov       : Ab Initio Ligand Field Theory (pilot matlab implementation)
   Alexander A. Auer      : GIAO ZORA, VPT2 properties, NMR spectrum
   Ute Becker             : Parallelization
   Giovanni Bistoni       : ED, misc. LED, open-shell LED, HFLD
   Martin Brehm           : Molecular dynamics
   Dmytro Bykov           : SCF Hessian
   Vijay G. Chilkuri      : MRCI spin determinant printing, contributions to CSF-ICE
   Dipayan Datta          : RHF DLPNO-CCSD density
   Achintya Kumar Dutta   : EOM-CC, STEOM-CC
   Dmitry Ganyushin       : Spin-Orbit,Spin-Spin,Magnetic field MRCI
   Miquel Garcia          : C-PCM and meta-GGA Hessian, CC/C-PCM, Gaussian charge scheme
   Yang Guo               : DLPNO-NEVPT2, F12-NEVPT2, CIM, IAO-localization
   Andreas Hansen         : Spin unrestricted coupled pair/coupled cluster methods
   Benjamin Helmich-Paris : MC-RPA, TRAH-SCF, COSX integrals
   Lee Huntington         : MR-EOM, pCC
   Robert Izsak           : Overlap fitted RIJCOSX, COSX-SCS-MP3, EOM
   Marcus Kettner         : VPT2
   Christian Kollmar      : KDIIS, OOCD, Brueckner-CCSD(T), CCSD density, CASPT2, CASPT2-K
   Simone Kossmann        : Meta GGA functionals, TD-DFT gradient, OOMP2, MP2 Hessian
   Martin Krupicka        : Initial AUTO-CI
   Lucas Lang             : DCDCAS
   Marvin Lechner         : AUTO-CI (C++ implementation), FIC-MRCC
   Dagmar Lenk            : GEPOL surface, SMD
   Dimitrios Liakos       : Extrapolation schemes; Compound Job, initial MDCI parallelization
   Dimitrios Manganas     : Further ROCIS development; embedding schemes
   Dimitrios Pantazis     : SARC Basis sets
   Anastasios Papadopoulos: AUTO-CI, single reference methods and gradients
   Taras Petrenko         : DFT Hessian,TD-DFT gradient, ASA, ECA, R-Raman, ABS, FL, XAS/XES, NRVS
   Peter Pinski           : DLPNO-MP2, DLPNO-MP2 Gradient
   Christoph Reimann      : Effective Core Potentials
   Marius Retegan         : Local ZFS, SOC
   Christoph Riplinger    : Optimizer, TS searches, QM/MM, DLPNO-CCSD(T), (RO)-DLPNO pert. Triples
   Tobias Risthaus        : Range-separated hybrids, TD-DFT gradient, RPA, STAB
   Michael Roemelt        : Original ROCIS implementation
   Masaaki Saitow         : Open-shell DLPNO-CCSD energy and density
   Barbara Sandhoefer     : DKH picture change effects
   Avijit Sen             : IP-ROCIS
   Kantharuban Sivalingam : CASSCF convergence, NEVPT2, FIC-MRCI
   Bernardo de Souza      : ESD, SOC TD-DFT
   Georgi Stoychev        : AutoAux, RI-MP2 NMR, DLPNO-MP2 response
   Willem Van den Heuvel  : Paramagnetic NMR
   Boris Wezisla          : Elementary symmetry handling
   Frank Wennmohs         : Technical directorship


 We gratefully acknowledge several colleagues who have allowed us to
 interface, adapt or use parts of their codes:
   Stefan Grimme, W. Hujo, H. Kruse, P. Pracht,  : VdW corrections, initial TS optimization,
                  C. Bannwarth, S. Ehlert          DFT functionals, gCP, sTDA/sTD-DF
   Ed Valeev, F. Pavosevic, A. Kumar             : LibInt (2-el integral package), F12 methods
   Garnet Chan, S. Sharma, J. Yang, R. Olivares  : DMRG
   Ulf Ekstrom                                   : XCFun DFT Library
   Mihaly Kallay                                 : mrcc  (arbitrary order and MRCC methods)
   Jiri Pittner, Ondrej Demel                    : Mk-CCSD
   Frank Weinhold                                : gennbo (NPA and NBO analysis)
   Christopher J. Cramer and Donald G. Truhlar   : smd solvation model
   Lars Goerigk                                  : TD-DFT with DH, B97 family of functionals
   V. Asgeirsson, H. Jonsson                     : NEB implementation
   FAccTs GmbH                                   : IRC, NEB, NEB-TS, DLPNO-Multilevel, CI-OPT
                                                   MM, QMMM, 2- and 3-layer-ONIOM, Crystal-QMMM,
                                                   LR-CPCM, SF, NACMEs, symmetry and pop. for TD-DFT,
                                                   nearIR, NL-DFT gradient (VV10), updates on ESD,
                                                   ML-optimized integration grids
   S Lehtola, MJT Oliveira, MAL Marques          : LibXC Library
   Liviu Ungur et al                             : ANISO software


 Your calculation uses the libint2 library for the computation of 2-el integrals
 For citations please refer to: http://libint.valeyev.net

 Your ORCA version has been built with support for libXC version: 5.1.0
 For citations please refer to: https://tddft.org/programs/libxc/

 This ORCA versions uses:
   CBLAS   interface :  Fast vector & matrix operations
   LAPACKE interface :  Fast linear algebra routines
   SCALAPACK package :  Parallel linear algebra routines
   Shared memory     :  Shared parallel matrices
   BLAS/LAPACK       :  OpenBLAS 0.3.15  USE64BITINT DYNAMIC_ARCH NO_AFFINITY Zen SINGLE_THREADED
        Core in use  :  Zen
   Copyright (c) 2011-2014, The OpenBLAS Project


================================================================================

----- Orbital basis set information -----
Your calculation utilizes the basis: aug-cc-pVDZ 
    H, B-Ne : Obtained from the ccRepo (grant-hill.group.shef.ac.uk/ccrepo) Feb. 2017
              R. A. Kendall, T. H. Dunning, Jr., R. J. Harrison, J. Chem. Phys. 96, 6796 (1992)
         He : Obtained from the ccRepo (grant-hill.group.shef.ac.uk/ccrepo) Feb. 2017
              D. E. Woon, T. H. Dunning, Jr., J. Chem. Phys. 100, 2975 (1994)
  Li-Be, Na : Obtained from the ccRepo (grant-hill.group.shef.ac.uk/ccrepo) Feb. 2017
              B. P. Prascher, D. E. Woon, K. A. Peterson, T. H. Dunning, Jr., A. K. Wilson, Theor. Chem. Acc. 128, 69 (2011)
         Mg : Obtained from the Peterson Research Group Website (tyr0.chem.wsu.edu/~kipeters) Feb. 2017
              B. P. Prascher, D. E. Woon, K. A. Peterson, T. H. Dunning, Jr., A. K. Wilson, Theor. Chem. Acc. 128, 69 (2011)
      Al-Ar : Obtained from the ccRepo (grant-hill.group.shef.ac.uk/ccrepo) Feb. 2017
              D. E. Woon, T. H. Dunning, Jr., J. Chem. Phys. 98, 1358 (1993)
      Sc-Zn : Obtained from the ccRepo (grant-hill.group.shef.ac.uk/ccrepo) Feb. 2017
              N. B. Balabanov, K. A. Peterson, J. Chem. Phys. 123, 064107 (2005)
              N. B. Balabanov, K. A. Peterson, J. Chem. Phys. 125, 074110 (2006)
      Ga-Kr : Obtained from the ccRepo (grant-hill.group.shef.ac.uk/ccrepo) Feb. 2017
              A. K. Wilson, D. E. Woon, K. A. Peterson, T. H. Dunning, Jr., J. Chem. Phys. 110, 7667 (1999)

----- AuxC basis set information -----
Your calculation utilizes the auxiliary basis: aug-cc-pVDZ/C 
  H-He, B, Ne, Al-Ar, Ga-Ge, Se-Br : Obtained from the EMSL Basis Set Exchange (bse.pnl.gov) Feb. 2017
                                     F. Weigend, A. Kohn, C. Hattig, J. Chem. Phys. 116, 3175 (2002)
                            Be, Mg : Obtained from the TURBOMOLE 7.0 basis set library
                                     C. Haettig, Phys. Chem. Chem. Phys. 7, 59 (2005)
                               C-F : Obtained from the EMSL Basis Set Exchange (bse.pnl.gov) Feb. 2017
                                     C. Haettig, Phys. Chem. Chem. Phys. 7, 59 (2005)
                                     F. Weigend, A. Kohn, C. Hattig, J. Chem. Phys. 116, 3175 (2002)
                                As : Obtained from the EMSL Basis Set Exchange (bse.pnl.gov) Feb. 2017
                                     C. Haettig, G. Schmitz, J. Kossmann, Phys. Chem. Chem. Phys. 14, 6549 (2012)
                                Kr : Obtained from the TURBOMOLE 7.0 basis set library
                                     F. Weigend, A. Kohn, C. Hattig, J. Chem. Phys. 116, 3175 (2002)
                                     S function revised in Sep. 2009

================================================================================
                                        WARNINGS
                       Please study these warnings very carefully!
================================================================================


WARNING: No MP2 level density has been requested!
         To caclulate MP2 level properties use
         %mp2 Density relaxed end
         or
         %mp2 Density unrelaxed end

WARNING: Post HF methods need fully converged wavefunctions
  ===> : Setting SCFConvForced true
         You can overwrite this default with %scf ConvForced false 


INFO   : the flag for use of the SHARK integral package has been found!

================================================================================

----- Orbital basis set information -----
Your calculation utilizes the basis: aug-cc-pVTZ 
    H, B-Ne : Obtained from the ccRepo (grant-hill.group.shef.ac.uk/ccrepo) Feb. 2017
              R. A. Kendall, T. H. Dunning, Jr., R. J. Harrison, J. Chem. Phys. 96, 6796 (1992)
         He : Obtained from the ccRepo (grant-hill.group.shef.ac.uk/ccrepo) Feb. 2017
              D. E. Woon, T. H. Dunning, Jr., J. Chem. Phys. 100, 2975 (1994)
  Li-Be, Na : Obtained from the ccRepo (grant-hill.group.shef.ac.uk/ccrepo) Feb. 2017
              B. P. Prascher, D. E. Woon, K. A. Peterson, T. H. Dunning, Jr., A. K. Wilson, Theor. Chem. Acc. 128, 69 (2011)
         Mg : Obtained from the Peterson Research Group Website (tyr0.chem.wsu.edu/~kipeters) Feb. 2017
              B. P. Prascher, D. E. Woon, K. A. Peterson, T. H. Dunning, Jr., A. K. Wilson, Theor. Chem. Acc. 128, 69 (2011)
      Al-Ar : Obtained from the ccRepo (grant-hill.group.shef.ac.uk/ccrepo) Feb. 2017
              D. E. Woon, T. H. Dunning, Jr., J. Chem. Phys. 98, 1358 (1993)
      Sc-Zn : Obtained from the ccRepo (grant-hill.group.shef.ac.uk/ccrepo) Feb. 2017
              N. B. Balabanov, K. A. Peterson, J. Chem. Phys. 123, 064107 (2005)
              N. B. Balabanov, K. A. Peterson, J. Chem. Phys. 125, 074110 (2006)
      Ga-Kr : Obtained from the ccRepo (grant-hill.group.shef.ac.uk/ccrepo) Feb. 2017
              A. K. Wilson, D. E. Woon, K. A. Peterson, T. H. Dunning, Jr., J. Chem. Phys. 110, 7667 (1999)
     Ag, Au : Obtained from the Peterson Research Group Website (tyr0.chem.wsu.edu/~kipeters) Feb. 2017
              K. A. Peterson, C. Puzzarini, Theor. Chem. Acc. 114, 283 (2005)

----- AuxC basis set information -----
Your calculation utilizes the auxiliary basis: aug-cc-pVTZ/C 
  H-He, B-F, Al-Ar, Ga-Kr : Obtained from the EMSL Basis Set Exchange (bse.pnl.gov) Feb. 2017
                            F. Weigend, A. Kohn, C. Hattig, J. Chem. Phys. 116, 3175 (2002)
                   Be, Mg : Obtained from the TURBOMOLE 7.0 basis set library
                            C. Haettig, Phys. Chem. Chem. Phys. 7, 59 (2005)
                       Ne : Obtained from the EMSL Basis Set Exchange (bse.pnl.gov) Feb. 2017
                            C. Haettig, Phys. Chem. Chem. Phys. 7, 59 (2005)
                            F. Weigend, A. Kohn, C. Hattig, J. Chem. Phys. 116, 3175 (2002)
                    Sc-Zn : Obtained from the EMSL Basis Set Exchange (bse.pnl.gov) Feb. 2017
                            J. G. Hill, J. A. Platts, J. Chem. Phys. 128, 044104 (2008)

================================================================================
                                        WARNINGS
                       Please study these warnings very carefully!
================================================================================


WARNING: No MP2 level density has been requested!
         To caclulate MP2 level properties use
         %mp2 Density relaxed end
         or
         %mp2 Density unrelaxed end

INFO   : the flag for use of the SHARK integral package has been found!

================================================================================

----- Orbital basis set information -----
Your calculation utilizes the basis: aug-cc-pVQZ 
    H, B-Ne : Obtained from the ccRepo (grant-hill.group.shef.ac.uk/ccrepo) Feb. 2017
              R. A. Kendall, T. H. Dunning, Jr., R. J. Harrison, J. Chem. Phys. 96, 6796 (1992)
         He : Obtained from the ccRepo (grant-hill.group.shef.ac.uk/ccrepo) Feb. 2017
              D. E. Woon, T. H. Dunning, Jr., J. Chem. Phys. 100, 2975 (1994)
  Li-Be, Na : Obtained from the ccRepo (grant-hill.group.shef.ac.uk/ccrepo) Feb. 2017
              B. P. Prascher, D. E. Woon, K. A. Peterson, T. H. Dunning, Jr., A. K. Wilson, Theor. Chem. Acc. 128, 69 (2011)
         Mg : Obtained from the Peterson Research Group Website (tyr0.chem.wsu.edu/~kipeters) Feb. 2017
              B. P. Prascher, D. E. Woon, K. A. Peterson, T. H. Dunning, Jr., A. K. Wilson, Theor. Chem. Acc. 128, 69 (2011)
      Al-Ar : Obtained from the ccRepo (grant-hill.group.shef.ac.uk/ccrepo) Feb. 2017
              D. E. Woon, T. H. Dunning, Jr., J. Chem. Phys. 98, 1358 (1993)
      Sc-Zn : Obtained from the ccRepo (grant-hill.group.shef.ac.uk/ccrepo) Feb. 2017
              N. B. Balabanov, K. A. Peterson, J. Chem. Phys. 123, 064107 (2005)
              N. B. Balabanov, K. A. Peterson, J. Chem. Phys. 125, 074110 (2006)
      Ga-Kr : Obtained from the ccRepo (grant-hill.group.shef.ac.uk/ccrepo) Feb. 2017
              A. K. Wilson, D. E. Woon, K. A. Peterson, T. H. Dunning, Jr., J. Chem. Phys. 110, 7667 (1999)

----- AuxC basis set information -----
Your calculation utilizes the auxiliary basis: aug-cc-pVQZ/C 
  H-He, B-F, Al-Ar, Ga-Kr : Obtained from the EMSL Basis Set Exchange (bse.pnl.gov) Feb. 2017
                            F. Weigend, A. Kohn, C. Hattig, J. Chem. Phys. 116, 3175 (2002)
                   Be, Mg : Obtained from the TURBOMOLE 7.0 basis set library
                            C. Haettig, Phys. Chem. Chem. Phys. 7, 59 (2005)
                       Ne : Obtained from the EMSL Basis Set Exchange (bse.pnl.gov) Feb. 2017
                            C. Haettig, Phys. Chem. Chem. Phys. 7, 59 (2005)
                            F. Weigend, A. Kohn, C. Hattig, J. Chem. Phys. 116, 3175 (2002)
                    Sc-Zn : Obtained from the EMSL Basis Set Exchange (bse.pnl.gov) Feb. 2017
                            D. H. Bross, J. G. Hill, H. J. Werner, K. A. Peterson, J. Chem. Phys. 139, 094302 (2013)

================================================================================
                                        WARNINGS
                       Please study these warnings very carefully!
================================================================================


WARNING: No MP2 level density has been requested!
         To caclulate MP2 level properties use
         %mp2 Density relaxed end
         or
         %mp2 Density unrelaxed end

INFO   : the flag for use of the SHARK integral package has been found!

================================================================================
                                       INPUT FILE
================================================================================
NAME = B-P_78_AB.inp
|  1> ! ri-mp2 aug-cc-pvdz aug-cc-pvdz/c tightscf
|  2> %pal nprocs 16 end
|  3> %maxcore 3800
|  4> %base "DZ_B-P_78_AB"
|  5> %scf
|  6> STABPerform true 
|  7> STABRestartUHFifUnstable true
|  8> end
|  9> 
| 10> *xyz 0 1
| 11> C         2.192357   -0.006391    0.045479
| 12> N         0.844569   -0.276790   -0.118668
| 13> C        -0.152430    0.667656    0.025825
| 14> B        -2.162165   -1.534170    0.460077
| 15> O         3.032262   -0.853192   -0.072023
| 16> H         2.392068    1.043534    0.286972
| 17> O         0.061847    1.810468    0.330364
| 18> H         0.606606   -1.233727   -0.337276
| 19> P        -1.862002    0.083698   -0.367959
| 20> H        -1.297338   -2.348975    0.493552
| 21> H        -3.258575   -1.803904    0.822221
| 22> H        -2.606326    1.070173    0.289657
| 23> *
| 24> 
| 25> $new_job
| 26> ! ri-mp2 aug-cc-pvtz aug-cc-pvtz/c tightscf
| 27> %pal nprocs 16 end
| 28> %maxcore 3800
| 29> %base "TZ_B-P_78_AB"
| 30> 
| 31> *xyz 0 1
| 32> C         2.192357   -0.006391    0.045479
| 33> N         0.844569   -0.276790   -0.118668
| 34> C        -0.152430    0.667656    0.025825
| 35> B        -2.162165   -1.534170    0.460077
| 36> O         3.032262   -0.853192   -0.072023
| 37> H         2.392068    1.043534    0.286972
| 38> O         0.061847    1.810468    0.330364
| 39> H         0.606606   -1.233727   -0.337276
| 40> P        -1.862002    0.083698   -0.367959
| 41> H        -1.297338   -2.348975    0.493552
| 42> H        -3.258575   -1.803904    0.822221
| 43> H        -2.606326    1.070173    0.289657
| 44> *
| 45> 
| 46> $new_job
| 47> ! ri-mp2 aug-cc-pvqz aug-cc-pvqz/c tightscf
| 48> %pal nprocs 16 end
| 49> %maxcore 3800
| 50> %base "QZ_B-P_78_AB"
| 51> 
| 52> *xyz 0 1
| 53> C         2.192357   -0.006391    0.045479
| 54> N         0.844569   -0.276790   -0.118668
| 55> C        -0.152430    0.667656    0.025825
| 56> B        -2.162165   -1.534170    0.460077
| 57> O         3.032262   -0.853192   -0.072023
| 58> H         2.392068    1.043534    0.286972
| 59> O         0.061847    1.810468    0.330364
| 60> H         0.606606   -1.233727   -0.337276
| 61> P        -1.862002    0.083698   -0.367959
| 62> H        -1.297338   -2.348975    0.493552
| 63> H        -3.258575   -1.803904    0.822221
| 64> H        -2.606326    1.070173    0.289657
| 65> *
| 66> 
| 67> 
| 68> 
| 69> 
| 70>                          ****END OF INPUT****
================================================================================


                 $$$$$$$$$$$$$$$$$$$$$$$$$$$$$$$$$$$$$$$$$$$$$$ 
                 $ THERE ARE  3 JOBS TO BE PROCESSED THIS RUN $
                 $$$$$$$$$$$$$$$$$$$$$$$$$$$$$$$$$$$$$$$$$$$$$$ 




                 $$$$$$$$$$$$$$$$  JOB NUMBER  1 $$$$$$$$$$$$$$


                       ****************************
                       * Single Point Calculation *
                       ****************************

---------------------------------
CARTESIAN COORDINATES (ANGSTROEM)
---------------------------------
  C      2.192357   -0.006391    0.045479
  N      0.844569   -0.276790   -0.118668
  C     -0.152430    0.667656    0.025825
  B     -2.162165   -1.534170    0.460077
  O      3.032262   -0.853192   -0.072023
  H      2.392068    1.043534    0.286972
  O      0.061847    1.810468    0.330364
  H      0.606606   -1.233727   -0.337276
  P     -1.862002    0.083698   -0.367959
  H     -1.297338   -2.348975    0.493552
  H     -3.258575   -1.803904    0.822221
  H     -2.606326    1.070173    0.289657

----------------------------
CARTESIAN COORDINATES (A.U.)
----------------------------
  NO LB      ZA    FRAG     MASS         X           Y           Z
   0 C     6.0000    0    12.011    4.142954   -0.012077    0.085943
   1 N     7.0000    0    14.007    1.596004   -0.523057   -0.224250
   2 C     6.0000    0    12.011   -0.288051    1.261687    0.048802
   3 B     5.0000    0    10.810   -4.085900   -2.899161    0.869420
   4 O     8.0000    0    15.999    5.730145   -1.612299   -0.136104
   5 H     1.0000    0     1.008    4.520353    1.971993    0.542298
   6 O     8.0000    0    15.999    0.116874    3.421289    0.624297
   7 H     1.0000    0     1.008    1.146319   -2.331406   -0.637359
   8 P    15.0000    0    30.974   -3.518674    0.158166   -0.695342
   9 H     1.0000    0     1.008   -2.451614   -4.438919    0.932678
  10 H     1.0000    0     1.008   -6.157814   -3.408885    1.553773
  11 H     1.0000    0     1.008   -4.925242    2.022334    0.547372

--------------------------------
INTERNAL COORDINATES (ANGSTROEM)
--------------------------------
 C      0   0   0     0.000000000000     0.00000000     0.00000000
 N      1   0   0     1.384410470111     0.00000000     0.00000000
 C      2   1   0     1.380892276742   123.84204693     0.00000000
 B      3   2   1     3.012581501637    89.82018681   200.71517589
 O      1   2   3     1.198465294712   122.18453131   179.11578053
 H      1   2   3     1.095694235722   113.00044094   359.03582321
 O      3   2   1     1.201947545692   123.23591717   358.73214574
 H      2   1   3     1.010021915110   116.10921856   181.32727086
 P      4   3   2     1.842074458128    35.37114332   221.51424393
 H      4   3   2     1.188677207479    91.12842997     7.56292135
 H      4   3   2     1.185756971555   145.80496791   166.53723890
 H      9   4   3     1.399860688089   108.73026690   252.01997527

---------------------------
INTERNAL COORDINATES (A.U.)
---------------------------
 C      0   0   0     0.000000000000     0.00000000     0.00000000
 N      1   0   0     2.616156645444     0.00000000     0.00000000
 C      2   1   0     2.609508223490   123.84204693     0.00000000
 B      3   2   1     5.692953994211    89.82018681   200.71517589
 O      1   2   3     2.264771188016   122.18453131   179.11578053
 H      1   2   3     2.070562032031   113.00044094   359.03582321
 O      3   2   1     2.271351688696   123.23591717   358.73214574
 H      2   1   3     1.908664808816   116.10921856   181.32727086
 P      4   3   2     3.481016244154    35.37114332   221.51424393
 H      4   3   2     2.246274383769    91.12842997     7.56292135
 H      4   3   2     2.240755937627   145.80496791   166.53723890
 H      9   4   3     2.645353326131   108.73026690   252.01997527

---------------------
BASIS SET INFORMATION
---------------------
There are 6 groups of distinct atoms

 Group   1 Type C   : 18s5p2d contracted to 4s3p2d pattern {8811/311/11}
 Group   2 Type N   : 18s5p2d contracted to 4s3p2d pattern {8811/311/11}
 Group   3 Type B   : 18s5p2d contracted to 4s3p2d pattern {8811/311/11}
 Group   4 Type O   : 18s5p2d contracted to 4s3p2d pattern {8811/311/11}
 Group   5 Type H   : 5s2p contracted to 3s2p pattern {311/11}
 Group   6 Type P   : 35s16p2d contracted to 5s4p2d pattern {11111111/7711/11}

Atom   0C    basis set group =>   1
Atom   1N    basis set group =>   2
Atom   2C    basis set group =>   1
Atom   3B    basis set group =>   3
Atom   4O    basis set group =>   4
Atom   5H    basis set group =>   5
Atom   6O    basis set group =>   4
Atom   7H    basis set group =>   5
Atom   8P    basis set group =>   6
Atom   9H    basis set group =>   5
Atom  10H    basis set group =>   5
Atom  11H    basis set group =>   5
---------------------------------
AUXILIARY/C BASIS SET INFORMATION
---------------------------------
There are 6 groups of distinct atoms

 Group   1 Type C   : 8s6p5d3f contracted to 8s6p5d3f pattern {11111111/111111/11111/111}
 Group   2 Type N   : 8s6p5d3f contracted to 8s6p5d3f pattern {11111111/111111/11111/111}
 Group   3 Type B   : 8s6p5d3f contracted to 8s6p5d3f pattern {11111111/111111/11111/111}
 Group   4 Type O   : 8s6p5d3f contracted to 8s6p5d3f pattern {11111111/111111/11111/111}
 Group   5 Type H   : 4s3p2d contracted to 4s3p2d pattern {1111/111/11}
 Group   6 Type P   : 10s8p6d4f contracted to 10s8p6d4f pattern {1111111111/11111111/111111/1111}

Atom   0C    basis set group =>   1
Atom   1N    basis set group =>   2
Atom   2C    basis set group =>   1
Atom   3B    basis set group =>   3
Atom   4O    basis set group =>   4
Atom   5H    basis set group =>   5
Atom   6O    basis set group =>   4
Atom   7H    basis set group =>   5
Atom   8P    basis set group =>   6
Atom   9H    basis set group =>   5
Atom  10H    basis set group =>   5
Atom  11H    basis set group =>   5


           ************************************************************
           *        Program running with 16 parallel MPI-processes    *
           *              working on a common directory               *
           ************************************************************
------------------------------------------------------------------------------
                           ORCA GTO INTEGRAL CALCULATION
------------------------------------------------------------------------------
------------------------------------------------------------------------------
                   ___                                                        
                  /   \      - P O W E R E D   B Y -                         
                 /     \                                                     
                 |  |  |   _    _      __       _____    __    __             
                 |  |  |  | |  | |    /  \     |  _  \  |  |  /  |          
                  \  \/   | |  | |   /    \    | | | |  |  | /  /          
                 / \  \   | |__| |  /  /\  \   | |_| |  |  |/  /          
                |  |  |   |  __  | /  /__\  \  |    /   |      \           
                |  |  |   | |  | | |   __   |  |    \   |  |\   \          
                \     /   | |  | | |  |  |  |  | |\  \  |  | \   \       
                 \___/    |_|  |_| |__|  |__|  |_| \__\ |__|  \__/        
                                                                              
                      - O R C A' S   B I G   F R I E N D -                    
                                      &                                       
                       - I N T E G R A L  F E E D E R -                       
                                                                              
 v1 FN, 2020, v2 2021                                                         
------------------------------------------------------------------------------


Reading SHARK input file DZ_B-P_78_AB.SHARKINP.tmp ... ok
----------------------
SHARK INTEGRAL PACKAGE
----------------------

Number of atoms                             ...     12
Number of basis functions                   ...    269
Number of shells                            ...    139
Maximum angular momentum                    ...      2
Integral batch strategy                     ... SHARK/LIBINT Hybrid
RI-J (if used) integral strategy            ... SPLIT-RIJ (Revised 2003 algorithm where possible)
Printlevel                                  ...      1
Contraction scheme used                     ... PARTIAL GENERAL contraction
Coulomb Range Separation                    ... NOT USED
Exchange Range Separation                   ... NOT USED
Finite Nucleus Model                        ... NOT USED
Auxiliary Coulomb fitting basis             ... NOT available
Auxiliary J/K fitting basis                 ... NOT available
Auxiliary Correlation fitting basis         ... AVAILABLE
   # of basis functions in Aux-C            ...    639
   # of shells in Aux-C                     ...    205
   Maximum angular momentum in Aux-C        ...      3
Auxiliary 'external' fitting basis          ... NOT available
Integral threshold                          ...     2.500000e-11
Primitive cut-off                           ...     2.500000e-12
Primitive pair pre-selection threshold      ...     2.500000e-12

Calculating pre-screening integrals         ... done (  0.0 sec) Dimension = 139
Calculating pre-screening integrals (ORCA)  ... done (  0.1 sec) Dimension = 90
Organizing shell pair data                  ... done (  0.1 sec)
Shell pair information
Total number of shell pairs                 ...      9730
Shell pairs after pre-screening             ...      7828
Total number of primitive shell pairs       ...     13074
Primitive shell pairs kept                  ...      9805
          la=0 lb=0:   2630 shell pairs
          la=1 lb=0:   2797 shell pairs
          la=1 lb=1:    677 shell pairs
          la=2 lb=0:   1123 shell pairs
          la=2 lb=1:    497 shell pairs
          la=2 lb=2:    104 shell pairs

Calculating one electron integrals          ... done (  0.0 sec)
Calculating RI/C V-Matrix + Cholesky decomp.... done (  0.9 sec)
Calculating Nuclear repulsion               ... done (  0.0 sec) ENN=    330.252485607757 Eh

SHARK setup successfully completed in   2.1 seconds

Maximum memory used throughout the entire GTOINT-calculation: 30.8 MB


           ************************************************************
           *        Program running with 16 parallel MPI-processes    *
           *              working on a common directory               *
           ************************************************************
-------------------------------------------------------------------------------
                                 ORCA SCF
-------------------------------------------------------------------------------

------------
SCF SETTINGS
------------
Hamiltonian:
 Ab initio Hamiltonian  Method          .... Hartree-Fock(GTOs)


General Settings:
 Integral files         IntName         .... DZ_B-P_78_AB
 Hartree-Fock type      HFTyp           .... RHF
 Total Charge           Charge          ....    0
 Multiplicity           Mult            ....    1
 Number of Electrons    NEL             ....   60
 Basis Dimension        Dim             ....  210
 Nuclear Repulsion      ENuc            ....    330.2524856078 Eh

Convergence Acceleration:
 DIIS                   CNVDIIS         .... on
   Start iteration      DIISMaxIt       ....    12
   Startup error        DIISStart       ....  0.200000
   # of expansion vecs  DIISMaxEq       ....     5
   Bias factor          DIISBfac        ....   1.050
   Max. coefficient     DIISMaxC        ....  10.000
 Trust-Rad. Augm. Hess. CNVTRAH         .... auto
   Auto Start mean grad. ratio tolernc. ....  1.125000
   Auto Start start iteration           ....    20
   Auto Start num. interpolation iter.  ....    10
   Max. Number of Micro iterations      ....    16
   Max. Number of Macro iterations      .... Maxiter - #DIIS iter
   Number of Davidson start vectors     ....     2
   Converg. threshold I  (grad. norm)   ....   1.000e-05
   Converg. threshold II (energy diff.) ....   1.000e-08
   Grad. Scal. Fac. for Micro threshold ....   0.100
   Minimum threshold for Micro iter.    ....   0.010
   NR start threshold (gradient norm)   ....   0.001
   Initial trust radius                 ....   0.400
   Minimum AH scaling param. (alpha)    ....   1.000
   Maximum AH scaling param. (alpha)    .... 1000.000
   Orbital update algorithm             .... Taylor
   White noise on init. David. guess    .... on
   Maximum white noise                  ....   0.010
   Quad. conv. algorithm                .... NR
 SOSCF                  CNVSOSCF        .... on
   Start iteration      SOSCFMaxIt      ....   150
   Startup grad/error   SOSCFStart      ....  0.003300
 Level Shifting         CNVShift        .... on
   Level shift para.    LevelShift      ....    0.2500
   Turn off err/grad.   ShiftErr        ....    0.0010
 Zerner damping         CNVZerner       .... off
 Static damping         CNVDamp         .... on
   Fraction old density DampFac         ....    0.7000
   Max. Damping (<1)    DampMax         ....    0.9800
   Min. Damping (>=0)   DampMin         ....    0.0000
   Turn off err/grad.   DampErr         ....    0.1000
 Fernandez-Rico         CNVRico         .... off

SCF Procedure:
 Maximum # iterations   MaxIter         ....   125
 SCF integral mode      SCFMode         .... Direct
   Integral package                     .... SHARK and LIBINT hybrid scheme
 Reset frequency        DirectResetFreq ....    20
 Integral Threshold     Thresh          ....  2.500e-11 Eh
 Primitive CutOff       TCut            ....  2.500e-12 Eh

Convergence Tolerance:
 Convergence Check Mode ConvCheckMode   .... Total+1el-Energy
 Convergence forced     ConvForced      .... 1
 Energy Change          TolE            ....  1.000e-08 Eh
 1-El. energy change                    ....  1.000e-05 Eh
 Orbital Gradient       TolG            ....  1.000e-05
 Orbital Rotation angle TolX            ....  1.000e-05
 DIIS Error             TolErr          ....  5.000e-07


Diagonalization of the overlap matrix:
Smallest eigenvalue                        ... 6.940e-05
Time for diagonalization                   ...    0.005 sec
Threshold for overlap eigenvalues          ... 1.000e-08
Number of eigenvalues below threshold      ... 0
Time for construction of square roots      ...    0.167 sec
Total time needed                          ...    0.178 sec

Time for model grid setup =    0.907 sec

------------------------------
INITIAL GUESS: MODEL POTENTIAL
------------------------------
Loading Hartree-Fock densities                     ... done
Calculating cut-offs                               ... done
Initializing the effective Hamiltonian             ... done
Setting up the integral package (SHARK)            ... done
Starting the Coulomb interaction                   ... done (   0.9 sec)
Reading the grid                                   ... done
Mapping shells                                     ... done
Starting the XC term evaluation                    ... done (   0.0 sec)
Transforming the Hamiltonian                       ... done (   0.1 sec)
Diagonalizing the Hamiltonian                      ... done (   0.0 sec)
Back transforming the eigenvectors                 ... done (   0.0 sec)
Now organizing SCF variables                       ... done
                      ------------------
                      INITIAL GUESS DONE (   2.0 sec)
                      ------------------
--------------
SCF ITERATIONS
--------------
ITER       Energy         Delta-E        Max-DP      RMS-DP      [F,P]     Damp
               ***  Starting incremental Fock matrix formation  ***
  0   -648.0026471498   0.000000000000 0.31697388  0.00374492  0.2581846 0.7000
  1   -648.1002028255  -0.097555675750 0.24788911  0.00288425  0.1559930 0.7000
                               ***Turning on DIIS***
  2   -648.1577161738  -0.057513348271 0.59129523  0.00680843  0.0870175 0.0000
  3   -647.9528397059   0.204876467909 0.03150687  0.00078047  0.0515420 0.0000
  4   -648.3056716651  -0.352831959279 0.02321509  0.00041699  0.0130812 0.0000
  5   -648.2874115811   0.018260084020 0.01694045  0.00025050  0.0096385 0.0000
  6   -648.2774179557   0.009993625407 0.00742569  0.00015227  0.0053554 0.0000
                      *** Initiating the SOSCF procedure ***
                           *** Shutting down DIIS ***
                      *** Re-Reading the Fockian *** 
                      *** Removing any level shift *** 
ITER      Energy       Delta-E        Grad      Rot      Max-DP    RMS-DP
  7   -648.28465364  -0.0072356803  0.002608  0.002608  0.003450  0.000081
               *** Restarting incremental Fock matrix formation ***
  8   -648.28447572   0.0001779111  0.000961  0.002361  0.001286  0.000031
  9   -648.28448938  -0.0000136593  0.000378  0.002306  0.001318  0.000038
 10   -648.28449484  -0.0000054584  0.000057  0.000081  0.000717  0.000010
 11   -648.28449511  -0.0000002637  0.000029  0.000063  0.000306  0.000004
 12   -648.28449519  -0.0000000789  0.000010  0.000025  0.000048  0.000001
 13   -648.28449520  -0.0000000137  0.000005  0.000020  0.000043  0.000001
                  ***Gradient check signals convergence***
              ***Rediagonalizing the Fockian in SOSCF/NRSCF***

               *****************************************************
               *                     SUCCESS                       *
               *           SCF CONVERGED AFTER  14 CYCLES          *
               *****************************************************


------------------------------------------------------------------------------
                          SCF STABILITY ANALYSIS                              
------------------------------------------------------------------------------


                       ****Iteration    0****

   Memory handling for direct AO based CIS:
   Memory per vector needed      ...     1 MB
   Memory needed                 ...     6 MB
   Memory available              ...  3800 MB
   Number of vectors per batch   ...  3758
   Number of batches             ...     1
   Time for densities:     0.002
   Using LibInt in JK Direct
   Time for K (Direct):     2.472
   Time for Sigma-Completion:     0.633
   Lowest Energy          :     0.162003036137
   Maximum Energy change  :     0.312401928877 (vector 2)
   Maximum residual norm  :     0.018353183516

                       ****Iteration    1****
   Time for densities:     0.001
   Using LibInt in JK Direct
   Time for K (Direct):     1.635
   Time for Sigma-Completion:     0.340
   Lowest Energy          :     0.089708426123
   Maximum Energy change  :     0.072294610014 (vector 0)
   Maximum residual norm  :     0.006743893371

                       ****Iteration    2****
   Time for densities:     0.001
   Using LibInt in JK Direct
   Time for K (Direct):     1.641
   Time for Sigma-Completion:     0.343
   Lowest Energy          :     0.083549566037
   Maximum Energy change  :     0.067371061817 (vector 1)
   Maximum residual norm  :     0.010493200470

                       ****Iteration    3****
   Time for densities:     0.001
   Using LibInt in JK Direct
   Time for K (Direct):     1.656
   Time for Sigma-Completion:     0.267
   Lowest Energy          :     0.081717630301
   Maximum Energy change  :     0.041476187744 (vector 2)
   Maximum residual norm  :     0.005981807053

                       ****Iteration    4****
   Time for densities:     0.001
   Using LibInt in JK Direct
   Time for K (Direct):     1.653
   Time for Sigma-Completion:     0.343
   Lowest Energy          :     0.081390944052
   Maximum Energy change  :     0.023295231565 (vector 2)
   Maximum residual norm  :     0.004644308719

                       ****Iteration    5****
   Time for densities:     0.001
   Using LibInt in JK Direct
   Time for K (Direct):     1.652
   Time for Sigma-Completion:     0.408
   Lowest Energy          :     0.081025347519
   Maximum Energy change  :     0.022244483759 (vector 1)
   Maximum residual norm  :     0.002569725081

                       ****Iteration    6****
   Time for densities:     0.001
   Using LibInt in JK Direct
   Time for K (Direct):     1.657
   Time for Sigma-Completion:     0.286
   Lowest Energy          :     0.080501840274
   Maximum Energy change  :     0.033252199456 (vector 2)
   Maximum residual norm  :     0.010525074021

                       ****Iteration    7****
   Time for densities:     0.001
   Using LibInt in JK Direct
   Time for K (Direct):     1.668
   Time for Sigma-Completion:     0.296
   Lowest Energy          :     0.074219905492
   Maximum Energy change  :     0.022465909198 (vector 2)
   Maximum residual norm  :     0.004381189908

                       ****Iteration    8****
   Time for densities:     0.001
   Using LibInt in JK Direct
   Time for K (Direct):     1.659
   Time for Sigma-Completion:     0.364
   Lowest Energy          :     0.066088856858
   Maximum Energy change  :     0.008131048634 (vector 0)
   Maximum residual norm  :     0.000747604333

                       ****Iteration    9****
   Time for densities:     0.001
   Using LibInt in JK Direct
   Time for K (Direct):     1.666
   Time for Sigma-Completion:     0.291
   Lowest Energy          :     0.065018881783
   Maximum Energy change  :     0.001069975075 (vector 0)
   Maximum residual norm  :     0.000100517530

                       ****Iteration   10****
   Time for densities:     0.001
   Using LibInt in JK Direct
   Time for K (Direct):     1.657
   Time for Sigma-Completion:     0.431
   Lowest Energy          :     0.064880741164
   Maximum Energy change  :     0.000138140619 (vector 0)
   Maximum residual norm  :     0.000012689602

      *** CONVERGENCE OF RESIDUAL NORM REACHED ***

----------------------------- 
SCF STABILITY ANALYSIS RESULT 
----------------------------- 

RHF/RKS->UHF/UKS - triplet - external

   Root    Eigenvalue (au) 
     0       0.064881 
     1       0.080451 
     2       0.085862 

Stability Analysis indicates a stable HF/KS wave function.


Total time for performing the stability analysis:    36.730sec


----------------
TOTAL SCF ENERGY
----------------

Total Energy       :         -648.28449520 Eh          -17640.71795 eV

Components:
Nuclear Repulsion  :          330.25248561 Eh            8986.62700 eV
Electronic Energy  :         -978.53698081 Eh          -26627.34496 eV
One Electron Energy:        -1546.66834429 Eh          -42086.98531 eV
Two Electron Energy:          568.13136348 Eh           15459.64035 eV

Virial components:
Potential Energy   :        -1296.27834077 Eh          -35273.52692 eV
Kinetic Energy     :          647.99384556 Eh           17632.80897 eV
Virial Ratio       :            2.00044854


---------------
SCF CONVERGENCE
---------------

  Last Energy change         ...   -3.8881e-09  Tolerance :   1.0000e-08
  Last MAX-Density change    ...    1.6227e-05  Tolerance :   1.0000e-07
  Last RMS-Density change    ...    3.5748e-07  Tolerance :   5.0000e-09
  Last Orbital Gradient      ...    2.1348e-06  Tolerance :   1.0000e-05
  Last Orbital Rotation      ...    6.0571e-06  Tolerance :   1.0000e-05

             **** THE GBW FILE WAS UPDATED (DZ_B-P_78_AB.gbw) ****
             **** DENSITY DZ_B-P_78_AB.scfp WAS UPDATED ****
             **** ENERGY FILE WAS UPDATED (DZ_B-P_78_AB.en.tmp) ****
             **** THE GBW FILE WAS UPDATED (DZ_B-P_78_AB.gbw) ****
             **** DENSITY DZ_B-P_78_AB.scfp WAS UPDATED ****
----------------
ORBITAL ENERGIES
----------------

  NO   OCC          E(Eh)            E(eV) 
   0   2.0000     -79.973826     -2176.1984 
   1   2.0000     -20.578418      -559.9672 
   2   2.0000     -20.573322      -559.8286 
   3   2.0000     -15.638963      -425.5578 
   4   2.0000     -11.406154      -310.3772 
   5   2.0000     -11.386131      -309.8324 
   6   2.0000      -7.652342      -208.2308 
   7   2.0000      -7.519858      -204.6257 
   8   2.0000      -5.414475      -147.3353 
   9   2.0000      -5.414129      -147.3259 
  10   2.0000      -5.413153      -147.2994 
  11   2.0000      -1.445781       -39.3417 
  12   2.0000      -1.423268       -38.7291 
  13   2.0000      -1.271979       -34.6123 
  14   2.0000      -0.968377       -26.3509 
  15   2.0000      -0.875455       -23.8223 
  16   2.0000      -0.843839       -22.9620 
  17   2.0000      -0.734890       -19.9974 
  18   2.0000      -0.717959       -19.5367 
  19   2.0000      -0.681712       -18.5503 
  20   2.0000      -0.645843       -17.5743 
  21   2.0000      -0.640535       -17.4298 
  22   2.0000      -0.611186       -16.6312 
  23   2.0000      -0.560657       -15.2562 
  24   2.0000      -0.550840       -14.9891 
  25   2.0000      -0.517530       -14.0827 
  26   2.0000      -0.480737       -13.0815 
  27   2.0000      -0.443909       -12.0794 
  28   2.0000      -0.433132       -11.7861 
  29   2.0000      -0.384398       -10.4600 
  30   0.0000       0.022636         0.6160 
  31   0.0000       0.030513         0.8303 
  32   0.0000       0.041696         1.1346 
  33   0.0000       0.045485         1.2377 
  34   0.0000       0.057443         1.5631 
  35   0.0000       0.064164         1.7460 
  36   0.0000       0.075643         2.0583 
  37   0.0000       0.078556         2.1376 
  38   0.0000       0.086859         2.3635 
  39   0.0000       0.091898         2.5007 
  40   0.0000       0.105976         2.8837 
  41   0.0000       0.110579         3.0090 
  42   0.0000       0.117807         3.2057 
  43   0.0000       0.123226         3.3532 
  44   0.0000       0.130607         3.5540 
  45   0.0000       0.135278         3.6811 
  46   0.0000       0.142591         3.8801 
  47   0.0000       0.155194         4.2230 
  48   0.0000       0.158155         4.3036 
  49   0.0000       0.167065         4.5461 
  50   0.0000       0.168755         4.5921 
  51   0.0000       0.183514         4.9937 
  52   0.0000       0.188292         5.1237 
  53   0.0000       0.192155         5.2288 
  54   0.0000       0.209219         5.6931 
  55   0.0000       0.218095         5.9347 
  56   0.0000       0.231620         6.3027 
  57   0.0000       0.242549         6.6001 
  58   0.0000       0.252667         6.8754 
  59   0.0000       0.267394         7.2762 
  60   0.0000       0.278096         7.5674 
  61   0.0000       0.280091         7.6217 
  62   0.0000       0.290770         7.9122 
  63   0.0000       0.300443         8.1755 
  64   0.0000       0.308701         8.4002 
  65   0.0000       0.313674         8.5355 
  66   0.0000       0.317738         8.6461 
  67   0.0000       0.325139         8.8475 
  68   0.0000       0.337158         9.1745 
  69   0.0000       0.340607         9.2684 
  70   0.0000       0.350790         9.5455 
  71   0.0000       0.358300         9.7498 
  72   0.0000       0.359293         9.7768 
  73   0.0000       0.378941        10.3115 
  74   0.0000       0.389502        10.5989 
  75   0.0000       0.401174        10.9165 
  76   0.0000       0.418533        11.3889 
  77   0.0000       0.426058        11.5936 
  78   0.0000       0.430818        11.7231 
  79   0.0000       0.442391        12.0381 
  80   0.0000       0.464092        12.6286 
  81   0.0000       0.467902        12.7323 
  82   0.0000       0.472344        12.8531 
  83   0.0000       0.474364        12.9081 
  84   0.0000       0.487190        13.2571 
  85   0.0000       0.500388        13.6162 
  86   0.0000       0.510947        13.9036 
  87   0.0000       0.520152        14.1541 
  88   0.0000       0.530074        14.4240 
  89   0.0000       0.541389        14.7319 
  90   0.0000       0.559335        15.2203 
  91   0.0000       0.561362        15.2754 
  92   0.0000       0.578795        15.7498 
  93   0.0000       0.585919        15.9437 
  94   0.0000       0.597959        16.2713 
  95   0.0000       0.606807        16.5121 
  96   0.0000       0.619854        16.8671 
  97   0.0000       0.623444        16.9648 
  98   0.0000       0.638257        17.3679 
  99   0.0000       0.642890        17.4939 
 100   0.0000       0.654644        17.8138 
 101   0.0000       0.667198        18.1554 
 102   0.0000       0.678623        18.4663 
 103   0.0000       0.699153        19.0249 
 104   0.0000       0.708402        19.2766 
 105   0.0000       0.723434        19.6856 
 106   0.0000       0.746849        20.3228 
 107   0.0000       0.751680        20.4543 
 108   0.0000       0.762974        20.7616 
 109   0.0000       0.794473        21.6187 
 110   0.0000       0.813142        22.1267 
 111   0.0000       0.817089        22.2341 
 112   0.0000       0.833433        22.6789 
 113   0.0000       0.846182        23.0258 
 114   0.0000       0.865973        23.5643 
 115   0.0000       0.882300        24.0086 
 116   0.0000       0.895484        24.3673 
 117   0.0000       0.937555        25.5122 
 118   0.0000       0.943362        25.6702 
 119   0.0000       0.953351        25.9420 
 120   0.0000       0.977312        26.5940 
 121   0.0000       0.983538        26.7634 
 122   0.0000       0.998931        27.1823 
 123   0.0000       1.004010        27.3205 
 124   0.0000       1.025371        27.9018 
 125   0.0000       1.032769        28.1031 
 126   0.0000       1.044649        28.4264 
 127   0.0000       1.056454        28.7476 
 128   0.0000       1.088002        29.6060 
 129   0.0000       1.101404        29.9707 
 130   0.0000       1.115853        30.3639 
 131   0.0000       1.127345        30.6766 
 132   0.0000       1.165719        31.7208 
 133   0.0000       1.201911        32.7057 
 134   0.0000       1.211021        32.9536 
 135   0.0000       1.224331        33.3158 
 136   0.0000       1.236985        33.6601 
 137   0.0000       1.240439        33.7541 
 138   0.0000       1.247525        33.9469 
 139   0.0000       1.266719        34.4692 
 140   0.0000       1.293403        35.1953 
 141   0.0000       1.312507        35.7151 
 142   0.0000       1.323102        36.0034 
 143   0.0000       1.359308        36.9886 
 144   0.0000       1.366214        37.1766 
 145   0.0000       1.414846        38.4999 
 146   0.0000       1.429246        38.8918 
 147   0.0000       1.457585        39.6629 
 148   0.0000       1.471014        40.0283 
 149   0.0000       1.488114        40.4936 
 150   0.0000       1.518900        41.3314 
 151   0.0000       1.570727        42.7416 
 152   0.0000       1.575551        42.8729 
 153   0.0000       1.608389        43.7665 
 154   0.0000       1.619249        44.0620 
 155   0.0000       1.657146        45.0932 
 156   0.0000       1.671765        45.4910 
 157   0.0000       1.746136        47.5148 
 158   0.0000       1.786887        48.6237 
 159   0.0000       1.803443        49.0742 
 160   0.0000       1.826106        49.6909 
 161   0.0000       1.834166        49.9102 
 162   0.0000       1.872816        50.9619 
 163   0.0000       1.926709        52.4284 
 164   0.0000       1.933054        52.6011 
 165   0.0000       1.959420        53.3185 
 166   0.0000       1.966528        53.5119 
 167   0.0000       1.980581        53.8944 
 168   0.0000       2.009025        54.6683 
 169   0.0000       2.053436        55.8768 
 170   0.0000       2.087305        56.7985 
 171   0.0000       2.109045        57.3900 
 172   0.0000       2.140962        58.2585 
 173   0.0000       2.151861        58.5551 
 174   0.0000       2.188423        59.5500 
 175   0.0000       2.206471        60.0411 
 176   0.0000       2.225141        60.5492 
 177   0.0000       2.290529        62.3285 
 178   0.0000       2.305113        62.7253 
 179   0.0000       2.313678        62.9584 
 180   0.0000       2.332367        63.4669 
 181   0.0000       2.350306        63.9551 
 182   0.0000       2.399066        65.2819 
 183   0.0000       2.400058        65.3089 
 184   0.0000       2.446987        66.5859 
 185   0.0000       2.578986        70.1778 
 186   0.0000       2.589568        70.4657 
 187   0.0000       2.660773        72.4033 
 188   0.0000       2.709283        73.7233 
 189   0.0000       2.730316        74.2957 
 190   0.0000       2.776461        75.5513 
 191   0.0000       2.824831        76.8675 
 192   0.0000       2.891488        78.6814 
 193   0.0000       2.934296        79.8463 
 194   0.0000       2.998687        81.5984 
 195   0.0000       3.135944        85.3334 
 196   0.0000       3.204134        87.1889 
 197   0.0000       3.323983        90.4502 
 198   0.0000       3.415653        92.9446 
 199   0.0000       3.584053        97.5271 
 200   0.0000       3.706935       100.8708 
 201   0.0000       3.723629       101.3251 
 202   0.0000       3.766683       102.4967 
 203   0.0000       3.771057       102.6157 
 204   0.0000       3.776023       102.7508 
 205   0.0000       3.841806       104.5409 
 206   0.0000       3.950622       107.5019 
 207   0.0000       4.043497       110.0291 
 208   0.0000       4.148831       112.8954 
 209   0.0000       4.151722       112.9741 

                    ********************************
                    * MULLIKEN POPULATION ANALYSIS *
                    ********************************

-----------------------
MULLIKEN ATOMIC CHARGES
-----------------------
   0 C :    1.053081
   1 N :   -0.342011
   2 C :    0.366695
   3 B :   -0.542398
   4 O :   -0.639277
   5 H :   -0.107365
   6 O :   -0.702376
   7 H :   -0.119588
   8 P :    0.046248
   9 H :    0.368366
  10 H :    0.416147
  11 H :    0.202477
Sum of atomic charges:    0.0000000

--------------------------------
MULLIKEN REDUCED ORBITAL CHARGES
--------------------------------
  0 C s       :     2.808428  s :     2.808428
      pz      :     0.592418  p :     2.011037
      px      :     0.706024
      py      :     0.712595
      dz2     :     0.001640  d :     0.127455
      dxz     :     0.039736
      dyz     :     0.010172
      dx2y2   :     0.098015
      dxy     :    -0.022108
  1 N s       :     3.407515  s :     3.407515
      pz      :     1.701398  p :     3.877130
      px      :     1.072859
      py      :     1.102873
      dz2     :     0.007574  d :     0.057365
      dxz     :     0.012544
      dyz     :     0.005232
      dx2y2   :     0.005791
      dxy     :     0.026223
  2 C s       :     3.321971  s :     3.321971
      pz      :     0.633450  p :     2.174038
      px      :     0.852016
      py      :     0.688572
      dz2     :     0.018131  d :     0.137295
      dxz     :     0.013788
      dyz     :     0.039451
      dx2y2   :     0.018657
      dxy     :     0.047269
  3 B s       :     3.206135  s :     3.206135
      pz      :     0.235472  p :     2.277004
      px      :     1.162261
      py      :     0.879270
      dz2     :     0.020782  d :     0.059259
      dxz     :    -0.002435
      dyz     :     0.010248
      dx2y2   :     0.031952
      dxy     :    -0.001288
  4 O s       :     3.987619  s :     3.987619
      pz      :     1.471498  p :     4.600403
      px      :     1.578908
      py      :     1.549997
      dz2     :     0.004254  d :     0.051255
      dxz     :     0.011977
      dyz     :     0.010590
      dx2y2   :     0.013595
      dxy     :     0.010839
  5 H s       :     1.096966  s :     1.096966
      pz      :    -0.004008  p :     0.010399
      px      :     0.005962
      py      :     0.008445
  6 O s       :     4.013145  s :     4.013145
      pz      :     1.480305  p :     4.642905
      px      :     1.864454
      py      :     1.298147
      dz2     :     0.004616  d :     0.046326
      dxz     :     0.000982
      dyz     :     0.018716
      dx2y2   :     0.009092
      dxy     :     0.012920
  7 H s       :     1.063498  s :     1.063498
      pz      :     0.017556  p :     0.056090
      px      :     0.005462
      py      :     0.033073
  8 P s       :     5.377544  s :     5.377544
      pz      :     3.474414  p :     9.441125
      px      :     2.778795
      py      :     3.187916
      dz2     :     0.007612  d :     0.135083
      dxz     :     0.021681
      dyz     :     0.058004
      dx2y2   :     0.029471
      dxy     :     0.018314
  9 H s       :     0.607765  s :     0.607765
      pz      :     0.001934  p :     0.023869
      px      :     0.004722
      py      :     0.017213
 10 H s       :     0.554813  s :     0.554813
      pz      :     0.007649  p :     0.029040
      px      :     0.008146
      py      :     0.013245
 11 H s       :     0.794435  s :     0.794435
      pz      :    -0.006791  p :     0.003088
      px      :     0.001321
      py      :     0.008558


                     *******************************
                     * LOEWDIN POPULATION ANALYSIS *
                     *******************************

----------------------
LOEWDIN ATOMIC CHARGES
----------------------
   0 C :   -0.095291
   1 N :    0.060361
   2 C :   -0.535843
   3 B :   -0.034390
   4 O :    0.029672
   5 H :    0.024879
   6 O :   -0.001641
   7 H :    0.003240
   8 P :    0.852953
   9 H :   -0.094320
  10 H :   -0.099057
  11 H :   -0.110563

-------------------------------
LOEWDIN REDUCED ORBITAL CHARGES
-------------------------------
  0 C s       :     2.594865  s :     2.594865
      pz      :     0.571411  p :     2.371839
      px      :     0.871819
      py      :     0.928609
      dz2     :     0.088508  d :     1.128587
      dxz     :     0.225599
      dyz     :     0.075860
      dx2y2   :     0.453355
      dxy     :     0.285265
  1 N s       :     2.823145  s :     2.823145
      pz      :     1.328336  p :     3.599078
      px      :     1.156530
      py      :     1.114212
      dz2     :     0.052852  d :     0.517415
      dxz     :     0.073700
      dyz     :     0.032750
      dx2y2   :     0.184906
      dxy     :     0.173208
  2 C s       :     2.619479  s :     2.619479
      pz      :     0.627626  p :     2.504321
      px      :     0.932644
      py      :     0.944051
      dz2     :     0.132427  d :     1.412042
      dxz     :     0.202009
      dyz     :     0.261383
      dx2y2   :     0.364109
      dxy     :     0.452115
  3 B s       :     2.604293  s :     2.604293
      pz      :     0.285355  p :     1.944908
      px      :     0.861823
      py      :     0.797730
      dz2     :     0.077292  d :     0.485189
      dxz     :     0.027146
      dyz     :     0.124517
      dx2y2   :     0.128984
      dxy     :     0.127249
  4 O s       :     3.381970  s :     3.381970
      pz      :     1.328008  p :     4.408199
      px      :     1.539164
      py      :     1.541026
      dz2     :     0.019259  d :     0.180160
      dxz     :     0.017302
      dyz     :     0.018598
      dx2y2   :     0.063039
      dxy     :     0.061961
  5 H s       :     0.740010  s :     0.740010
      pz      :     0.044050  p :     0.235111
      px      :     0.059533
      py      :     0.131528
  6 O s       :     3.372652  s :     3.372652
      pz      :     1.355075  p :     4.442801
      px      :     1.639773
      py      :     1.447953
      dz2     :     0.019956  d :     0.186188
      dxz     :     0.005963
      dyz     :     0.039224
      dx2y2   :     0.057049
      dxy     :     0.063997
  7 H s       :     0.640285  s :     0.640285
      pz      :     0.107028  p :     0.356476
      px      :     0.087442
      py      :     0.162005
  8 P s       :     4.786020  s :     4.786020
      pz      :     3.193834  p :     8.842863
      px      :     2.742609
      py      :     2.906420
      dz2     :     0.032703  d :     0.518164
      dxz     :     0.071927
      dyz     :     0.091441
      dx2y2   :     0.141038
      dxy     :     0.181055
  9 H s       :     0.882544  s :     0.882544
      pz      :     0.023487  p :     0.211776
      px      :     0.098780
      py      :     0.089509
 10 H s       :     0.890526  s :     0.890526
      pz      :     0.027372  p :     0.208531
      px      :     0.115024
      py      :     0.066134
 11 H s       :     0.840984  s :     0.840984
      pz      :     0.113951  p :     0.269578
      px      :     0.059710
      py      :     0.095918


                      *****************************
                      * MAYER POPULATION ANALYSIS *
                      *****************************

  NA   - Mulliken gross atomic population
  ZA   - Total nuclear charge
  QA   - Mulliken gross atomic charge
  VA   - Mayer's total valence
  BVA  - Mayer's bonded valence
  FA   - Mayer's free valence

  ATOM       NA         ZA         QA         VA         BVA        FA
  0 C      4.9469     6.0000     1.0531     3.4202     3.4202    -0.0000
  1 N      7.3420     7.0000    -0.3420     2.8141     2.8141     0.0000
  2 C      5.6333     6.0000     0.3667     3.5636     3.5636     0.0000
  3 B      5.5424     5.0000    -0.5424     2.8062     2.8062    -0.0000
  4 O      8.6393     8.0000    -0.6393     1.6031     1.6031     0.0000
  5 H      1.1074     1.0000    -0.1074     0.8852     0.8852    -0.0000
  6 O      8.7024     8.0000    -0.7024     1.5622     1.5622     0.0000
  7 H      1.1196     1.0000    -0.1196     1.0609     1.0609     0.0000
  8 P     14.9538    15.0000     0.0462     3.0277     3.0277     0.0000
  9 H      0.6316     1.0000     0.3684     0.9063     0.9063    -0.0000
 10 H      0.5839     1.0000     0.4161     0.8561     0.8561     0.0000
 11 H      0.7975     1.0000     0.2025     0.9432     0.9432    -0.0000

  Mayer bond orders larger than 0.100000
B(  0-C ,  1-N ) :   0.9869 B(  0-C ,  4-O ) :   1.6329 B(  0-C ,  5-H ) :   0.9251 
B(  1-N ,  2-C ) :   0.9006 B(  1-N ,  7-H ) :   1.1253 B(  2-C ,  3-B ) :   0.1099 
B(  2-C ,  6-O ) :   1.5389 B(  2-C ,  8-P ) :   1.0255 B(  3-B ,  8-P ) :   1.0610 
B(  3-B ,  9-H ) :   0.8582 B(  3-B , 10-H ) :   0.7902 B(  8-P , 11-H ) :   0.8657 


-------
TIMINGS
-------

Total SCF time: 0 days 0 hours 1 min 45 sec 

Total time                  ....     105.997 sec
Sum of individual times     ....      98.710 sec  ( 93.1%)

Fock matrix formation       ....      44.824 sec  ( 42.3%)
Diagonalization             ....       1.405 sec  (  1.3%)
Density matrix formation    ....       0.006 sec  (  0.0%)
Population analysis         ....       0.832 sec  (  0.8%)
Initial guess               ....       1.122 sec  (  1.1%)
Orbital Transformation      ....       0.000 sec  (  0.0%)
Orbital Orthonormalization  ....       0.000 sec  (  0.0%)
DIIS solution               ....       0.564 sec  (  0.5%)
SOSCF solution              ....      12.319 sec  ( 11.6%)
SCF Stability Analysis      ....      36.730 sec  ( 34.7%)

Maximum memory used throughout the entire SCF-calculation: 232.3 MB


           ************************************************************
           *        Program running with 16 parallel MPI-processes    *
           *              working on a common directory               *
           ************************************************************

------------------------------------------------------------------------------
                                ORCA  MP2 
------------------------------------------------------------------------------

Freezing NCore=22 chemical core electrons

-------------
RI-MP2 ENERGY
-------------
Dimension of the basis                    ...  210
Memory devoted to MP2                     ... 3800 MB   
Data format for buffers                   ... DOUBLE
Compression type for matrix containers    ... UNCOMPRESSED
Overall scaling of the MP2 energy         ...   1.000e+00
Calculating two index integrals           ... done (    0.004 sec)
Cholesky decomposition of V**-1           ... done (    0.054 sec)

-----------------
RI-TRANSFORMATION (AUX index driven)
-----------------

Dimension of the orbital-basis         ... 210
Dimension of the aux-basis             ... 639
Transformation of internal/external MOs...   11-  29 to   30- 209
Number Format for Storage              ... Double (8 Byte)
Integral mode                          ... Direct

First Phase: integral generation and transformation of MO indices
  Aux angular momentum 0               ... done (    0.008 sec)
  Aux angular momentum 1               ... done (    0.010 sec)
  Aux angular momentum 2               ... done (    0.011 sec)
  Aux angular momentum 3               ... done (    0.011 sec)
Closing buffer VIA ( 0.02 GB; CompressionRatio= 1.00)
  Phase 1 completed in    25.161 sec
Second Phase: sorting and transformation of aux index

IA-Transformation
Memory available                       ... 3754 MB 
Max. # MO pairs treated in a batch     ... 2    
# of internal orbitals                 ... 19
# batches for internal orbitals        ... 1
Closing buffer IAV ( 0.02 GB; CompressionRatio= 1.00)
(ia|v) transformation done in    15.307 sec

  Phase 2 completed in    16.229 sec
RI-Integral transformation completed in    41.643 sec
Opening buffers                              ... done

Starting loop over batches of integrals:

Operator 0  - window                       ... ( 11- 29)x( 30-209)
Operator 0  - Memory available             ...  3800 MB
Operator 0  - Memory needed per MO         ...   0.9 MB
Operator 0  - Number of orbitals per batch ... 2
Operator 0  - Number of batches            ... 1

OPERATOR  0   PASS   0:  MOs    11 ...   12 +   13 ...   14 +   15 ...   16 +   17 ...   18
                            +   19 ...   20 +   21 ...   22 +   23 ...   24 +   25 ...   26
                            +   27 ...   28 +   29 ...   29
  Reading integrals       ... ok
Time spent in pair loops =     0.016 sec
Deleting buffer (Ka|jb)[aa] ...done

-----------------------------------------------
 RI-MP2 CORRELATION ENERGY:     -1.030664375 Eh
-----------------------------------------------


-------
TIMINGS
-------

Total time                :   42.502 sec
Integral trafo            :   41.655 sec ( 98.0%)
I/O of integrals          :    0.001 sec (  0.0%)
K(i,j) Operators          :    0.003 sec (  0.0%)
T(i,j) pair energies      :    0.000 sec (  0.0%)
V-calculation             :    0.004 sec (  0.0%)
V**(-1/2)                 :    0.054 sec (  0.1%)
Gamma(ia|P)               :    0.000 sec (  0.0%)
Gamma-Trafo               :    0.000 sec (  0.0%)
D(virtual)                :    0.000 sec (  0.0%)
D(internal)               :    0.000 sec (  0.0%)
W(virtual)                :    0.000 sec (  0.0%)
W(internal)               :    0.000 sec (  0.0%)
L(virtual)                :    0.000 sec (  0.0%)
L(internal)               :    0.000 sec (  0.0%)
G(D)                      :    0.000 sec (  0.0%)
G(Z)                      :    0.000 sec (  0.0%)
Z-Vector Solution         :    0.000 sec (  0.0%)
3-Index Derivative        :    0.000 sec (  0.0%)
2-Index Derivative        :    0.000 sec (  0.0%)
Separable Gradient        :    0.000 sec (  0.0%)


---------------------------------------
MP2 TOTAL ENERGY:     -649.315159578 Eh
---------------------------------------

Maximum memory used throughout the entire MP2-calculation: 91.0 MB

-------------------------   --------------------
FINAL SINGLE POINT ENERGY      -649.315159577671
-------------------------   --------------------


                            ***************************************
                            *     ORCA property calculations      *
                            ***************************************


  WARNING: The energy has been calculated at the MP2 level but the densities
           used in the property calculations are still SCF densities
           MP2 response densities have not been calculated 
           use %mp2 Density relaxed end
           or  %mp2 Density unrelaxed end

                                    ---------------------
                                    Active property flags
                                    ---------------------
   (+) Dipole Moment


------------------------------------------------------------------------------
                       ORCA ELECTRIC PROPERTIES CALCULATION
------------------------------------------------------------------------------

Dipole Moment Calculation                       ... on
Quadrupole Moment Calculation                   ... off
Polarizability Calculation                      ... off
GBWName                                         ... DZ_B-P_78_AB.gbw
Electron density                                ... DZ_B-P_78_AB.scfp
The origin for moment calculation is the CENTER OF MASS  = ( 0.009551,  0.033798 -0.024723)

-------------
DIPOLE MOMENT
-------------
                                X             Y             Z
Electronic contribution:     -0.72860       1.59397      -1.40051
Nuclear contribution   :     -0.57305      -2.02792       1.48336
                        -----------------------------------------
Total Dipole Moment    :     -1.30164      -0.43395       0.08285
                        -----------------------------------------
Magnitude (a.u.)       :      1.37457
Magnitude (Debye)      :      3.49389



--------------------
Rotational spectrum 
--------------------
 
Rotational constants in cm-1:     0.142415     0.041289     0.033231 
Rotational constants in MHz :  4269.487524  1237.799409   996.249331 

 Dipole components along the rotational axes: 
x,y,z [a.u.] :    -1.292733     0.456553     0.099242 
x,y,z [Debye]:    -3.285867     1.160465     0.252254 

 

Timings for individual modules:

Sum of individual times         ...      159.973 sec (=   2.666 min)
GTO integral calculation        ...        3.176 sec (=   0.053 min)   2.0 %
SCF iterations                  ...      107.044 sec (=   1.784 min)  66.9 %
MP2 module                      ...       49.752 sec (=   0.829 min)  31.1 %


                 $$$$$$$$$$$$$$$$  JOB NUMBER  2 $$$$$$$$$$$$$$


                       ****************************
                       * Single Point Calculation *
                       ****************************

---------------------------------
CARTESIAN COORDINATES (ANGSTROEM)
---------------------------------
  C      2.192357   -0.006391    0.045479
  N      0.844569   -0.276790   -0.118668
  C     -0.152430    0.667656    0.025825
  B     -2.162165   -1.534170    0.460077
  O      3.032262   -0.853192   -0.072023
  H      2.392068    1.043534    0.286972
  O      0.061847    1.810468    0.330364
  H      0.606606   -1.233727   -0.337276
  P     -1.862002    0.083698   -0.367959
  H     -1.297338   -2.348975    0.493552
  H     -3.258575   -1.803904    0.822221
  H     -2.606326    1.070173    0.289657

----------------------------
CARTESIAN COORDINATES (A.U.)
----------------------------
  NO LB      ZA    FRAG     MASS         X           Y           Z
   0 C     6.0000    0    12.011    4.142954   -0.012077    0.085943
   1 N     7.0000    0    14.007    1.596004   -0.523057   -0.224250
   2 C     6.0000    0    12.011   -0.288051    1.261687    0.048802
   3 B     5.0000    0    10.810   -4.085900   -2.899161    0.869420
   4 O     8.0000    0    15.999    5.730145   -1.612299   -0.136104
   5 H     1.0000    0     1.008    4.520353    1.971993    0.542298
   6 O     8.0000    0    15.999    0.116874    3.421289    0.624297
   7 H     1.0000    0     1.008    1.146319   -2.331406   -0.637359
   8 P    15.0000    0    30.974   -3.518674    0.158166   -0.695342
   9 H     1.0000    0     1.008   -2.451614   -4.438919    0.932678
  10 H     1.0000    0     1.008   -6.157814   -3.408885    1.553773
  11 H     1.0000    0     1.008   -4.925242    2.022334    0.547372

--------------------------------
INTERNAL COORDINATES (ANGSTROEM)
--------------------------------
 C      0   0   0     0.000000000000     0.00000000     0.00000000
 N      1   0   0     1.384410470111     0.00000000     0.00000000
 C      2   1   0     1.380892276742   123.84204693     0.00000000
 B      3   2   1     3.012581501637    89.82018681   200.71517589
 O      1   2   3     1.198465294712   122.18453131   179.11578053
 H      1   2   3     1.095694235722   113.00044094   359.03582321
 O      3   2   1     1.201947545692   123.23591717   358.73214574
 H      2   1   3     1.010021915110   116.10921856   181.32727086
 P      4   3   2     1.842074458128    35.37114332   221.51424393
 H      4   3   2     1.188677207479    91.12842997     7.56292135
 H      4   3   2     1.185756971555   145.80496791   166.53723890
 H      9   4   3     1.399860688089   108.73026690   252.01997527

---------------------------
INTERNAL COORDINATES (A.U.)
---------------------------
 C      0   0   0     0.000000000000     0.00000000     0.00000000
 N      1   0   0     2.616156645444     0.00000000     0.00000000
 C      2   1   0     2.609508223490   123.84204693     0.00000000
 B      3   2   1     5.692953994211    89.82018681   200.71517589
 O      1   2   3     2.264771188016   122.18453131   179.11578053
 H      1   2   3     2.070562032031   113.00044094   359.03582321
 O      3   2   1     2.271351688696   123.23591717   358.73214574
 H      2   1   3     1.908664808816   116.10921856   181.32727086
 P      4   3   2     3.481016244154    35.37114332   221.51424393
 H      4   3   2     2.246274383769    91.12842997     7.56292135
 H      4   3   2     2.240755937627   145.80496791   166.53723890
 H      9   4   3     2.645353326131   108.73026690   252.01997527

---------------------
BASIS SET INFORMATION
---------------------
There are 6 groups of distinct atoms

 Group   1 Type C   : 19s6p3d2f contracted to 5s4p3d2f pattern {88111/3111/111/11}
 Group   2 Type N   : 19s6p3d2f contracted to 5s4p3d2f pattern {88111/3111/111/11}
 Group   3 Type B   : 19s6p3d2f contracted to 5s4p3d2f pattern {88111/3111/111/11}
 Group   4 Type O   : 19s6p3d2f contracted to 5s4p3d2f pattern {88111/3111/111/11}
 Group   5 Type H   : 6s3p2d contracted to 4s3p2d pattern {3111/111/11}
 Group   6 Type P   : 42s17p3d2f contracted to 6s5p3d2f pattern {131313111/77111/111/11}

Atom   0C    basis set group =>   1
Atom   1N    basis set group =>   2
Atom   2C    basis set group =>   1
Atom   3B    basis set group =>   3
Atom   4O    basis set group =>   4
Atom   5H    basis set group =>   5
Atom   6O    basis set group =>   4
Atom   7H    basis set group =>   5
Atom   8P    basis set group =>   6
Atom   9H    basis set group =>   5
Atom  10H    basis set group =>   5
Atom  11H    basis set group =>   5
---------------------------------
AUXILIARY/C BASIS SET INFORMATION
---------------------------------
There are 6 groups of distinct atoms

 Group   1 Type C   : 9s7p6d4f2g contracted to 9s7p6d4f2g pattern {111111111/1111111/111111/1111/11}
 Group   2 Type N   : 9s7p6d4f2g contracted to 9s7p6d4f2g pattern {111111111/1111111/111111/1111/11}
 Group   3 Type B   : 9s7p6d4f2g contracted to 9s7p6d4f2g pattern {111111111/1111111/111111/1111/11}
 Group   4 Type O   : 9s7p6d4f2g contracted to 9s7p6d4f2g pattern {111111111/1111111/111111/1111/11}
 Group   5 Type H   : 5s4p3d2f contracted to 5s4p3d2f pattern {11111/1111/111/11}
 Group   6 Type P   : 11s9p8d6f3g contracted to 11s9p8d6f3g pattern {11111111111/111111111/11111111/111111/111}

Atom   0C    basis set group =>   1
Atom   1N    basis set group =>   2
Atom   2C    basis set group =>   1
Atom   3B    basis set group =>   3
Atom   4O    basis set group =>   4
Atom   5H    basis set group =>   5
Atom   6O    basis set group =>   4
Atom   7H    basis set group =>   5
Atom   8P    basis set group =>   6
Atom   9H    basis set group =>   5
Atom  10H    basis set group =>   5
Atom  11H    basis set group =>   5


           ************************************************************
           *        Program running with 16 parallel MPI-processes    *
           *              working on a common directory               *
           ************************************************************
------------------------------------------------------------------------------
                           ORCA GTO INTEGRAL CALCULATION
------------------------------------------------------------------------------
------------------------------------------------------------------------------
                   ___                                                        
                  /   \      - P O W E R E D   B Y -                         
                 /     \                                                     
                 |  |  |   _    _      __       _____    __    __             
                 |  |  |  | |  | |    /  \     |  _  \  |  |  /  |          
                  \  \/   | |  | |   /    \    | | | |  |  | /  /          
                 / \  \   | |__| |  /  /\  \   | |_| |  |  |/  /          
                |  |  |   |  __  | /  /__\  \  |    /   |      \           
                |  |  |   | |  | | |   __   |  |    \   |  |\   \          
                \     /   | |  | | |  |  |  |  | |\  \  |  | \   \       
                 \___/    |_|  |_| |__|  |__|  |_| \__\ |__|  \__/        
                                                                              
                      - O R C A' S   B I G   F R I E N D -                    
                                      &                                       
                       - I N T E G R A L  F E E D E R -                       
                                                                              
 v1 FN, 2020, v2 2021                                                         
------------------------------------------------------------------------------


Reading SHARK input file TZ_B-P_78_AB.SHARKINP.tmp ... ok
----------------------
SHARK INTEGRAL PACKAGE
----------------------

Number of atoms                             ...     12
Number of basis functions                   ...    502
Number of shells                            ...    196
Maximum angular momentum                    ...      3
Integral batch strategy                     ... SHARK/LIBINT Hybrid
RI-J (if used) integral strategy            ... SPLIT-RIJ (Revised 2003 algorithm where possible)
Printlevel                                  ...      1
Contraction scheme used                     ... PARTIAL GENERAL contraction
Coulomb Range Separation                    ... NOT USED
Exchange Range Separation                   ... NOT USED
Finite Nucleus Model                        ... NOT USED
Auxiliary Coulomb fitting basis             ... NOT available
Auxiliary J/K fitting basis                 ... NOT available
Auxiliary Correlation fitting basis         ... AVAILABLE
   # of basis functions in Aux-C            ...   1013
   # of shells in Aux-C                     ...    275
   Maximum angular momentum in Aux-C        ...      4
Auxiliary 'external' fitting basis          ... NOT available
Integral threshold                          ...     2.500000e-11
Primitive cut-off                           ...     2.500000e-12
Primitive pair pre-selection threshold      ...     2.500000e-12

Calculating pre-screening integrals         ... done (  0.0 sec) Dimension = 196
[...]
      f-1     :     0.000207
      f+2     :    -0.000022
      f-2     :     0.000032
      f+3     :     0.000354
      f-3     :    -0.000134
 10 H s       :     1.169764  s :     1.169764
      pz      :    -0.000756  p :     0.022957
      px      :     0.021043
      py      :     0.002670
      dz2     :    -0.000166  d :    -0.000551
      dxz     :    -0.000321
      dyz     :     0.000178
      dx2y2   :     0.000641
      dxy     :    -0.000883
      f0      :     0.000078  f :     0.000684
      f+1     :     0.000040
      f-1     :     0.000113
      f+2     :     0.000080
      f-2     :     0.000154
      f+3     :     0.000032
      f-3     :     0.000187
 11 H s       :     0.973350  s :     0.973350
      pz      :     0.013081  p :     0.011309
      px      :     0.000845
      py      :    -0.002618
      dz2     :     0.000199  d :     0.003877
      dxz     :     0.000560
      dyz     :     0.001935
      dx2y2   :    -0.000079
      dxy     :     0.001263
      f0      :     0.000047  f :     0.000234
      f+1     :    -0.000030
      f-1     :     0.000025
      f+2     :    -0.000106
      f-2     :     0.000092
      f+3     :     0.000118
      f-3     :     0.000088


                     *******************************
                     * LOEWDIN POPULATION ANALYSIS *
                     *******************************

----------------------
LOEWDIN ATOMIC CHARGES
----------------------
   0 C :   -0.425120
   1 N :    0.684979
   2 C :   -1.072489
   3 B :    0.116192
   4 O :    0.692224
   5 H :   -0.382449
   6 O :    0.631259
   7 H :   -0.591853
   8 P :    1.299598
   9 H :   -0.248209
  10 H :   -0.256967
  11 H :   -0.447165

-------------------------------
LOEWDIN REDUCED ORBITAL CHARGES
-------------------------------
  0 C s       :     2.440249  s :     2.440249
      pz      :     0.434285  p :     1.959932
      px      :     0.737125
      py      :     0.788522
      dz2     :     0.092059  d :     1.127090
      dxz     :     0.220390
      dyz     :     0.082074
      dx2y2   :     0.422047
      dxy     :     0.310520
      f0      :     0.051924  f :     0.649503
      f+1     :     0.062079
      f-1     :     0.035648
      f+2     :     0.048819
      f-2     :     0.094166
      f+3     :     0.169906
      f-3     :     0.186961
      g0      :     0.009765  g :     0.248347
      g+1     :     0.030299
      g-1     :     0.012309
      g+2     :     0.016696
      g-2     :     0.019174
      g+3     :     0.021332
      g-3     :     0.015721
      g+4     :     0.046466
      g-4     :     0.076585
  1 N s       :     2.543360  s :     2.543360
      pz      :     0.899218  p :     2.697700
      px      :     0.921439
      py      :     0.877043
      dz2     :     0.069369  d :     0.624610
      dxz     :     0.098061
      dyz     :     0.046703
      dx2y2   :     0.208817
      dxy     :     0.201660
      f0      :     0.034494  f :     0.363483
      f+1     :     0.037293
      f-1     :     0.022389
      f+2     :     0.036203
      f-2     :     0.031326
      f+3     :     0.091555
      f-3     :     0.110222
      g0      :     0.003914  g :     0.085867
      g+1     :     0.007833
      g-1     :     0.003665
      g+2     :     0.006677
      g-2     :     0.006326
      g+3     :     0.006616
      g-3     :     0.004033
      g+4     :     0.019857
      g-4     :     0.026946
  2 C s       :     2.456801  s :     2.456801
      pz      :     0.499644  p :     2.114109
      px      :     0.774525
      py      :     0.839940
      dz2     :     0.138848  d :     1.411914
      dxz     :     0.200626
      dyz     :     0.261781
      dx2y2   :     0.388317
      dxy     :     0.422342
      f0      :     0.061922  f :     0.818032
      f+1     :     0.052095
      f-1     :     0.073933
      f+2     :     0.103571
      f-2     :     0.103838
      f+3     :     0.237232
      f-3     :     0.185441
      g0      :     0.019773  g :     0.271633
      g+1     :     0.015050
      g-1     :     0.024240
      g+2     :     0.025369
      g-2     :     0.014017
      g+3     :     0.023880
      g-3     :     0.027526
      g+4     :     0.049821
      g-4     :     0.071957
  3 B s       :     2.424834  s :     2.424834
      pz      :     0.232306  p :     1.576176
      px      :     0.696715
      py      :     0.647156
      dz2     :     0.082189  d :     0.502802
      dxz     :     0.026312
      dyz     :     0.122038
      dx2y2   :     0.137088
      dxy     :     0.135175
      f0      :     0.016450  f :     0.289580
      f+1     :     0.012258
      f-1     :     0.081083
      f+2     :     0.047066
      f-2     :     0.019471
      f+3     :     0.056219
      f-3     :     0.057033
      g0      :     0.008009  g :     0.090416
      g+1     :     0.002602
      g-1     :     0.009400
      g+2     :     0.015983
      g-2     :     0.003858
      g+3     :     0.010096
      g-3     :     0.011629
      g+4     :     0.016534
      g-4     :     0.012306
  4 O s       :     3.102563  s :     3.102563
      pz      :     1.098637  p :     3.819656
      px      :     1.363250
      py      :     1.357769
      dz2     :     0.028568  d :     0.236011
      dxz     :     0.028123
      dyz     :     0.020544
      dx2y2   :     0.098813
      dxy     :     0.059963
      f0      :     0.009430  f :     0.117094
      f+1     :     0.010867
      f-1     :     0.008448
      f+2     :     0.004155
      f-2     :     0.013738
      f+3     :     0.036988
      f-3     :     0.033467
      g0      :     0.002074  g :     0.032452
      g+1     :     0.001707
      g-1     :     0.001752
      g+2     :     0.001666
      g-2     :     0.004379
      g+3     :     0.001631
      g-3     :     0.001489
      g+4     :     0.008029
      g-4     :     0.009726
  5 H s       :     0.657658  s :     0.657658
      pz      :     0.050731  p :     0.282759
      px      :     0.079604
      py      :     0.152424
      dz2     :     0.041699  d :     0.287207
      dxz     :     0.019847
      dyz     :     0.061929
      dx2y2   :     0.069103
      dxy     :     0.094628
      f0      :     0.013568  f :     0.154825
      f+1     :     0.007009
      f-1     :     0.020781
      f+2     :     0.017892
      f-2     :     0.013873
      f+3     :     0.043215
      f-3     :     0.038487
  6 O s       :     3.080873  s :     3.080873
      pz      :     1.133528  p :     3.852882
      px      :     1.347298
      py      :     1.372056
      dz2     :     0.032554  d :     0.272142
      dxz     :     0.016725
      dyz     :     0.053296
      dx2y2   :     0.067152
      dxy     :     0.102415
      f0      :     0.009681  f :     0.128981
      f+1     :     0.003973
      f-1     :     0.017358
      f+2     :     0.015709
      f-2     :     0.013652
      f+3     :     0.040368
      f-3     :     0.028240
      g0      :     0.001839  g :     0.033863
      g+1     :     0.000532
      g-1     :     0.004428
      g+2     :     0.002988
      g-2     :     0.000920
      g+3     :     0.003521
      g-3     :     0.004154
      g+4     :     0.007600
      g-4     :     0.007882
  7 H s       :     0.562348  s :     0.562348
      pz      :     0.122706  p :     0.434003
      px      :     0.126691
      py      :     0.184605
      dz2     :     0.046777  d :     0.394940
      dxz     :     0.025585
      dyz     :     0.104820
      dx2y2   :     0.100967
      dxy     :     0.116792
      f0      :     0.017869  f :     0.200562
      f+1     :     0.007156
      f-1     :     0.027916
      f+2     :     0.030871
      f-2     :     0.015943
      f+3     :     0.052698
      f-3     :     0.048110
  8 P s       :     4.521553  s :     4.521553
      pz      :     2.838413  p :     8.062424
      px      :     2.542844
      py      :     2.681167
      dz2     :     0.046821  d :     0.591081
      dxz     :     0.072787
      dyz     :     0.101747
      dx2y2   :     0.162340
      dxy     :     0.207386
      f0      :     0.037438  f :     0.386332
      f+1     :     0.032320
      f-1     :     0.015592
      f+2     :     0.049002
      f-2     :     0.080834
      f+3     :     0.093436
      f-3     :     0.077711
      g0      :     0.008432  g :     0.139012
      g+1     :     0.011106
      g-1     :     0.008138
      g+2     :     0.007308
      g-2     :     0.008674
      g+3     :     0.022760
      g-3     :     0.017745
      g+4     :     0.032284
      g-4     :     0.022566
  9 H s       :     0.758524  s :     0.758524
      pz      :     0.028017  p :     0.238640
      px      :     0.114211
      py      :     0.096412
      dz2     :     0.022866  d :     0.179815
      dxz     :     0.010944
      dyz     :     0.020329
      dx2y2   :     0.084209
      dxy     :     0.041468
      f0      :     0.003792  f :     0.071230
      f+1     :     0.007547
      f-1     :     0.006478
      f+2     :     0.001389
      f-2     :     0.005278
      f+3     :     0.023332
      f-3     :     0.023414
 10 H s       :     0.784230  s :     0.784230
      pz      :     0.035011  p :     0.231413
      px      :     0.120678
      py      :     0.075724
      dz2     :     0.020720  d :     0.172734
      dxz     :     0.020510
      dyz     :     0.018355
      dx2y2   :     0.047654
      dxy     :     0.065496
      f0      :     0.005138  f :     0.068589
      f+1     :     0.006938
      f-1     :     0.001779
      f+2     :     0.006307
      f-2     :     0.011056
      f+3     :     0.020241
      f-3     :     0.017129
 11 H s       :     0.748940  s :     0.748940
      pz      :     0.140381  p :     0.333785
      px      :     0.077583
      py      :     0.115822
      dz2     :     0.056105  d :     0.255113
      dxz     :     0.029552
      dyz     :     0.055513
      dx2y2   :     0.070848
      dxy     :     0.043097
      f0      :     0.007932  f :     0.109327
      f+1     :     0.010885
      f-1     :     0.020315
      f+2     :     0.010544
      f-2     :     0.020069
      f+3     :     0.018990
      f-3     :     0.020592


                      *****************************
                      * MAYER POPULATION ANALYSIS *
                      *****************************

  NA   - Mulliken gross atomic population
  ZA   - Total nuclear charge
  QA   - Mulliken gross atomic charge
  VA   - Mayer's total valence
  BVA  - Mayer's bonded valence
  FA   - Mayer's free valence

  ATOM       NA         ZA         QA         VA         BVA        FA
  0 C      5.5797     6.0000     0.4203     3.6023     3.6023     0.0000
  1 N      7.6378     7.0000    -0.6378     3.1757     3.1757    -0.0000
  2 C      5.2907     6.0000     0.7093     3.0197     3.0197     0.0000
  3 B      4.7712     5.0000     0.2288     3.1031     3.1031     0.0000
  4 O      8.7585     8.0000    -0.7585     1.7495     1.7495     0.0000
  5 H      0.5593     1.0000     0.4407     0.8219     0.8219     0.0000
  6 O      8.7642     8.0000    -0.7642     1.6140     1.6140     0.0000
  7 H      0.6871     1.0000     0.3129     0.9487     0.9487    -0.0000
  8 P     14.6274    15.0000     0.3726     3.0106     3.0106     0.0000
  9 H      1.1425     1.0000    -0.1425     0.8793     0.8793     0.0000
 10 H      1.1929     1.0000    -0.1929     0.9044     0.9044     0.0000
 11 H      0.9888     1.0000     0.0112     0.9125     0.9125     0.0000

  Mayer bond orders larger than 0.100000
B(  0-C ,  1-N ) :   1.1725 B(  0-C ,  4-O ) :   1.5728 B(  0-C ,  5-H ) :   0.8210 
B(  1-N ,  2-C ) :   0.9730 B(  1-N ,  6-O ) :   0.1633 B(  1-N ,  7-H ) :   0.9040 
B(  2-C ,  6-O ) :   1.3640 B(  2-C ,  8-P ) :   0.7990 B(  3-B ,  8-P ) :   1.2817 
B(  3-B ,  9-H ) :   0.9267 B(  3-B , 10-H ) :   0.9419 B(  8-P , 11-H ) :   0.9849 


-------
TIMINGS
-------

Total SCF time: 0 days 0 hours 44 min 58 sec 

Total time                  ....    2698.100 sec
Sum of individual times     ....    2685.646 sec  ( 99.5%)

Fock matrix formation       ....     551.444 sec  ( 20.4%)
Diagonalization             ....       0.729 sec  (  0.0%)
Density matrix formation    ....       0.064 sec  (  0.0%)
Population analysis         ....       1.311 sec  (  0.0%)
Initial guess               ....       0.312 sec  (  0.0%)
Orbital Transformation      ....       0.000 sec  (  0.0%)
Orbital Orthonormalization  ....       0.000 sec  (  0.0%)
DIIS solution               ....       0.165 sec  (  0.0%)
SOSCF solution              ....       1.086 sec  (  0.0%)
SCF Stability Analysis      ....    2130.536 sec  ( 79.0%)

Maximum memory used throughout the entire SCF-calculation: 279.5 MB


           ************************************************************
           *        Program running with 16 parallel MPI-processes    *
           *              working on a common directory               *
           ************************************************************

------------------------------------------------------------------------------
                                ORCA  MP2 
------------------------------------------------------------------------------

Freezing NCore=22 chemical core electrons

-------------
RI-MP2 ENERGY
-------------
Dimension of the basis                    ...  794
Memory devoted to MP2                     ... 3800 MB   
Data format for buffers                   ... DOUBLE
Compression type for matrix containers    ... UNCOMPRESSED
Overall scaling of the MP2 energy         ...   1.000e+00
Calculating two index integrals           ... done (    0.024 sec)
Cholesky decomposition of V**-1           ... done (    0.242 sec)

-----------------
RI-TRANSFORMATION (AUX index driven)
-----------------

Dimension of the orbital-basis         ... 794
Dimension of the aux-basis             ... 1602
Transformation of internal/external MOs...   11-  29 to   30- 793
Number Format for Storage              ... Double (8 Byte)
Integral mode                          ... Direct

First Phase: integral generation and transformation of MO indices
  Aux angular momentum 0               ... done (    0.063 sec)
  Aux angular momentum 1               ... done (    6.048 sec)
  Aux angular momentum 2               ... done (    0.631 sec)
  Aux angular momentum 3               ... done (    0.744 sec)
  Aux angular momentum 4               ... done (    0.523 sec)
  Aux angular momentum 5               ... done (    0.142 sec)
Closing buffer VIA ( 0.17 GB; CompressionRatio= 1.00)
  Phase 1 completed in     8.533 sec
Second Phase: sorting and transformation of aux index

IA-Transformation
Memory available                       ... 3729 MB 
Max. # MO pairs treated in a batch     ... 2    
# of internal orbitals                 ... 19
# batches for internal orbitals        ... 1
Closing buffer IAV ( 0.17 GB; CompressionRatio= 1.00)
(ia|v) transformation done in     0.674 sec

  Phase 2 completed in     1.543 sec
RI-Integral transformation completed in    10.692 sec
Opening buffers                              ... done

Starting loop over batches of integrals:

Operator 0  - window                       ... ( 11- 29)x( 30-793)
Operator 0  - Memory available             ...  3800 MB
Operator 0  - Memory needed per MO         ...   9.3 MB
Operator 0  - Number of orbitals per batch ... 2
Operator 0  - Number of batches            ... 1

OPERATOR  0   PASS   0:  MOs    11 ...   12 +   13 ...   14 +   15 ...   16 +   17 ...   18
                            +   19 ...   20 +   21 ...   22 +   23 ...   24 +   25 ...   26
                            +   27 ...   28 +   29 ...   29
  Reading integrals       ... ok
Time spent in pair loops =     0.166 sec
Deleting buffer (Ka|jb)[aa] ...done

-----------------------------------------------
 RI-MP2 CORRELATION ENERGY:     -1.321429169 Eh
-----------------------------------------------


-------
TIMINGS
-------

Total time                :   13.586 sec
Integral trafo            :   10.703 sec ( 78.8%)
I/O of integrals          :    0.008 sec (  0.1%)
K(i,j) Operators          :    0.134 sec (  1.0%)
T(i,j) pair energies      :    0.009 sec (  0.1%)
V-calculation             :    0.024 sec (  0.2%)
V**(-1/2)                 :    0.242 sec (  1.8%)
Gamma(ia|P)               :    0.000 sec (  0.0%)
Gamma-Trafo               :    0.000 sec (  0.0%)
D(virtual)                :    0.000 sec (  0.0%)
D(internal)               :    0.000 sec (  0.0%)
W(virtual)                :    0.000 sec (  0.0%)
W(internal)               :    0.000 sec (  0.0%)
L(virtual)                :    0.000 sec (  0.0%)
L(internal)               :    0.000 sec (  0.0%)
G(D)                      :    0.000 sec (  0.0%)
G(Z)                      :    0.000 sec (  0.0%)
Z-Vector Solution         :    0.000 sec (  0.0%)
3-Index Derivative        :    0.000 sec (  0.0%)
2-Index Derivative        :    0.000 sec (  0.0%)
Separable Gradient        :    0.000 sec (  0.0%)


---------------------------------------
MP2 TOTAL ENERGY:     -649.716427330 Eh
---------------------------------------

Maximum memory used throughout the entire MP2-calculation: 182.5 MB

-------------------------   --------------------
FINAL SINGLE POINT ENERGY      -649.716427329553
-------------------------   --------------------


                            ***************************************
                            *     ORCA property calculations      *
                            ***************************************


  WARNING: The energy has been calculated at the MP2 level but the densities
           used in the property calculations are still SCF densities
           MP2 response densities have not been calculated 
           use %mp2 Density relaxed end
           or  %mp2 Density unrelaxed end

                                    ---------------------
                                    Active property flags
                                    ---------------------
   (+) Dipole Moment


------------------------------------------------------------------------------
                       ORCA ELECTRIC PROPERTIES CALCULATION
------------------------------------------------------------------------------

Dipole Moment Calculation                       ... on
Quadrupole Moment Calculation                   ... off
Polarizability Calculation                      ... off
GBWName                                         ... QZ_B-P_78_AB.gbw
Electron density                                ... QZ_B-P_78_AB.scfp
The origin for moment calculation is the CENTER OF MASS  = ( 0.009551,  0.033798 -0.024723)

-------------
DIPOLE MOMENT
-------------
                                X             Y             Z
Electronic contribution:     -0.73030       1.59238      -1.40996
Nuclear contribution   :     -0.57305      -2.02792       1.48336
                        -----------------------------------------
Total Dipole Moment    :     -1.30335      -0.43554       0.07340
                        -----------------------------------------
Magnitude (a.u.)       :      1.37615
Magnitude (Debye)      :      3.49790



--------------------
Rotational spectrum 
--------------------
 
Rotational constants in cm-1:     0.142415     0.041289     0.033231 
Rotational constants in MHz :  4269.487524  1237.799409   996.249331 

 Dipole components along the rotational axes: 
x,y,z [a.u.] :    -1.294491     0.458285     0.089826 
x,y,z [Debye]:    -3.290333     1.164867     0.228320 

 

Timings for individual modules:

Sum of individual times         ...     2735.121 sec (=  45.585 min)
GTO integral calculation        ...       20.591 sec (=   0.343 min)   0.8 %
SCF iterations                  ...     2699.239 sec (=  44.987 min)  98.7 %
MP2 module                      ...       15.291 sec (=   0.255 min)   0.6 %



                             ****ORCA TERMINATED NORMALLY****
TOTAL RUN TIME: 0 days 0 hours 55 minutes 37 seconds 474 msec
