
                                 *****************
                                 * O   R   C   A *
                                 *****************

                                            #,                                       
                                            ###                                      
                                            ####                                     
                                            #####                                    
                                            ######                                   
                                           ########,                                 
                                     ,,################,,,,,                         
                               ,,#################################,,                 
                          ,,##########################################,,             
                       ,#########################################, ''#####,          
                    ,#############################################,,   '####,        
                  ,##################################################,,,,####,       
                ,###########''''           ''''###############################       
              ,#####''   ,,,,##########,,,,          '''####'''          '####       
            ,##' ,,,,###########################,,,                        '##       
           ' ,,###''''                  '''############,,,                           
         ,,##''                                '''############,,,,        ,,,,,,###''
      ,#''                                            '''#######################'''  
     '                                                          ''''####''''         
             ,#######,   #######,   ,#######,      ##                                
            ,#'     '#,  ##    ##  ,#'     '#,    #''#        ######   ,####,        
            ##       ##  ##   ,#'  ##            #'  '#       #        #'  '#        
            ##       ##  #######   ##           ,######,      #####,   #    #        
            '#,     ,#'  ##    ##  '#,     ,#' ,#      #,         ##   #,  ,#        
             '#######'   ##     ##  '#######'  #'      '#     #####' # '####'        



                  #######################################################
                  #                        -***-                        #
                  #          Department of theory and spectroscopy      #
                  #    Directorship and core code : Frank Neese         #
                  #        Max Planck Institute fuer Kohlenforschung    #
                  #                Kaiser Wilhelm Platz 1               #
                  #                 D-45470 Muelheim/Ruhr               #
                  #                      Germany                        #
                  #                                                     #
                  #                  All rights reserved                #
                  #                        -***-                        #
                  #######################################################


                         Program Version 5.0.4 -  RELEASE  -


 With contributions from (in alphabetic order):
   Daniel Aravena         : Magnetic Suceptibility
   Michael Atanasov       : Ab Initio Ligand Field Theory (pilot matlab implementation)
   Alexander A. Auer      : GIAO ZORA, VPT2 properties, NMR spectrum
   Ute Becker             : Parallelization
   Giovanni Bistoni       : ED, misc. LED, open-shell LED, HFLD
   Martin Brehm           : Molecular dynamics
   Dmytro Bykov           : SCF Hessian
   Vijay G. Chilkuri      : MRCI spin determinant printing, contributions to CSF-ICE
   Dipayan Datta          : RHF DLPNO-CCSD density
   Achintya Kumar Dutta   : EOM-CC, STEOM-CC
   Dmitry Ganyushin       : Spin-Orbit,Spin-Spin,Magnetic field MRCI
   Miquel Garcia          : C-PCM and meta-GGA Hessian, CC/C-PCM, Gaussian charge scheme
   Yang Guo               : DLPNO-NEVPT2, F12-NEVPT2, CIM, IAO-localization
   Andreas Hansen         : Spin unrestricted coupled pair/coupled cluster methods
   Benjamin Helmich-Paris : MC-RPA, TRAH-SCF, COSX integrals
   Lee Huntington         : MR-EOM, pCC
   Robert Izsak           : Overlap fitted RIJCOSX, COSX-SCS-MP3, EOM
   Marcus Kettner         : VPT2
   Christian Kollmar      : KDIIS, OOCD, Brueckner-CCSD(T), CCSD density, CASPT2, CASPT2-K
   Simone Kossmann        : Meta GGA functionals, TD-DFT gradient, OOMP2, MP2 Hessian
   Martin Krupicka        : Initial AUTO-CI
   Lucas Lang             : DCDCAS
   Marvin Lechner         : AUTO-CI (C++ implementation), FIC-MRCC
   Dagmar Lenk            : GEPOL surface, SMD
   Dimitrios Liakos       : Extrapolation schemes; Compound Job, initial MDCI parallelization
   Dimitrios Manganas     : Further ROCIS development; embedding schemes
   Dimitrios Pantazis     : SARC Basis sets
   Anastasios Papadopoulos: AUTO-CI, single reference methods and gradients
   Taras Petrenko         : DFT Hessian,TD-DFT gradient, ASA, ECA, R-Raman, ABS, FL, XAS/XES, NRVS
   Peter Pinski           : DLPNO-MP2, DLPNO-MP2 Gradient
   Christoph Reimann      : Effective Core Potentials
   Marius Retegan         : Local ZFS, SOC
   Christoph Riplinger    : Optimizer, TS searches, QM/MM, DLPNO-CCSD(T), (RO)-DLPNO pert. Triples
   Tobias Risthaus        : Range-separated hybrids, TD-DFT gradient, RPA, STAB
   Michael Roemelt        : Original ROCIS implementation
   Masaaki Saitow         : Open-shell DLPNO-CCSD energy and density
   Barbara Sandhoefer     : DKH picture change effects
   Avijit Sen             : IP-ROCIS
   Kantharuban Sivalingam : CASSCF convergence, NEVPT2, FIC-MRCI
   Bernardo de Souza      : ESD, SOC TD-DFT
   Georgi Stoychev        : AutoAux, RI-MP2 NMR, DLPNO-MP2 response
   Willem Van den Heuvel  : Paramagnetic NMR
   Boris Wezisla          : Elementary symmetry handling
   Frank Wennmohs         : Technical directorship


 We gratefully acknowledge several colleagues who have allowed us to
 interface, adapt or use parts of their codes:
   Stefan Grimme, W. Hujo, H. Kruse, P. Pracht,  : VdW corrections, initial TS optimization,
                  C. Bannwarth, S. Ehlert          DFT functionals, gCP, sTDA/sTD-DF
   Ed Valeev, F. Pavosevic, A. Kumar             : LibInt (2-el integral package), F12 methods
   Garnet Chan, S. Sharma, J. Yang, R. Olivares  : DMRG
   Ulf Ekstrom                                   : XCFun DFT Library
   Mihaly Kallay                                 : mrcc  (arbitrary order and MRCC methods)
   Jiri Pittner, Ondrej Demel                    : Mk-CCSD
   Frank Weinhold                                : gennbo (NPA and NBO analysis)
   Christopher J. Cramer and Donald G. Truhlar   : smd solvation model
   Lars Goerigk                                  : TD-DFT with DH, B97 family of functionals
   V. Asgeirsson, H. Jonsson                     : NEB implementation
   FAccTs GmbH                                   : IRC, NEB, NEB-TS, DLPNO-Multilevel, CI-OPT
                                                   MM, QMMM, 2- and 3-layer-ONIOM, Crystal-QMMM,
                                                   LR-CPCM, SF, NACMEs, symmetry and pop. for TD-DFT,
                                                   nearIR, NL-DFT gradient (VV10), updates on ESD,
                                                   ML-optimized integration grids
   S Lehtola, MJT Oliveira, MAL Marques          : LibXC Library
   Liviu Ungur et al                             : ANISO software


 Your calculation uses the libint2 library for the computation of 2-el integrals
 For citations please refer to: http://libint.valeyev.net

 Your ORCA version has been built with support for libXC version: 5.1.0
 For citations please refer to: https://tddft.org/programs/libxc/

 This ORCA versions uses:
   CBLAS   interface :  Fast vector & matrix operations
   LAPACKE interface :  Fast linear algebra routines
   SCALAPACK package :  Parallel linear algebra routines
   Shared memory     :  Shared parallel matrices
   BLAS/LAPACK       :  OpenBLAS 0.3.15  USE64BITINT DYNAMIC_ARCH NO_AFFINITY Zen SINGLE_THREADED
        Core in use  :  Zen
   Copyright (c) 2011-2014, The OpenBLAS Project


================================================================================

----- Orbital basis set information -----
Your calculation utilizes the basis: aug-cc-pVDZ 
    H, B-Ne : Obtained from the ccRepo (grant-hill.group.shef.ac.uk/ccrepo) Feb. 2017
              R. A. Kendall, T. H. Dunning, Jr., R. J. Harrison, J. Chem. Phys. 96, 6796 (1992)
         He : Obtained from the ccRepo (grant-hill.group.shef.ac.uk/ccrepo) Feb. 2017
              D. E. Woon, T. H. Dunning, Jr., J. Chem. Phys. 100, 2975 (1994)
  Li-Be, Na : Obtained from the ccRepo (grant-hill.group.shef.ac.uk/ccrepo) Feb. 2017
              B. P. Prascher, D. E. Woon, K. A. Peterson, T. H. Dunning, Jr., A. K. Wilson, Theor. Chem. Acc. 128, 69 (2011)
         Mg : Obtained from the Peterson Research Group Website (tyr0.chem.wsu.edu/~kipeters) Feb. 2017
              B. P. Prascher, D. E. Woon, K. A. Peterson, T. H. Dunning, Jr., A. K. Wilson, Theor. Chem. Acc. 128, 69 (2011)
      Al-Ar : Obtained from the ccRepo (grant-hill.group.shef.ac.uk/ccrepo) Feb. 2017
              D. E. Woon, T. H. Dunning, Jr., J. Chem. Phys. 98, 1358 (1993)
      Sc-Zn : Obtained from the ccRepo (grant-hill.group.shef.ac.uk/ccrepo) Feb. 2017
              N. B. Balabanov, K. A. Peterson, J. Chem. Phys. 123, 064107 (2005)
              N. B. Balabanov, K. A. Peterson, J. Chem. Phys. 125, 074110 (2006)
      Ga-Kr : Obtained from the ccRepo (grant-hill.group.shef.ac.uk/ccrepo) Feb. 2017
              A. K. Wilson, D. E. Woon, K. A. Peterson, T. H. Dunning, Jr., J. Chem. Phys. 110, 7667 (1999)

----- AuxC basis set information -----
Your calculation utilizes the auxiliary basis: aug-cc-pVDZ/C 
  H-He, B, Ne, Al-Ar, Ga-Ge, Se-Br : Obtained from the EMSL Basis Set Exchange (bse.pnl.gov) Feb. 2017
                                     F. Weigend, A. Kohn, C. Hattig, J. Chem. Phys. 116, 3175 (2002)
                            Be, Mg : Obtained from the TURBOMOLE 7.0 basis set library
                                     C. Haettig, Phys. Chem. Chem. Phys. 7, 59 (2005)
                               C-F : Obtained from the EMSL Basis Set Exchange (bse.pnl.gov) Feb. 2017
                                     C. Haettig, Phys. Chem. Chem. Phys. 7, 59 (2005)
                                     F. Weigend, A. Kohn, C. Hattig, J. Chem. Phys. 116, 3175 (2002)
                                As : Obtained from the EMSL Basis Set Exchange (bse.pnl.gov) Feb. 2017
                                     C. Haettig, G. Schmitz, J. Kossmann, Phys. Chem. Chem. Phys. 14, 6549 (2012)
                                Kr : Obtained from the TURBOMOLE 7.0 basis set library
                                     F. Weigend, A. Kohn, C. Hattig, J. Chem. Phys. 116, 3175 (2002)
                                     S function revised in Sep. 2009

================================================================================
                                        WARNINGS
                       Please study these warnings very carefully!
================================================================================


WARNING: No MP2 level density has been requested!
         To caclulate MP2 level properties use
         %mp2 Density relaxed end
         or
         %mp2 Density unrelaxed end

WARNING: Post HF methods need fully converged wavefunctions
  ===> : Setting SCFConvForced true
         You can overwrite this default with %scf ConvForced false 


INFO   : the flag for use of the SHARK integral package has been found!

================================================================================

----- Orbital basis set information -----
Your calculation utilizes the basis: aug-cc-pVTZ 
    H, B-Ne : Obtained from the ccRepo (grant-hill.group.shef.ac.uk/ccrepo) Feb. 2017
              R. A. Kendall, T. H. Dunning, Jr., R. J. Harrison, J. Chem. Phys. 96, 6796 (1992)
         He : Obtained from the ccRepo (grant-hill.group.shef.ac.uk/ccrepo) Feb. 2017
              D. E. Woon, T. H. Dunning, Jr., J. Chem. Phys. 100, 2975 (1994)
  Li-Be, Na : Obtained from the ccRepo (grant-hill.group.shef.ac.uk/ccrepo) Feb. 2017
              B. P. Prascher, D. E. Woon, K. A. Peterson, T. H. Dunning, Jr., A. K. Wilson, Theor. Chem. Acc. 128, 69 (2011)
         Mg : Obtained from the Peterson Research Group Website (tyr0.chem.wsu.edu/~kipeters) Feb. 2017
              B. P. Prascher, D. E. Woon, K. A. Peterson, T. H. Dunning, Jr., A. K. Wilson, Theor. Chem. Acc. 128, 69 (2011)
      Al-Ar : Obtained from the ccRepo (grant-hill.group.shef.ac.uk/ccrepo) Feb. 2017
              D. E. Woon, T. H. Dunning, Jr., J. Chem. Phys. 98, 1358 (1993)
      Sc-Zn : Obtained from the ccRepo (grant-hill.group.shef.ac.uk/ccrepo) Feb. 2017
              N. B. Balabanov, K. A. Peterson, J. Chem. Phys. 123, 064107 (2005)
              N. B. Balabanov, K. A. Peterson, J. Chem. Phys. 125, 074110 (2006)
      Ga-Kr : Obtained from the ccRepo (grant-hill.group.shef.ac.uk/ccrepo) Feb. 2017
              A. K. Wilson, D. E. Woon, K. A. Peterson, T. H. Dunning, Jr., J. Chem. Phys. 110, 7667 (1999)
     Ag, Au : Obtained from the Peterson Research Group Website (tyr0.chem.wsu.edu/~kipeters) Feb. 2017
              K. A. Peterson, C. Puzzarini, Theor. Chem. Acc. 114, 283 (2005)

----- AuxC basis set information -----
Your calculation utilizes the auxiliary basis: aug-cc-pVTZ/C 
  H-He, B-F, Al-Ar, Ga-Kr : Obtained from the EMSL Basis Set Exchange (bse.pnl.gov) Feb. 2017
                            F. Weigend, A. Kohn, C. Hattig, J. Chem. Phys. 116, 3175 (2002)
                   Be, Mg : Obtained from the TURBOMOLE 7.0 basis set library
                            C. Haettig, Phys. Chem. Chem. Phys. 7, 59 (2005)
                       Ne : Obtained from the EMSL Basis Set Exchange (bse.pnl.gov) Feb. 2017
                            C. Haettig, Phys. Chem. Chem. Phys. 7, 59 (2005)
                            F. Weigend, A. Kohn, C. Hattig, J. Chem. Phys. 116, 3175 (2002)
                    Sc-Zn : Obtained from the EMSL Basis Set Exchange (bse.pnl.gov) Feb. 2017
                            J. G. Hill, J. A. Platts, J. Chem. Phys. 128, 044104 (2008)

================================================================================
                                        WARNINGS
                       Please study these warnings very carefully!
================================================================================


WARNING: No MP2 level density has been requested!
         To caclulate MP2 level properties use
         %mp2 Density relaxed end
         or
         %mp2 Density unrelaxed end

INFO   : the flag for use of the SHARK integral package has been found!

================================================================================

----- Orbital basis set information -----
Your calculation utilizes the basis: aug-cc-pVQZ 
    H, B-Ne : Obtained from the ccRepo (grant-hill.group.shef.ac.uk/ccrepo) Feb. 2017
              R. A. Kendall, T. H. Dunning, Jr., R. J. Harrison, J. Chem. Phys. 96, 6796 (1992)
         He : Obtained from the ccRepo (grant-hill.group.shef.ac.uk/ccrepo) Feb. 2017
              D. E. Woon, T. H. Dunning, Jr., J. Chem. Phys. 100, 2975 (1994)
  Li-Be, Na : Obtained from the ccRepo (grant-hill.group.shef.ac.uk/ccrepo) Feb. 2017
              B. P. Prascher, D. E. Woon, K. A. Peterson, T. H. Dunning, Jr., A. K. Wilson, Theor. Chem. Acc. 128, 69 (2011)
         Mg : Obtained from the Peterson Research Group Website (tyr0.chem.wsu.edu/~kipeters) Feb. 2017
              B. P. Prascher, D. E. Woon, K. A. Peterson, T. H. Dunning, Jr., A. K. Wilson, Theor. Chem. Acc. 128, 69 (2011)
      Al-Ar : Obtained from the ccRepo (grant-hill.group.shef.ac.uk/ccrepo) Feb. 2017
              D. E. Woon, T. H. Dunning, Jr., J. Chem. Phys. 98, 1358 (1993)
      Sc-Zn : Obtained from the ccRepo (grant-hill.group.shef.ac.uk/ccrepo) Feb. 2017
              N. B. Balabanov, K. A. Peterson, J. Chem. Phys. 123, 064107 (2005)
              N. B. Balabanov, K. A. Peterson, J. Chem. Phys. 125, 074110 (2006)
      Ga-Kr : Obtained from the ccRepo (grant-hill.group.shef.ac.uk/ccrepo) Feb. 2017
              A. K. Wilson, D. E. Woon, K. A. Peterson, T. H. Dunning, Jr., J. Chem. Phys. 110, 7667 (1999)

----- AuxC basis set information -----
Your calculation utilizes the auxiliary basis: aug-cc-pVQZ/C 
  H-He, B-F, Al-Ar, Ga-Kr : Obtained from the EMSL Basis Set Exchange (bse.pnl.gov) Feb. 2017
                            F. Weigend, A. Kohn, C. Hattig, J. Chem. Phys. 116, 3175 (2002)
                   Be, Mg : Obtained from the TURBOMOLE 7.0 basis set library
                            C. Haettig, Phys. Chem. Chem. Phys. 7, 59 (2005)
                       Ne : Obtained from the EMSL Basis Set Exchange (bse.pnl.gov) Feb. 2017
                            C. Haettig, Phys. Chem. Chem. Phys. 7, 59 (2005)
                            F. Weigend, A. Kohn, C. Hattig, J. Chem. Phys. 116, 3175 (2002)
                    Sc-Zn : Obtained from the EMSL Basis Set Exchange (bse.pnl.gov) Feb. 2017
                            D. H. Bross, J. G. Hill, H. J. Werner, K. A. Peterson, J. Chem. Phys. 139, 094302 (2013)

================================================================================
                                        WARNINGS
                       Please study these warnings very carefully!
================================================================================


WARNING: No MP2 level density has been requested!
         To caclulate MP2 level properties use
         %mp2 Density relaxed end
         or
         %mp2 Density unrelaxed end

INFO   : the flag for use of the SHARK integral package has been found!

================================================================================
                                       INPUT FILE
================================================================================
NAME = P-Cl_10_AB.inp
|  1> ! ri-mp2 aug-cc-pvdz aug-cc-pvdz/c tightscf
|  2> %pal nprocs 16 end
|  3> %maxcore 3800
|  4> %base "DZ_P-Cl_10_AB"
|  5> %scf
|  6> STABPerform true 
|  7> STABRestartUHFifUnstable true
|  8> end
|  9> 
| 10> *xyz 0 1
| 11> Cl        -2.993040    0.000000    0.245568
| 12> P        -1.190205    0.000000   -0.699923
| 13> C         0.000001   -1.247688    0.000014
| 14> O        -0.000005   -2.433313    0.000025
| 15> C         0.000000    1.247688    0.000014
| 16> P         1.190220    0.000000    0.699931
| 17> O        -0.000006    2.433313    0.000025
| 18> Cl         2.993031    0.000000   -0.245609
| 19> *
| 20> 
| 21> $new_job
| 22> ! ri-mp2 aug-cc-pvtz aug-cc-pvtz/c tightscf
| 23> %pal nprocs 16 end
| 24> %maxcore 3800
| 25> %base "TZ_P-Cl_10_AB"
| 26> 
| 27> *xyz 0 1
| 28> Cl        -2.993040    0.000000    0.245568
| 29> P        -1.190205    0.000000   -0.699923
| 30> C         0.000001   -1.247688    0.000014
| 31> O        -0.000005   -2.433313    0.000025
| 32> C         0.000000    1.247688    0.000014
| 33> P         1.190220    0.000000    0.699931
| 34> O        -0.000006    2.433313    0.000025
| 35> Cl         2.993031    0.000000   -0.245609
| 36> *
| 37> 
| 38> $new_job
| 39> ! ri-mp2 aug-cc-pvqz aug-cc-pvqz/c tightscf
| 40> %pal nprocs 16 end
| 41> %maxcore 3800
| 42> %base "QZ_P-Cl_10_AB"
| 43> 
| 44> *xyz 0 1
| 45> Cl        -2.993040    0.000000    0.245568
| 46> P        -1.190205    0.000000   -0.699923
| 47> C         0.000001   -1.247688    0.000014
| 48> O        -0.000005   -2.433313    0.000025
| 49> C         0.000000    1.247688    0.000014
| 50> P         1.190220    0.000000    0.699931
| 51> O        -0.000006    2.433313    0.000025
| 52> Cl         2.993031    0.000000   -0.245609
| 53> *
| 54> 
| 55> 
| 56> 
| 57> 
| 58>                          ****END OF INPUT****
================================================================================


                 $$$$$$$$$$$$$$$$$$$$$$$$$$$$$$$$$$$$$$$$$$$$$$ 
                 $ THERE ARE  3 JOBS TO BE PROCESSED THIS RUN $
                 $$$$$$$$$$$$$$$$$$$$$$$$$$$$$$$$$$$$$$$$$$$$$$ 




                 $$$$$$$$$$$$$$$$  JOB NUMBER  1 $$$$$$$$$$$$$$


                       ****************************
                       * Single Point Calculation *
                       ****************************

---------------------------------
CARTESIAN COORDINATES (ANGSTROEM)
---------------------------------
  Cl    -2.993040    0.000000    0.245568
  P     -1.190205    0.000000   -0.699923
  C      0.000001   -1.247688    0.000014
  O     -0.000005   -2.433313    0.000025
  C      0.000000    1.247688    0.000014
  P      1.190220    0.000000    0.699931
  O     -0.000006    2.433313    0.000025
  Cl     2.993031    0.000000   -0.245609

----------------------------
CARTESIAN COORDINATES (A.U.)
----------------------------
  NO LB      ZA    FRAG     MASS         X           Y           Z
   0 Cl   17.0000    0    35.453   -5.656026    0.000000    0.464056
   1 P    15.0000    0    30.974   -2.249161    0.000000   -1.322663
   2 C     6.0000    0    12.011    0.000002   -2.357789    0.000026
   3 O     8.0000    0    15.999   -0.000009   -4.598295    0.000047
   4 C     6.0000    0    12.011    0.000000    2.357789    0.000026
   5 P    15.0000    0    30.974    2.249190    0.000000    1.322678
   6 O     8.0000    0    15.999   -0.000011    4.598295    0.000047
   7 Cl   17.0000    0    35.453    5.656009    0.000000   -0.464134

--------------------------------
INTERNAL COORDINATES (ANGSTROEM)
--------------------------------
 Cl     0   0   0     0.000000000000     0.00000000     0.00000000
 P      1   0   0     2.035722787686     0.00000000     0.00000000
 C      2   1   0     1.860974871337   113.06086682     0.00000000
 O      3   2   1     1.185625000066   132.10171706    67.37414857
 C      2   1   3     1.860974231777   113.06084557   266.44866313
 P      3   2   1     1.860975663515    95.79662697   247.37422681
 O      5   2   1     1.185625000066   132.10173485   292.62584176
 Cl     6   3   2     2.035724292069   113.06050120   247.37614296

---------------------------
INTERNAL COORDINATES (A.U.)
---------------------------
 Cl     0   0   0     0.000000000000     0.00000000     0.00000000
 P      1   0   0     3.846958553310     0.00000000     0.00000000
 C      2   1   0     3.516732848937   113.06086682     0.00000000
 O      3   2   1     2.240506547656   132.10171706    67.37414857
 C      2   1   3     3.516731640343   113.06084557   266.44866313
 P      3   2   1     3.516734345935    95.79662697   247.37422681
 O      5   2   1     2.240506547656   132.10173485   292.62584176
 Cl     6   3   2     3.846961396182   113.06050120   247.37614296

---------------------
BASIS SET INFORMATION
---------------------
There are 4 groups of distinct atoms

 Group   1 Type Cl  : 35s16p2d contracted to 5s4p2d pattern {11111111/7711/11}
 Group   2 Type P   : 35s16p2d contracted to 5s4p2d pattern {11111111/7711/11}
 Group   3 Type C   : 18s5p2d contracted to 4s3p2d pattern {8811/311/11}
 Group   4 Type O   : 18s5p2d contracted to 4s3p2d pattern {8811/311/11}

Atom   0Cl   basis set group =>   1
Atom   1P    basis set group =>   2
Atom   2C    basis set group =>   3
Atom   3O    basis set group =>   4
Atom   4C    basis set group =>   3
Atom   5P    basis set group =>   2
Atom   6O    basis set group =>   4
Atom   7Cl   basis set group =>   1
---------------------------------
AUXILIARY/C BASIS SET INFORMATION
---------------------------------
There are 4 groups of distinct atoms

 Group   1 Type Cl  : 10s8p6d4f contracted to 10s8p6d4f pattern {1111111111/11111111/111111/1111}
 Group   2 Type P   : 10s8p6d4f contracted to 10s8p6d4f pattern {1111111111/11111111/111111/1111}
 Group   3 Type C   : 8s6p5d3f contracted to 8s6p5d3f pattern {11111111/111111/11111/111}
 Group   4 Type O   : 8s6p5d3f contracted to 8s6p5d3f pattern {11111111/111111/11111/111}

Atom   0Cl   basis set group =>   1
Atom   1P    basis set group =>   2
Atom   2C    basis set group =>   3
Atom   3O    basis set group =>   4
Atom   4C    basis set group =>   3
Atom   5P    basis set group =>   2
Atom   6O    basis set group =>   4
Atom   7Cl   basis set group =>   1


           ************************************************************
           *        Program running with 16 parallel MPI-processes    *
           *              working on a common directory               *
           ************************************************************
------------------------------------------------------------------------------
                           ORCA GTO INTEGRAL CALCULATION
------------------------------------------------------------------------------
------------------------------------------------------------------------------
                   ___                                                        
                  /   \      - P O W E R E D   B Y -                         
                 /     \                                                     
                 |  |  |   _    _      __       _____    __    __             
                 |  |  |  | |  | |    /  \     |  _  \  |  |  /  |          
                  \  \/   | |  | |   /    \    | | | |  |  | /  /          
                 / \  \   | |__| |  /  /\  \   | |_| |  |  |/  /          
                |  |  |   |  __  | /  /__\  \  |    /   |      \           
                |  |  |   | |  | | |   __   |  |    \   |  |\   \          
                \     /   | |  | | |  |  |  |  | |\  \  |  | \   \       
                 \___/    |_|  |_| |__|  |__|  |_| \__\ |__|  \__/        
                                                                              
                      - O R C A' S   B I G   F R I E N D -                    
                                      &                                       
                       - I N T E G R A L  F E E D E R -                       
                                                                              
 v1 FN, 2020, v2 2021                                                         
------------------------------------------------------------------------------


Reading SHARK input file DZ_P-Cl_10_AB.SHARKINP.tmp ... ok
----------------------
SHARK INTEGRAL PACKAGE
----------------------

Number of atoms                             ...      8
Number of basis functions                   ...    316
Number of shells                            ...    156
Maximum angular momentum                    ...      2
Integral batch strategy                     ... SHARK/LIBINT Hybrid
RI-J (if used) integral strategy            ... SPLIT-RIJ (Revised 2003 algorithm where possible)
Printlevel                                  ...      1
Contraction scheme used                     ... PARTIAL GENERAL contraction
Coulomb Range Separation                    ... NOT USED
Exchange Range Separation                   ... NOT USED
Finite Nucleus Model                        ... NOT USED
Auxiliary Coulomb fitting basis             ... NOT available
Auxiliary J/K fitting basis                 ... NOT available
Auxiliary Correlation fitting basis         ... AVAILABLE
   # of basis functions in Aux-C            ...    656
   # of shells in Aux-C                     ...    200
   Maximum angular momentum in Aux-C        ...      3
Auxiliary 'external' fitting basis          ... NOT available
Integral threshold                          ...     2.500000e-11
Primitive cut-off                           ...     2.500000e-12
Primitive pair pre-selection threshold      ...     2.500000e-12

Calculating pre-screening integrals         ... done (  0.0 sec) Dimension = 156
Calculating pre-screening integrals (ORCA)  ... done (  0.1 sec) Dimension = 80
Organizing shell pair data                  ... done (  0.4 sec)
Shell pair information
Total number of shell pairs                 ...     12246
Shell pairs after pre-screening             ...      8080
Total number of primitive shell pairs       ...     13542
Primitive shell pairs kept                  ...      8765
          la=0 lb=0:   2133 shell pairs
          la=1 lb=0:   2878 shell pairs
          la=1 lb=1:    933 shell pairs
          la=2 lb=0:   1296 shell pairs
          la=2 lb=1:    706 shell pairs
          la=2 lb=2:    134 shell pairs

Calculating one electron integrals          ... done (  0.0 sec)
Calculating RI/C V-Matrix + Cholesky decomp.... done ( 53.1 sec)
Calculating Nuclear repulsion               ... done (  0.0 sec) ENN=    670.555839824177 Eh

SHARK setup successfully completed in  57.6 seconds

Maximum memory used throughout the entire GTOINT-calculation: 30.8 MB


           ************************************************************
           *        Program running with 16 parallel MPI-processes    *
           *              working on a common directory               *
           ************************************************************
-------------------------------------------------------------------------------
                                 ORCA SCF
-------------------------------------------------------------------------------

------------
SCF SETTINGS
------------
Hamiltonian:
 Ab initio Hamiltonian  Method          .... Hartree-Fock(GTOs)


General Settings:
 Integral files         IntName         .... DZ_P-Cl_10_AB
 Hartree-Fock type      HFTyp           .... RHF
 Total Charge           Charge          ....    0
 Multiplicity           Mult            ....    1
 Number of Electrons    NEL             ....   92
 Basis Dimension        Dim             ....  200
 Nuclear Repulsion      ENuc            ....    670.5558398242 Eh

Convergence Acceleration:
 DIIS                   CNVDIIS         .... on
   Start iteration      DIISMaxIt       ....    12
   Startup error        DIISStart       ....  0.200000
   # of expansion vecs  DIISMaxEq       ....     5
   Bias factor          DIISBfac        ....   1.050
   Max. coefficient     DIISMaxC        ....  10.000
 Trust-Rad. Augm. Hess. CNVTRAH         .... auto
   Auto Start mean grad. ratio tolernc. ....  1.125000
   Auto Start start iteration           ....    20
   Auto Start num. interpolation iter.  ....    10
   Max. Number of Micro iterations      ....    16
   Max. Number of Macro iterations      .... Maxiter - #DIIS iter
   Number of Davidson start vectors     ....     2
   Converg. threshold I  (grad. norm)   ....   1.000e-05
   Converg. threshold II (energy diff.) ....   1.000e-08
   Grad. Scal. Fac. for Micro threshold ....   0.100
   Minimum threshold for Micro iter.    ....   0.010
   NR start threshold (gradient norm)   ....   0.001
   Initial trust radius                 ....   0.400
   Minimum AH scaling param. (alpha)    ....   1.000
   Maximum AH scaling param. (alpha)    .... 1000.000
   Orbital update algorithm             .... Taylor
   White noise on init. David. guess    .... on
   Maximum white noise                  ....   0.010
   Quad. conv. algorithm                .... NR
 SOSCF                  CNVSOSCF        .... on
   Start iteration      SOSCFMaxIt      ....   150
   Startup grad/error   SOSCFStart      ....  0.003300
 Level Shifting         CNVShift        .... on
   Level shift para.    LevelShift      ....    0.2500
   Turn off err/grad.   ShiftErr        ....    0.0010
 Zerner damping         CNVZerner       .... off
 Static damping         CNVDamp         .... on
   Fraction old density DampFac         ....    0.7000
   Max. Damping (<1)    DampMax         ....    0.9800
   Min. Damping (>=0)   DampMin         ....    0.0000
   Turn off err/grad.   DampErr         ....    0.1000
 Fernandez-Rico         CNVRico         .... off

SCF Procedure:
 Maximum # iterations   MaxIter         ....   125
 SCF integral mode      SCFMode         .... Direct
   Integral package                     .... SHARK and LIBINT hybrid scheme
 Reset frequency        DirectResetFreq ....    20
 Integral Threshold     Thresh          ....  2.500e-11 Eh
 Primitive CutOff       TCut            ....  2.500e-12 Eh

Convergence Tolerance:
 Convergence Check Mode ConvCheckMode   .... Total+1el-Energy
 Convergence forced     ConvForced      .... 1
 Energy Change          TolE            ....  1.000e-08 Eh
 1-El. energy change                    ....  1.000e-05 Eh
 Orbital Gradient       TolG            ....  1.000e-05
 Orbital Rotation angle TolX            ....  1.000e-05
 DIIS Error             TolErr          ....  5.000e-07


Diagonalization of the overlap matrix:
Smallest eigenvalue                        ... 1.555e-04
Time for diagonalization                   ...    0.005 sec
Threshold for overlap eigenvalues          ... 1.000e-08
Number of eigenvalues below threshold      ... 0
Time for construction of square roots      ...    3.271 sec
Total time needed                          ...    3.276 sec

Time for model grid setup =    1.746 sec

------------------------------
INITIAL GUESS: MODEL POTENTIAL
------------------------------
Loading Hartree-Fock densities                     ... done
Calculating cut-offs                               ... done
Initializing the effective Hamiltonian             ... done
Setting up the integral package (SHARK)            ... done
Starting the Coulomb interaction                   ... done (   1.2 sec)
Reading the grid                                   ... done
Mapping shells                                     ... done
Starting the XC term evaluation                    ... done (   0.0 sec)
Transforming the Hamiltonian                       ... done (   0.1 sec)
Diagonalizing the Hamiltonian                      ... done (   0.0 sec)
Back transforming the eigenvectors                 ... done (   0.0 sec)
Now organizing SCF variables                       ... done
                      ------------------
                      INITIAL GUESS DONE (   3.0 sec)
                      ------------------
--------------
SCF ITERATIONS
--------------
ITER       Energy         Delta-E        Max-DP      RMS-DP      [F,P]     Damp
               ***  Starting incremental Fock matrix formation  ***
  0  -1825.6913222777   0.000000000000 0.06929768  0.00190059  0.2517361 0.7000
  1  -1825.7799460712  -0.088623793440 0.04912542  0.00144196  0.1455348 0.7000
                               ***Turning on DIIS***
  2  -1825.8306237048  -0.050677633615 0.09415082  0.00342969  0.0758632 0.0000
  3  -1825.7149430512   0.115680653605 0.03669811  0.00083539  0.0586212 0.0000
  4  -1825.9969774225  -0.282034371313 0.01453560  0.00056409  0.0113749 0.0000
  5  -1825.9687127609   0.028264661619 0.01140932  0.00036825  0.0071195 0.0000
  6  -1825.9399960051   0.028716755748 0.01000349  0.00035761  0.0046799 0.0000
  7  -1825.9662200137  -0.026224008624 0.00628114  0.00025023  0.0029732 0.0000
  8  -1825.9545483615   0.011671652283 0.00419885  0.00016028  0.0016357 0.0000
  9  -1825.9590304964  -0.004482134973 0.00389107  0.00015648  0.0008462 0.0000
                      *** Initiating the SOSCF procedure ***
                           *** Shutting down DIIS ***
                      *** Re-Reading the Fockian *** 
                      *** Removing any level shift *** 
ITER      Energy       Delta-E        Grad      Rot      Max-DP    RMS-DP
 10  -1825.95758586   0.0014446376  0.000715  0.000715  0.000817  0.000028
               *** Restarting incremental Fock matrix formation ***
 11  -1825.95676302   0.0008228386  0.000248  0.000528  0.000552  0.000011
 12  -1825.95676467  -0.0000016495  0.000154  0.000914  0.000633  0.000016
 13  -1825.95676624  -0.0000015748  0.000053  0.000268  0.000195  0.000006
 14  -1825.95676641  -0.0000001639  0.000018  0.000059  0.000069  0.000002
 15  -1825.95676643  -0.0000000253  0.000007  0.000028  0.000041  0.000001
                  ***Gradient check signals convergence***
              ***Rediagonalizing the Fockian in SOSCF/NRSCF***

               *****************************************************
               *                     SUCCESS                       *
               *           SCF CONVERGED AFTER  16 CYCLES          *
               *****************************************************


------------------------------------------------------------------------------
                          SCF STABILITY ANALYSIS                              
------------------------------------------------------------------------------


                       ****Iteration    0****

   Memory handling for direct AO based CIS:
   Memory per vector needed      ...     1 MB
   Memory needed                 ...     5 MB
   Memory available              ...  3800 MB
   Number of vectors per batch   ...  3800
   Number of batches             ...     1
   Time for densities:     0.003
   Using LibInt in JK Direct
   Time for K (Direct):     3.090
   Time for Sigma-Completion:     0.083
   Lowest Energy          :     0.105314245385
   Maximum Energy change  :     0.160796780757 (vector 2)
   Maximum residual norm  :     0.022670595669

                       ****Iteration    1****
   Time for densities:     0.001
   Using LibInt in JK Direct
   Time for K (Direct):     2.111
   Time for Sigma-Completion:     0.066
   Lowest Energy          :     0.049145549119
   Maximum Energy change  :     0.076632723215 (vector 1)
   Maximum residual norm  :     0.005154628088

                       ****Iteration    2****
   Time for densities:     0.001
   Using LibInt in JK Direct
   Time for K (Direct):     2.119
   Time for Sigma-Completion:     0.027
   Lowest Energy          :     0.037573363967
   Maximum Energy change  :     0.019177046164 (vector 1)
   Maximum residual norm  :     0.002078019920

                       ****Iteration    3****
   Time for densities:     0.001
   Using LibInt in JK Direct
   Time for K (Direct):     2.117
   Time for Sigma-Completion:     0.040
   Lowest Energy          :     0.027387205348
   Maximum Energy change  :     0.010186158620 (vector 0)
   Maximum residual norm  :     0.001861744762

                       ****Iteration    4****
   Time for densities:     0.001
   Using LibInt in JK Direct
   Time for K (Direct):     2.120
   Time for Sigma-Completion:     0.024
   Lowest Energy          :     0.021140194089
   Maximum Energy change  :     0.006247011259 (vector 0)
   Maximum residual norm  :     0.000889771615

                       ****Iteration    5****
   Time for densities:     0.001
   Using LibInt in JK Direct
   Time for K (Direct):     2.121
   Time for Sigma-Completion:     0.027
   Lowest Energy          :     0.018701629735
   Maximum Energy change  :     0.002438564353 (vector 0)
   Maximum residual norm  :     0.002302346767

                       ****Iteration    6****
   Time for densities:     0.001
   Using LibInt in JK Direct
   Time for K (Direct):     2.116
   Time for Sigma-Completion:     0.041
   Lowest Energy          :     0.018111379955
   Maximum Energy change  :     0.004665045611 (vector 2)
   Maximum residual norm  :     0.000505449308

                       ****Iteration    7****
   Time for densities:     0.001
   Using LibInt in JK Direct
   Time for K (Direct):     2.124
   Time for Sigma-Completion:     0.038
   Lowest Energy          :     0.017981768834
   Maximum Energy change  :     0.017213656295 (vector 2)
   Maximum residual norm  :     0.004781467702

                       ****Iteration    8****
   Time for densities:     0.001
   Using LibInt in JK Direct
   Time for K (Direct):     2.128
   Time for Sigma-Completion:     0.174
   Lowest Energy          :     0.017954021021
   Maximum Energy change  :     0.010803581234 (vector 1)
   Maximum residual norm  :     0.001839507585

                       ****Iteration    9****
   Time for densities:     0.001
   Using LibInt in JK Direct
   Time for K (Direct):     2.240
   Time for Sigma-Completion:     0.031
   Lowest Energy          :     0.017950486520
   Maximum Energy change  :     0.003287150037 (vector 1)
   Maximum residual norm  :     0.000350299751

                       ****Iteration   10****
   Time for densities:     0.001
   Using LibInt in JK Direct
   Time for K (Direct):     2.132
   Time for Sigma-Completion:     0.048
   Lowest Energy          :     0.017949924376
   Maximum Energy change  :     0.000375124778 (vector 1)
   Maximum residual norm  :     0.000017893272

      *** CONVERGENCE OF RESIDUAL NORM REACHED ***

----------------------------- 
SCF STABILITY ANALYSIS RESULT 
----------------------------- 

RHF/RKS->UHF/UKS - triplet - external

   Root    Eigenvalue (au) 
     0       0.017950 
     1       0.034078 
     2       0.053248 

Stability Analysis indicates a stable HF/KS wave function.


Total time for performing the stability analysis:    38.051sec


----------------
TOTAL SCF ENERGY
----------------

Total Energy       :        -1825.95676644 Eh          -49686.80964 eV

Components:
Nuclear Repulsion  :          670.55583982 Eh           18246.75205 eV
Electronic Energy  :        -2496.51260627 Eh          -67933.56169 eV
One Electron Energy:        -3856.80504086 Eh         -104949.00067 eV
Two Electron Energy:         1360.29243460 Eh           37015.43897 eV

Virial components:
Potential Energy   :        -3651.75473116 Eh          -99369.29807 eV
Kinetic Energy     :         1825.79796472 Eh           49682.48843 eV
Virial Ratio       :            2.00008698


---------------
SCF CONVERGENCE
---------------

  Last Energy change         ...   -7.0681e-09  Tolerance :   1.0000e-08
  Last MAX-Density change    ...    9.0169e-06  Tolerance :   1.0000e-07
  Last RMS-Density change    ...    2.5211e-07  Tolerance :   5.0000e-09
  Last Orbital Gradient      ...    2.3538e-06  Tolerance :   1.0000e-05
  Last Orbital Rotation      ...    7.4315e-06  Tolerance :   1.0000e-05

             **** THE GBW FILE WAS UPDATED (DZ_P-Cl_10_AB.gbw) ****
             **** DENSITY DZ_P-Cl_10_AB.scfp WAS UPDATED ****
             **** ENERGY FILE WAS UPDATED (DZ_P-Cl_10_AB.en.tmp) ****
             **** THE GBW FILE WAS UPDATED (DZ_P-Cl_10_AB.gbw) ****
             **** DENSITY DZ_P-Cl_10_AB.scfp WAS UPDATED ****
----------------
ORBITAL ENERGIES
----------------

  NO   OCC          E(Eh)            E(eV) 
   0   2.0000    -104.880272     -2853.9373 
   1   2.0000    -104.880272     -2853.9373 
   2   2.0000     -80.055945     -2178.4330 
   3   2.0000     -80.055944     -2178.4330 
   4   2.0000     -20.629538      -561.3583 
   5   2.0000     -20.629538      -561.3583 
   6   2.0000     -11.403513      -310.3054 
   7   2.0000     -11.403503      -310.3051 
   8   2.0000     -10.606913      -288.6288 
   9   2.0000     -10.606907      -288.6286 
  10   2.0000      -8.074483      -219.7179 
  11   2.0000      -8.074483      -219.7178 
  12   2.0000      -8.071111      -219.6261 
  13   2.0000      -8.071111      -219.6261 
  14   2.0000      -8.070887      -219.6200 
  15   2.0000      -8.070886      -219.6200 
  16   2.0000      -7.594243      -206.6499 
  17   2.0000      -7.594230      -206.6495 
  18   2.0000      -5.488313      -149.3446 
  19   2.0000      -5.488298      -149.3442 
  20   2.0000      -5.486353      -149.2913 
  21   2.0000      -5.486341      -149.2909 
  22   2.0000      -5.485603      -149.2708 
  23   2.0000      -5.485592      -149.2706 
  24   2.0000      -1.467891       -39.9433 
  25   2.0000      -1.465843       -39.8876 
  26   2.0000      -1.167941       -31.7813 
  27   2.0000      -1.157821       -31.5059 
  28   2.0000      -1.054870       -28.7045 
  29   2.0000      -0.855588       -23.2817 
  30   2.0000      -0.837589       -22.7920 
  31   2.0000      -0.736594       -20.0437 
  32   2.0000      -0.697364       -18.9762 
  33   2.0000      -0.663468       -18.0539 
  34   2.0000      -0.655893       -17.8477 
  35   2.0000      -0.637183       -17.3386 
  36   2.0000      -0.625712       -17.0265 
  37   2.0000      -0.594073       -16.1655 
  38   2.0000      -0.532575       -14.4921 
  39   2.0000      -0.529427       -14.4064 
  40   2.0000      -0.523429       -14.2432 
  41   2.0000      -0.515060       -14.0155 
  42   2.0000      -0.511128       -13.9085 
  43   2.0000      -0.424156       -11.5419 
  44   2.0000      -0.399092       -10.8598 
  45   2.0000      -0.363069        -9.8796 
  46   0.0000      -0.015029        -0.4090 
  47   0.0000       0.055011         1.4969 
  48   0.0000       0.059099         1.6082 
  49   0.0000       0.059577         1.6212 
  50   0.0000       0.061196         1.6652 
  51   0.0000       0.071228         1.9382 
  52   0.0000       0.072588         1.9752 
  53   0.0000       0.084357         2.2955 
  54   0.0000       0.088746         2.4149 
  55   0.0000       0.093577         2.5464 
  56   0.0000       0.115938         3.1548 
  57   0.0000       0.125988         3.4283 
  58   0.0000       0.126996         3.4557 
  59   0.0000       0.127655         3.4737 
  60   0.0000       0.144365         3.9284 
  61   0.0000       0.145371         3.9557 
  62   0.0000       0.159520         4.3408 
  63   0.0000       0.168046         4.5728 
  64   0.0000       0.169051         4.6001 
  65   0.0000       0.172168         4.6849 
  66   0.0000       0.180204         4.9036 
  67   0.0000       0.183555         4.9948 
  68   0.0000       0.205092         5.5808 
  69   0.0000       0.205617         5.5951 
  70   0.0000       0.209328         5.6961 
  71   0.0000       0.226412         6.1610 
  72   0.0000       0.236513         6.4358 
  73   0.0000       0.242208         6.5908 
  74   0.0000       0.250230         6.8091 
  75   0.0000       0.270700         7.3661 
  76   0.0000       0.288719         7.8564 
  77   0.0000       0.294379         8.0105 
  78   0.0000       0.297944         8.1075 
  79   0.0000       0.307105         8.3567 
  80   0.0000       0.320782         8.7289 
  81   0.0000       0.321056         8.7364 
  82   0.0000       0.325353         8.8533 
  83   0.0000       0.333632         9.0786 
  84   0.0000       0.350654         9.5418 
  85   0.0000       0.357943         9.7401 
  86   0.0000       0.390452        10.6247 
  87   0.0000       0.395594        10.7647 
  88   0.0000       0.409028        11.1302 
  89   0.0000       0.417199        11.3526 
  90   0.0000       0.427149        11.6233 
  91   0.0000       0.434104        11.8126 
  92   0.0000       0.441142        12.0041 
  93   0.0000       0.447046        12.1647 
  94   0.0000       0.464709        12.6454 
  95   0.0000       0.480377        13.0717 
  96   0.0000       0.491496        13.3743 
  97   0.0000       0.509044        13.8518 
  98   0.0000       0.538193        14.6450 
  99   0.0000       0.546021        14.8580 
 100   0.0000       0.563894        15.3443 
 101   0.0000       0.567660        15.4468 
 102   0.0000       0.576177        15.6786 
 103   0.0000       0.589474        16.0404 
 104   0.0000       0.599628        16.3167 
 105   0.0000       0.608133        16.5481 
 106   0.0000       0.628885        17.1128 
 107   0.0000       0.630663        17.1612 
 108   0.0000       0.636400        17.3173 
 109   0.0000       0.658563        17.9204 
 110   0.0000       0.669103        18.2072 
 111   0.0000       0.695104        18.9147 
 112   0.0000       0.705043        19.1852 
 113   0.0000       0.728449        19.8221 
 114   0.0000       0.752605        20.4794 
 115   0.0000       0.799031        21.7427 
 116   0.0000       0.828980        22.5577 
 117   0.0000       0.852573        23.1997 
 118   0.0000       0.855859        23.2891 
 119   0.0000       0.863405        23.4944 
 120   0.0000       0.874860        23.8062 
 121   0.0000       0.881180        23.9781 
 122   0.0000       0.889431        24.2026 
 123   0.0000       0.895840        24.3771 
 124   0.0000       0.917170        24.9575 
 125   0.0000       0.922213        25.0947 
 126   0.0000       0.935360        25.4524 
 127   0.0000       0.943427        25.6720 
 128   0.0000       0.954142        25.9635 
 129   0.0000       0.980527        26.6815 
 130   0.0000       0.984489        26.7893 
 131   0.0000       0.998006        27.1571 
 132   0.0000       1.003809        27.3150 
 133   0.0000       1.013241        27.5717 
 134   0.0000       1.021046        27.7841 
 135   0.0000       1.032729        28.1020 
 136   0.0000       1.051594        28.6153 
 137   0.0000       1.067832        29.0572 
 138   0.0000       1.114286        30.3213 
 139   0.0000       1.167797        31.7774 
 140   0.0000       1.186167        32.2772 
 141   0.0000       1.203848        32.7584 
 142   0.0000       1.240603        33.7585 
 143   0.0000       1.252091        34.0711 
 144   0.0000       1.253393        34.1066 
 145   0.0000       1.263401        34.3789 
 146   0.0000       1.271931        34.6110 
 147   0.0000       1.286542        35.0086 
 148   0.0000       1.293856        35.2076 
 149   0.0000       1.317843        35.8603 
 150   0.0000       1.356969        36.9250 
 151   0.0000       1.381659        37.5969 
 152   0.0000       1.389063        37.7983 
 153   0.0000       1.397505        38.0280 
 154   0.0000       1.406193        38.2645 
 155   0.0000       1.429359        38.8948 
 156   0.0000       1.430663        38.9303 
 157   0.0000       1.432022        38.9673 
 158   0.0000       1.440424        39.1959 
 159   0.0000       1.470106        40.0036 
 160   0.0000       1.490263        40.5521 
 161   0.0000       1.505059        40.9547 
 162   0.0000       1.517912        41.3045 
 163   0.0000       1.525810        41.5194 
 164   0.0000       1.556759        42.3616 
 165   0.0000       1.564365        42.5685 
 166   0.0000       1.594480        43.3880 
 167   0.0000       1.718310        46.7576 
 168   0.0000       1.737775        47.2873 
 169   0.0000       1.750403        47.6309 
 170   0.0000       1.769336        48.1461 
 171   0.0000       1.787855        48.6500 
 172   0.0000       1.826984        49.7148 
 173   0.0000       1.832399        49.8621 
 174   0.0000       1.964938        53.4687 
 175   0.0000       1.973287        53.6959 
 176   0.0000       1.993909        54.2570 
 177   0.0000       2.012542        54.7640 
 178   0.0000       2.039305        55.4923 
 179   0.0000       2.054289        55.9000 
 180   0.0000       2.087114        56.7933 
 181   0.0000       2.198589        59.8266 
 182   0.0000       2.240869        60.9771 
 183   0.0000       2.275087        61.9083 
 184   0.0000       2.318522        63.0902 
 185   0.0000       2.326818        63.3159 
 186   0.0000       2.548848        69.3577 
 187   0.0000       2.877904        78.3117 
 188   0.0000       3.172768        86.3354 
 189   0.0000       3.185232        86.6746 
 190   0.0000       3.674510        99.9885 
 191   0.0000       3.697902       100.6250 
 192   0.0000       3.699039       100.6560 
 193   0.0000       3.717206       101.1503 
 194   0.0000       3.718456       101.1843 
 195   0.0000       3.732142       101.5567 
 196   0.0000       3.821819       103.9970 
 197   0.0000       3.826220       104.1167 
 198   0.0000       4.073191       110.8372 
 199   0.0000       4.074752       110.8796 

                    ********************************
                    * MULLIKEN POPULATION ANALYSIS *
                    ********************************

-----------------------
MULLIKEN ATOMIC CHARGES
-----------------------
   0 Cl:   -0.417428
   1 P :    0.899312
   2 C :    0.118780
   3 O :   -0.600665
   4 C :    0.118780
   5 P :    0.899313
   6 O :   -0.600665
   7 Cl:   -0.417428
Sum of atomic charges:    0.0000000

--------------------------------
MULLIKEN REDUCED ORBITAL CHARGES
--------------------------------
  0 Cls       :     6.076388  s :     6.076388
      pz      :     3.847856  p :    11.290707
      px      :     3.512389
      py      :     3.930462
      dz2     :     0.008241  d :     0.050333
      dxz     :     0.016526
      dyz     :     0.001674
      dx2y2   :     0.020205
      dxy     :     0.003687
  1 P s       :     5.218011  s :     5.218011
      pz      :     3.160475  p :     8.686927
      px      :     2.609009
      py      :     2.917443
      dz2     :     0.003309  d :     0.195750
      dxz     :     0.038334
      dyz     :     0.055826
      dx2y2   :     0.025017
      dxy     :     0.073264
  2 C s       :     3.367749  s :     3.367749
      pz      :     0.715258  p :     2.433865
      px      :     0.915092
      py      :     0.803516
      dz2     :     0.001716  d :     0.079605
      dxz     :     0.000706
      dyz     :     0.040750
      dx2y2   :    -0.108712
      dxy     :     0.145145
  3 O s       :     4.006126  s :     4.006126
      pz      :     1.452221  p :     4.540915
      px      :     1.813634
      py      :     1.275061
      dz2     :     0.002260  d :     0.053624
      dxz     :     0.000047
      dyz     :     0.023747
      dx2y2   :     0.009349
      dxy     :     0.018221
  4 C s       :     3.367749  s :     3.367749
      pz      :     0.715258  p :     2.433865
      px      :     0.915092
      py      :     0.803516
      dz2     :     0.001716  d :     0.079605
      dxz     :     0.000706
      dyz     :     0.040750
      dx2y2   :    -0.108712
      dxy     :     0.145145
  5 P s       :     5.218011  s :     5.218011
      pz      :     3.160470  p :     8.686926
      px      :     2.609012
      py      :     2.917444
      dz2     :     0.003310  d :     0.195750
      dxz     :     0.038334
      dyz     :     0.055825
      dx2y2   :     0.025016
      dxy     :     0.073265
  6 O s       :     4.006126  s :     4.006126
      pz      :     1.452221  p :     4.540915
      px      :     1.813634
      py      :     1.275061
      dz2     :     0.002260  d :     0.053624
      dxz     :     0.000047
      dyz     :     0.023747
      dx2y2   :     0.009349
      dxy     :     0.018221
  7 Cls       :     6.076388  s :     6.076388
      pz      :     3.847844  p :    11.290707
      px      :     3.512400
      py      :     3.930463
      dz2     :     0.008240  d :     0.050333
      dxz     :     0.016526
      dyz     :     0.001675
      dx2y2   :     0.020204
      dxy     :     0.003687


                     *******************************
                     * LOEWDIN POPULATION ANALYSIS *
                     *******************************

----------------------
LOEWDIN ATOMIC CHARGES
----------------------
   0 Cl:    0.127175
   1 P :    0.586926
   2 C :   -0.695865
   3 O :   -0.018236
   4 C :   -0.695865
   5 P :    0.586927
   6 O :   -0.018236
   7 Cl:    0.127173

-------------------------------
LOEWDIN REDUCED ORBITAL CHARGES
-------------------------------
  0 Cls       :     5.641368  s :     5.641368
      pz      :     3.773290  p :    11.072530
      px      :     3.485648
      py      :     3.813591
      dz2     :     0.023403  d :     0.158928
      dxz     :     0.070218
      dyz     :     0.004379
      dx2y2   :     0.041494
      dxy     :     0.019434
  1 P s       :     4.894498  s :     4.894498
      pz      :     3.136582  p :     8.593384
      px      :     2.692682
      py      :     2.764121
      dz2     :     0.123138  d :     0.925191
      dxz     :     0.214962
      dyz     :     0.099337
      dx2y2   :     0.203958
      dxy     :     0.283796
  2 C s       :     2.757317  s :     2.757317
      pz      :     0.713007  p :     2.714291
      px      :     0.934644
      py      :     1.066640
      dz2     :     0.115667  d :     1.224256
      dxz     :     0.112795
      dyz     :     0.278290
      dx2y2   :     0.251139
      dxy     :     0.466365
  3 O s       :     3.402485  s :     3.402485
      pz      :     1.315682  p :     4.406107
      px      :     1.589362
      py      :     1.501063
      dz2     :     0.022865  d :     0.209644
      dxz     :     0.000440
      dyz     :     0.042671
      dx2y2   :     0.071285
      dxy     :     0.072383
  4 C s       :     2.757317  s :     2.757317
      pz      :     0.713007  p :     2.714291
      px      :     0.934644
      py      :     1.066640
      dz2     :     0.115667  d :     1.224256
      dxz     :     0.112795
      dyz     :     0.278290
      dx2y2   :     0.251139
      dxy     :     0.466365
  5 P s       :     4.894501  s :     4.894501
      pz      :     3.136578  p :     8.593384
      px      :     2.692685
      py      :     2.764120
      dz2     :     0.123140  d :     0.925188
      dxz     :     0.214963
      dyz     :     0.099337
      dx2y2   :     0.203953
      dxy     :     0.283795
  6 O s       :     3.402485  s :     3.402485
      pz      :     1.315682  p :     4.406107
      px      :     1.589362
      py      :     1.501063
      dz2     :     0.022865  d :     0.209644
      dxz     :     0.000440
      dyz     :     0.042671
      dx2y2   :     0.071285
      dxy     :     0.072383
  7 Cls       :     5.641369  s :     5.641369
      pz      :     3.773282  p :    11.072531
      px      :     3.485657
      py      :     3.813592
      dz2     :     0.023404  d :     0.158928
      dxz     :     0.070218
      dyz     :     0.004380
      dx2y2   :     0.041492
      dxy     :     0.019433


                      *****************************
                      * MAYER POPULATION ANALYSIS *
                      *****************************

  NA   - Mulliken gross atomic population
  ZA   - Total nuclear charge
  QA   - Mulliken gross atomic charge
  VA   - Mayer's total valence
  BVA  - Mayer's bonded valence
  FA   - Mayer's free valence

  ATOM       NA         ZA         QA         VA         BVA        FA
  0 Cl    17.4174    17.0000    -0.4174     0.8739     0.8739     0.0000
  1 P     14.1007    15.0000     0.8993     2.8978     2.8978     0.0000
  2 C      5.8812     6.0000     0.1188     3.4527     3.4527     0.0000
  3 O      8.6007     8.0000    -0.6007     1.5978     1.5978    -0.0000
  4 C      5.8812     6.0000     0.1188     3.4527     3.4527     0.0000
  5 P     14.1007    15.0000     0.8993     2.8978     2.8978     0.0000
  6 O      8.6007     8.0000    -0.6007     1.5978     1.5978    -0.0000
  7 Cl    17.4174    17.0000    -0.4174     0.8739     0.8739     0.0000

  Mayer bond orders larger than 0.100000
B(  0-Cl,  1-P ) :   0.7944 B(  1-P ,  2-C ) :   0.9860 B(  1-P ,  4-C ) :   0.9860 
B(  1-P ,  5-P ) :   0.1069 B(  2-C ,  3-O ) :   1.5659 B(  2-C ,  4-C ) :  -0.1154 
B(  2-C ,  5-P ) :   0.9860 B(  4-C ,  5-P ) :   0.9860 B(  4-C ,  6-O ) :   1.5659 
B(  5-P ,  7-Cl) :   0.7944 

-------
TIMINGS
-------

Total SCF time: 0 days 0 hours 1 min 17 sec 

Total time                  ....      77.090 sec
Sum of individual times     ....      68.563 sec  ( 88.9%)

Fock matrix formation       ....      24.808 sec  ( 32.2%)
Diagonalization             ....       1.509 sec  (  2.0%)
Density matrix formation    ....       0.006 sec  (  0.0%)
Population analysis         ....       0.321 sec  (  0.4%)
Initial guess               ....       1.288 sec  (  1.7%)
Orbital Transformation      ....       0.000 sec  (  0.0%)
Orbital Orthonormalization  ....       0.000 sec  (  0.0%)
DIIS solution               ....       0.746 sec  (  1.0%)
SOSCF solution              ....       0.087 sec  (  0.1%)
SCF Stability Analysis      ....      38.051 sec  ( 49.4%)

Maximum memory used throughout the entire SCF-calculation: 232.2 MB


           ************************************************************
           *        Program running with 16 parallel MPI-processes    *
           *              working on a common directory               *
           ************************************************************

------------------------------------------------------------------------------
                                ORCA  MP2 
------------------------------------------------------------------------------

Freezing NCore=48 chemical core electrons

-------------
RI-MP2 ENERGY
-------------
Dimension of the basis                    ...  200
Memory devoted to MP2                     ... 3800 MB   
Data format for buffers                   ... DOUBLE
Compression type for matrix containers    ... UNCOMPRESSED
Overall scaling of the MP2 energy         ...   1.000e+00
Calculating two index integrals           ... done (    0.003 sec)
Cholesky decomposition of V**-1           ... done (    0.061 sec)

-----------------
RI-TRANSFORMATION (AUX index driven)
-----------------

Dimension of the orbital-basis         ... 200
Dimension of the aux-basis             ... 656
Transformation of internal/external MOs...   24-  45 to   46- 199
Number Format for Storage              ... Double (8 Byte)
Integral mode                          ... Direct

First Phase: integral generation and transformation of MO indices
  Aux angular momentum 0               ... done (    0.010 sec)
  Aux angular momentum 1               ... done (    0.011 sec)
  Aux angular momentum 2               ... done (    0.012 sec)
  Aux angular momentum 3               ... done (    0.011 sec)
Closing buffer VIA ( 0.02 GB; CompressionRatio= 1.00)
  Phase 1 completed in    43.530 sec
Second Phase: sorting and transformation of aux index

IA-Transformation
Memory available                       ... 3752 MB 
Max. # MO pairs treated in a batch     ... 2    
# of internal orbitals                 ... 22
# batches for internal orbitals        ... 1
Closing buffer IAV ( 0.02 GB; CompressionRatio= 1.00)
(ia|v) transformation done in    69.289 sec

  Phase 2 completed in    71.863 sec
RI-Integral transformation completed in   115.585 sec
Opening buffers                              ... done

Starting loop over batches of integrals:

Operator 0  - window                       ... ( 24- 45)x( 46-199)
Operator 0  - Memory available             ...  3800 MB
Operator 0  - Memory needed per MO         ...   0.8 MB
Operator 0  - Number of orbitals per batch ... 2
Operator 0  - Number of batches            ... 1

OPERATOR  0   PASS   0:  MOs    24 ...   25 +   26 ...   27 +   28 ...   29 +   30 ...   31
                            +   32 ...   33 +   34 ...   35 +   36 ...   37 +   38 ...   39
                            +   40 ...   41 +   42 ...   43 +   44 ...   45
  Reading integrals       ... ok
Time spent in pair loops =     0.035 sec
Deleting buffer (Ka|jb)[aa] ...done

-----------------------------------------------
 RI-MP2 CORRELATION ENERGY:     -1.176929219 Eh
-----------------------------------------------


-------
TIMINGS
-------

Total time                :  116.211 sec
Integral trafo            :  115.596 sec ( 99.5%)
I/O of integrals          :    0.004 sec (  0.0%)
K(i,j) Operators          :    0.003 sec (  0.0%)
T(i,j) pair energies      :    0.000 sec (  0.0%)
V-calculation             :    0.003 sec (  0.0%)
V**(-1/2)                 :    0.061 sec (  0.1%)
Gamma(ia|P)               :    0.000 sec (  0.0%)
Gamma-Trafo               :    0.000 sec (  0.0%)
D(virtual)                :    0.000 sec (  0.0%)
D(internal)               :    0.000 sec (  0.0%)
W(virtual)                :    0.000 sec (  0.0%)
W(internal)               :    0.000 sec (  0.0%)
L(virtual)                :    0.000 sec (  0.0%)
L(internal)               :    0.000 sec (  0.0%)
G(D)                      :    0.000 sec (  0.0%)
G(Z)                      :    0.000 sec (  0.0%)
Z-Vector Solution         :    0.000 sec (  0.0%)
3-Index Derivative        :    0.000 sec (  0.0%)
2-Index Derivative        :    0.000 sec (  0.0%)
Separable Gradient        :    0.000 sec (  0.0%)


---------------------------------------
MP2 TOTAL ENERGY:    -1827.133695660 Eh
---------------------------------------

Maximum memory used throughout the entire MP2-calculation: 94.9 MB

-------------------------   --------------------
FINAL SINGLE POINT ENERGY     -1827.133695659545
-------------------------   --------------------


                            ***************************************
                            *     ORCA property calculations      *
                            ***************************************


  WARNING: The energy has been calculated at the MP2 level but the densities
           used in the property calculations are still SCF densities
           MP2 response densities have not been calculated 
           use %mp2 Density relaxed end
           or  %mp2 Density unrelaxed end

                                    ---------------------
                                    Active property flags
                                    ---------------------
   (+) Dipole Moment


------------------------------------------------------------------------------
                       ORCA ELECTRIC PROPERTIES CALCULATION
------------------------------------------------------------------------------

Dipole Moment Calculation                       ... on
Quadrupole Moment Calculation                   ... off
Polarizability Calculation                      ... off
GBWName                                         ... DZ_P-Cl_10_AB.gbw
Electron density                                ... DZ_P-Cl_10_AB.scfp
The origin for moment calculation is the CENTER OF MASS  = (-0.000000,  0.000000 -0.000001)

-------------
DIPOLE MOMENT
-------------
                                X             Y             Z
Electronic contribution:      0.00000      -0.00000      -0.00006
Nuclear contribution   :     -0.00000       0.00000       0.00005
                        -----------------------------------------
Total Dipole Moment    :      0.00000      -0.00000      -0.00001
                        -----------------------------------------
Magnitude (a.u.)       :      0.00001
Magnitude (Debye)      :      0.00003



--------------------
Rotational spectrum 
--------------------
 
Rotational constants in cm-1:     0.064470     0.022252     0.017748 
Rotational constants in MHz :  1932.760798   667.101422   532.086513 

 Dipole components along the rotational axes: 
x,y,z [a.u.] :     0.000002     0.000000    -0.000010 
x,y,z [Debye]:     0.000006     0.000000    -0.000024 

 

Timings for individual modules:

Sum of individual times         ...      254.913 sec (=   4.249 min)
GTO integral calculation        ...       58.650 sec (=   0.977 min)  23.0 %
SCF iterations                  ...       78.321 sec (=   1.305 min)  30.7 %
MP2 module                      ...      117.942 sec (=   1.966 min)  46.3 %


                 $$$$$$$$$$$$$$$$  JOB NUMBER  2 $$$$$$$$$$$$$$


                       ****************************
                       * Single Point Calculation *
                       ****************************

---------------------------------
CARTESIAN COORDINATES (ANGSTROEM)
---------------------------------
  Cl    -2.993040    0.000000    0.245568
  P     -1.190205    0.000000   -0.699923
  C      0.000001   -1.247688    0.000014
  O     -0.000005   -2.433313    0.000025
  C      0.000000    1.247688    0.000014
  P      1.190220    0.000000    0.699931
  O     -0.000006    2.433313    0.000025
  Cl     2.993031    0.000000   -0.245609

----------------------------
CARTESIAN COORDINATES (A.U.)
----------------------------
  NO LB      ZA    FRAG     MASS         X           Y           Z
   0 Cl   17.0000    0    35.453   -5.656026    0.000000    0.464056
   1 P    15.0000    0    30.974   -2.249161    0.000000   -1.322663
   2 C     6.0000    0    12.011    0.000002   -2.357789    0.000026
   3 O     8.0000    0    15.999   -0.000009   -4.598295    0.000047
   4 C     6.0000    0    12.011    0.000000    2.357789    0.000026
   5 P    15.0000    0    30.974    2.249190    0.000000    1.322678
   6 O     8.0000    0    15.999   -0.000011    4.598295    0.000047
   7 Cl   17.0000    0    35.453    5.656009    0.000000   -0.464134

--------------------------------
INTERNAL COORDINATES (ANGSTROEM)
--------------------------------
 Cl     0   0   0     0.000000000000     0.00000000     0.00000000
 P      1   0   0     2.035722787686     0.00000000     0.00000000
 C      2   1   0     1.860974871337   113.06086682     0.00000000
 O      3   2   1     1.185625000066   132.10171706    67.37414857
 C      2   1   3     1.860974231777   113.06084557   266.44866313
 P      3   2   1     1.860975663515    95.79662697   247.37422681
 O      5   2   1     1.185625000066   132.10173485   292.62584176
 Cl     6   3   2     2.035724292069   113.06050120   247.37614296

---------------------------
INTERNAL COORDINATES (A.U.)
---------------------------
 Cl     0   0   0     0.000000000000     0.00000000     0.00000000
 P      1   0   0     3.846958553310     0.00000000     0.00000000
 C      2   1   0     3.516732848937   113.06086682     0.00000000
 O      3   2   1     2.240506547656   132.10171706    67.37414857
 C      2   1   3     3.516731640343   113.06084557   266.44866313
 P      3   2   1     3.516734345935    95.79662697   247.37422681
 O      5   2   1     2.240506547656   132.10173485   292.62584176
 Cl     6   3   2     3.846961396182   113.06050120   247.37614296

---------------------
BASIS SET INFORMATION
---------------------
There are 4 groups of distinct atoms

 Group   1 Type Cl  : 42s17p3d2f contracted to 6s5p3d2f pattern {131313111/77111/111/11}
 Group   2 Type P   : 42s17p3d2f contracted to 6s5p3d2f pattern {131313111/77111/111/11}
 Group   3 Type C   : 19s6p3d2f contracted to 5s4p3d2f pattern {88111/3111/111/11}
 Group   4 Type O   : 19s6p3d2f contracted to 5s4p3d2f pattern {88111/3111/111/11}

Atom   0Cl   basis set group =>   1
Atom   1P    basis set group =>   2
Atom   2C    basis set group =>   3
Atom   3O    basis set group =>   4
Atom   4C    basis set group =>   3
Atom   5P    basis set group =>   2
Atom   6O    basis set group =>   4
Atom   7Cl   basis set group =>   1
---------------------------------
AUXILIARY/C BASIS SET INFORMATION
---------------------------------
There are 4 groups of distinct atoms

 Group   1 Type Cl  : 11s9p8d6f3g contracted to 11s9p8d6f3g pattern {11111111111/111111111/11111111/111111/111}
 Group   2 Type P   : 11s9p8d6f3g contracted to 11s9p8d6f3g pattern {11111111111/111111111/11111111/111111/111}
 Group   3 Type C   : 9s7p6d4f2g contracted to 9s7p6d4f2g pattern {111111111/1111111/111111/1111/11}
 Group   4 Type O   : 9s7p6d4f2g contracted to 9s7p6d4f2g pattern {111111111/1111111/111111/1111/11}

Atom   0Cl   basis set group =>   1
Atom   1P    basis set group =>   2
Atom   2C    basis set group =>   3
Atom   3O    basis set group =>   4
Atom   4C    basis set group =>   3
Atom   5P    basis set group =>   2
Atom   6O    basis set group =>   4
Atom   7Cl   basis set group =>   1


           ************************************************************
           *        Program running with 16 parallel MPI-processes    *
           *              working on a common directory               *
           ************************************************************
------------------------------------------------------------------------------
                           ORCA GTO INTEGRAL CALCULATION
------------------------------------------------------------------------------
------------------------------------------------------------------------------
                   ___                                                        
                  /   \      - P O W E R E D   B Y -                         
                 /     \                                                     
                 |  |  |   _    _      __       _____    __    __             
                 |  |  |  | |  | |    /  \     |  _  \  |  |  /  |          
                  \  \/   | |  | |   /    \    | | | |  |  | /  /          
                 / \  \   | |__| |  /  /\  \   | |_| |  |  |/  /          
                |  |  |   |  __  | /  /__\  \  |    /   |      \           
                |  |  |   | |  | | |   __   |  |    \   |  |\   \          
                \     /   | |  | | |  |  |  |  | |\  \  |  | \   \       
                 \___/    |_|  |_| |__|  |__|  |_| \__\ |__|  \__/        
                                                                              
                      - O R C A' S   B I G   F R I E N D -                    
                                      &                                       
                       - I N T E G R A L  F E E D E R -                       
                                                                              
 v1 FN, 2020, v2 2021                                                         
------------------------------------------------------------------------------


Reading SHARK input file TZ_P-Cl_10_AB.SHARKINP.tmp ... ok
----------------------
SHARK INTEGRAL PACKAGE
----------------------

Number of atoms                             ...      8
Number of basis functions                   ...    508
Number of shells                            ...    204
Maximum angular momentum                    ...      3
Integral batch strategy                     ... SHARK/LIBINT Hybrid
RI-J (if used) integral strategy            ... SPLIT-RIJ (Revised 2003 algorithm where possible)
Printlevel                                  ...      1
Contraction scheme used                     ... PARTIAL GENERAL contraction
Coulomb Range Separation                    ... NOT USED
Exchange Range Separation                   ... NOT USED
Finite Nucleus Model                        ... NOT USED
Auxiliary Coulomb fitting basis             ... NOT available
Auxiliary J/K fitting basis                 ... NOT available
Auxiliary Correlation fitting basis         ... AVAILABLE
   # of basis functions in Aux-C            ...   1012
   # of shells in Aux-C                     ...    260
   Maximum angular momentum in Aux-C        ...      4
Auxiliary 'external' fitting basis          ... NOT available
Integral threshold                          ...     2.500000e-11
Primitive cut-off                           ...     2.500000e-12
Primitive pair pre-selection threshold      ...     2.500000e-12

Calculating pre-screening integrals         ... done (  0.0 sec) Dimension = 204
Calculating pre-screening integrals (ORCA)  ... done (  0.3 sec) Dimension = 120
Organizing shell pair data                  ... done (  0.2 sec)
Shell pair information
Total number of shell pairs                 ...     20910
Shell pairs after pre-screening             ...     14610
Total number of primitive shell pairs       ...     22590
Primitive shell pairs kept                  ...     15441
          la=0 lb=0:   2997 shell pairs
          la=1 lb=0:   3970 shell pairs
          la=1 lb=1:   1233 shell pairs
          la=2 lb=0:   2174 shell pairs
          la=2 lb=1:   1188 shell pairs
          la=2 lb=2:    288 shell pairs
          la=3 lb=0:   1438 shell pairs
          la=3 lb=1:    812 shell pairs
          la=3 lb=2:    376 shell pairs
          la=3 lb=3:    134 shell pairs

Calculating one electron integrals          ... done (  0.0 sec)
Calculating RI/C V-Matrix + Cholesky decomp.... done (  1.5 sec)
Calculating Nuclear repulsion               ... done (  0.1 sec) ENN=    670.555839824177 Eh

SHARK setup successfully completed in   3.6 seconds

Maximum memory used throughout the entire GTOINT-calculation: 58.8 MB
[1731554770.352389] [nc10933:1704998:0]          mpool.c:42   UCX  WARN  object 0xa99acc0 was not returned to mpool ucp_requests
[1731554770.352407] [nc10933:1704998:0]          mpool.c:42   UCX  WARN  object 0xa99ae80 was not returned to mpool ucp_requests
[1731554770.352410] [nc10933:1704998:0]          mpool.c:42   UCX  WARN  object 0xa99b040 was not returned to mpool ucp_requests
[1731554770.352415] [nc10933:1704998:0]          mpool.c:42   UCX  WARN  object 0xa99b200 was not returned to mpool ucp_requests
[1731554770.352418] [nc10933:1704998:0]          mpool.c:42   UCX  WARN  object 0xa99b3c0 was not returned to mpool ucp_requests
[1731554770.352422] [nc10933:1704998:0]          mpool.c:42   UCX  WARN  object 0xa99b580 was not returned to mpool ucp_requests
[1731554770.352424] [nc10933:1704998:0]          mpool.c:42   UCX  WARN  object 0xa99b740 was not returned to mpool ucp_requests
[1731554770.352428] [nc10933:1704998:0]          mpool.c:42   UCX  WARN  object 0xa99b900 was not returned to mpool ucp_requests
[1731554770.352430] [nc10933:1704998:0]          mpool.c:42   UCX  WARN  object 0xa99bac0 was not returned to mpool ucp_requests
[1731554770.352981] [nc10933:1704990:0]          mpool.c:42   UCX  WARN  object 0xb92a2c0 was not returned to mpool ucp_requests
[1731554770.353005] [nc10933:1704990:0]          mpool.c:42   UCX  WARN  object 0xb92a480 was not returned to mpool ucp_requests
[1731554770.353009] [nc10933:1704990:0]          mpool.c:42   UCX  WARN  object 0xb92a640 was not returned to mpool ucp_requests
[1731554770.353013] [nc10933:1704990:0]          mpool.c:42   UCX  WARN  object 0xb92a800 was not returned to mpool ucp_requests
[1731554770.353017] [nc10933:1704990:0]          mpool.c:42   UCX  WARN  object 0xb92a9c0 was not returned to mpool ucp_requests
[1731554770.353021] [nc10933:1704990:0]          mpool.c:42   UCX  WARN  object 0xb92ab80 was not returned to mpool ucp_requests
[1731554770.353024] [nc10933:1704990:0]          mpool.c:42   UCX  WARN  object 0xb92ad40 was not returned to mpool ucp_requests
[1731554770.353028] [nc10933:1704990:0]          mpool.c:42   UCX  WARN  object 0xb92af00 was not returned to mpool ucp_requests
[1731554770.362036] [nc10933:1704987:0]          mpool.c:42   UCX  WARN  object 0xbd88bc0 was not returned to mpool ucp_requests
[1731554770.362058] [nc10933:1704987:0]          mpool.c:42   UCX  WARN  object 0xbd88d80 was not returned to mpool ucp_requests
[1731554770.362061] [nc10933:1704987:0]          mpool.c:42   UCX  WARN  object 0xbd88f40 was not returned to mpool ucp_requests
[1731554770.362066] [nc10933:1704987:0]          mpool.c:42   UCX  WARN  object 0xbd89100 was not returned to mpool ucp_requests
[1731554770.362070] [nc10933:1704987:0]          mpool.c:42   UCX  WARN  object 0xbd892c0 was not returned to mpool ucp_requests
[1731554770.362072] [nc10933:1704987:0]          mpool.c:42   UCX  WARN  object 0xbd89480 was not returned to mpool ucp_requests
[1731554770.362076] [nc10933:1704987:0]          mpool.c:42   UCX  WARN  object 0xbd89640 was not returned to mpool ucp_requests
[1731554770.362080] [nc10933:1704987:0]          mpool.c:42   UCX  WARN  object 0xbd89800 was not returned to mpool ucp_requests
[1731554770.368625] [nc10933:1704986:0]          mpool.c:42   UCX  WARN  object 0xc45dfc0 was not returned to mpool ucp_requests
[1731554770.368646] [nc10933:1704986:0]          mpool.c:42   UCX  WARN  object 0xc45e180 was not returned to mpool ucp_requests
[1731554770.368652] [nc10933:1704986:0]          mpool.c:42   UCX  WARN  object 0xc45e340 was not returned to mpool ucp_requests
[1731554770.368657] [nc10933:1704986:0]          mpool.c:42   UCX  WARN  object 0xc45e500 was not returned to mpool ucp_requests
[1731554770.368661] [nc10933:1704986:0]          mpool.c:42   UCX  WARN  object 0xc45e6c0 was not returned to mpool ucp_requests
[1731554770.368665] [nc10933:1704986:0]          mpool.c:42   UCX  WARN  object 0xc45e880 was not returned to mpool ucp_requests
[1731554770.368668] [nc10933:1704986:0]          mpool.c:42   UCX  WARN  object 0xc45ea40 was not returned to mpool ucp_requests
[1731554770.368672] [nc10933:1704986:0]          mpool.c:42   UCX  WARN  object 0xc45ec00 was not returned to mpool ucp_requests
[...]
      f-3     :     0.000097
      g0      :     0.000011  g :     0.001208
      g+1     :    -0.000000
      g-1     :     0.000302
      g+2     :     0.000027
      g-2     :     0.000076
      g+3     :     0.000011
      g-3     :     0.000239
      g+4     :     0.000074
      g-4     :     0.000467
  4 C s       :     3.216257  s :     3.216257
      pz      :     0.697319  p :     2.493629
      px      :     0.902508
      py      :     0.893802
      dz2     :     0.000506  d :     0.133624
      dxz     :     0.009423
      dyz     :     0.041634
      dx2y2   :    -0.015112
      dxy     :     0.097173
      f0      :     0.004176  f :     0.046211
      f+1     :     0.002675
      f-1     :     0.005754
      f+2     :     0.009958
      f-2     :     0.005075
      f+3     :     0.009809
      f-3     :     0.008764
      g0      :     0.000004  g :    -0.000747
      g+1     :     0.000087
      g-1     :    -0.000302
      g+2     :    -0.000161
      g-2     :     0.000262
      g+3     :     0.000052
      g-3     :     0.000411
      g+4     :    -0.000248
      g-4     :    -0.000853
  5 P s       :     5.572426  s :     5.572426
      pz      :     3.237904  p :     8.286068
      px      :     2.420894
      py      :     2.627271
      dz2     :     0.012136  d :     0.147053
      dxz     :     0.039957
      dyz     :     0.025069
      dx2y2   :     0.026111
      dxy     :     0.043781
      f0      :     0.002330  f :     0.025126
      f+1     :     0.005776
      f-1     :     0.001696
      f+2     :     0.002951
      f-2     :     0.000887
      f+3     :     0.006182
      f-3     :     0.005303
      g0      :    -0.000079  g :     0.000864
      g+1     :     0.000674
      g-1     :     0.000354
      g+2     :     0.000845
      g-2     :    -0.000867
      g+3     :     0.000508
      g-3     :     0.000528
      g+4     :    -0.000083
      g-4     :    -0.001017
  6 O s       :     3.932668  s :     3.932668
      pz      :     1.458020  p :     4.678387
      px      :     1.844037
      py      :     1.376331
      dz2     :     0.005231  d :     0.065016
      dxz     :     0.000665
      dyz     :     0.027787
      dx2y2   :     0.014555
      dxy     :     0.016778
      f0      :     0.001366  f :     0.006735
      f+1     :     0.000119
      f-1     :     0.000048
      f+2     :     0.002676
      f-2     :     0.000216
      f+3     :     0.002213
      f-3     :     0.000097
      g0      :     0.000011  g :     0.001208
      g+1     :    -0.000000
      g-1     :     0.000302
      g+2     :     0.000027
      g-2     :     0.000076
      g+3     :     0.000011
      g-3     :     0.000239
      g+4     :     0.000074
      g-4     :     0.000467
  7 Cls       :     5.985425  s :     5.985425
      pz      :     3.859512  p :    11.327613
      px      :     3.507844
      py      :     3.960257
      dz2     :     0.009154  d :     0.068710
      dxz     :     0.028369
      dyz     :     0.002710
      dx2y2   :     0.017102
      dxy     :     0.011375
      f0      :     0.001006  f :     0.011906
      f+1     :     0.003179
      f-1     :     0.000020
      f+2     :     0.003153
      f-2     :     0.001167
      f+3     :     0.001741
      f-3     :     0.001639
      g0      :     0.000231  g :     0.001824
      g+1     :     0.000156
      g-1     :     0.000017
      g+2     :     0.000436
      g-2     :     0.000010
      g+3     :     0.000291
      g-3     :     0.000213
      g+4     :     0.000176
      g-4     :     0.000295


                     *******************************
                     * LOEWDIN POPULATION ANALYSIS *
                     *******************************

----------------------
LOEWDIN ATOMIC CHARGES
----------------------
   0 Cl:    0.726102
   1 P :   -0.048915
   2 C :   -1.198021
   3 O :    0.520835
   4 C :   -1.198021
   5 P :   -0.048914
   6 O :    0.520835
   7 Cl:    0.726100

-------------------------------
LOEWDIN REDUCED ORBITAL CHARGES
-------------------------------
  0 Cls       :     5.378686  s :     5.378686
      pz      :     3.568107  p :    10.520267
      px      :     3.391330
      py      :     3.560830
      dz2     :     0.046299  d :     0.249217
      dxz     :     0.103364
      dyz     :     0.005615
      dx2y2   :     0.057572
      dxy     :     0.036367
      f0      :     0.006118  f :     0.100316
      f+1     :     0.035925
      f-1     :     0.000528
      f+2     :     0.022124
      f-2     :     0.006387
      f+3     :     0.011853
      f-3     :     0.017381
      g0      :     0.003429  g :     0.025413
      g+1     :     0.002884
      g-1     :     0.000252
      g+2     :     0.006334
      g-2     :     0.000146
      g+3     :     0.004214
      g-3     :     0.002368
      g+4     :     0.002098
      g-4     :     0.003688
  1 P s       :     4.670280  s :     4.670280
      pz      :     2.892509  p :     8.082439
      px      :     2.612440
      py      :     2.577491
      dz2     :     0.148570  d :     1.094959
      dxz     :     0.257080
      dyz     :     0.100520
      dx2y2   :     0.275263
      dxy     :     0.313525
      f0      :     0.063748  f :     0.872572
      f+1     :     0.159284
      f-1     :     0.040255
      f+2     :     0.146836
      f-2     :     0.142178
      f+3     :     0.154356
      f-3     :     0.165915
      g0      :     0.028499  g :     0.328665
      g+1     :     0.029391
      g-1     :     0.010935
      g+2     :     0.042315
      g-2     :     0.022015
      g+3     :     0.040301
      g-3     :     0.064614
      g+4     :     0.030435
      g-4     :     0.060160
  2 C s       :     2.571810  s :     2.571810
      pz      :     0.579962  p :     2.337966
      px      :     0.753843
      py      :     1.004160
      dz2     :     0.133810  d :     1.359411
      dxz     :     0.120040
      dyz     :     0.310464
      dx2y2   :     0.322130
      dxy     :     0.472967
      f0      :     0.052789  f :     0.722064
      f+1     :     0.055050
      f-1     :     0.098924
      f+2     :     0.093296
      f-2     :     0.074088
      f+3     :     0.192248
      f-3     :     0.155669
      g0      :     0.011926  g :     0.206770
      g+1     :     0.003401
      g-1     :     0.029736
      g+2     :     0.013257
      g-2     :     0.021211
      g+3     :     0.006436
      g-3     :     0.025057
      g+4     :     0.029017
      g-4     :     0.066729
  3 O s       :     3.140721  s :     3.140721
      pz      :     1.101358  p :     3.892899
      px      :     1.334376
      py      :     1.457165
      dz2     :     0.028775  d :     0.286361
      dxz     :     0.004363
      dyz     :     0.064290
      dx2y2   :     0.075159
      dxy     :     0.113773
      f0      :     0.012046  f :     0.124909
      f+1     :     0.003675
      f-1     :     0.014778
      f+2     :     0.018880
      f-2     :     0.001707
      f+3     :     0.053414
      f-3     :     0.020409
      g0      :     0.002398  g :     0.034275
      g+1     :     0.000013
      g-1     :     0.003654
      g+2     :     0.005326
      g-2     :     0.001480
      g+3     :     0.000077
      g-3     :     0.002634
      g+4     :     0.009247
      g-4     :     0.009446
  4 C s       :     2.571810  s :     2.571810
      pz      :     0.579962  p :     2.337966
      px      :     0.753843
      py      :     1.004160
      dz2     :     0.133810  d :     1.359411
      dxz     :     0.120040
      dyz     :     0.310464
      dx2y2   :     0.322130
      dxy     :     0.472967
      f0      :     0.052789  f :     0.722064
      f+1     :     0.055050
      f-1     :     0.098924
      f+2     :     0.093296
      f-2     :     0.074088
      f+3     :     0.192248
      f-3     :     0.155669
      g0      :     0.011926  g :     0.206770
      g+1     :     0.003401
      g-1     :     0.029736
      g+2     :     0.013257
      g-2     :     0.021211
      g+3     :     0.006436
      g-3     :     0.025057
      g+4     :     0.029017
      g-4     :     0.066729
  5 P s       :     4.670282  s :     4.670282
      pz      :     2.892508  p :     8.082439
      px      :     2.612441
      py      :     2.577490
      dz2     :     0.148573  d :     1.094956
      dxz     :     0.257081
      dyz     :     0.100520
      dx2y2   :     0.275257
      dxy     :     0.313525
      f0      :     0.063748  f :     0.872572
      f+1     :     0.159288
      f-1     :     0.040254
      f+2     :     0.146833
      f-2     :     0.142182
      f+3     :     0.154355
      f-3     :     0.165912
      g0      :     0.028498  g :     0.328665
      g+1     :     0.029394
      g-1     :     0.010935
      g+2     :     0.042314
      g-2     :     0.022016
      g+3     :     0.040300
      g-3     :     0.064614
      g+4     :     0.030435
      g-4     :     0.060159
  6 O s       :     3.140721  s :     3.140721
      pz      :     1.101358  p :     3.892899
      px      :     1.334376
      py      :     1.457165
      dz2     :     0.028775  d :     0.286361
      dxz     :     0.004363
      dyz     :     0.064290
      dx2y2   :     0.075159
      dxy     :     0.113773
      f0      :     0.012046  f :     0.124909
      f+1     :     0.003675
      f-1     :     0.014778
      f+2     :     0.018880
      f-2     :     0.001707
      f+3     :     0.053414
      f-3     :     0.020409
      g0      :     0.002398  g :     0.034275
      g+1     :     0.000013
      g-1     :     0.003654
      g+2     :     0.005326
      g-2     :     0.001480
      g+3     :     0.000077
      g-3     :     0.002634
      g+4     :     0.009247
      g-4     :     0.009446
  7 Cls       :     5.378686  s :     5.378686
      pz      :     3.568103  p :    10.520268
      px      :     3.391334
      py      :     3.560831
      dz2     :     0.046302  d :     0.249217
      dxz     :     0.103363
      dyz     :     0.005615
      dx2y2   :     0.057570
      dxy     :     0.036367
      f0      :     0.006118  f :     0.100316
      f+1     :     0.035927
      f-1     :     0.000528
      f+2     :     0.022123
      f-2     :     0.006388
      f+3     :     0.011853
      f-3     :     0.017380
      g0      :     0.003429  g :     0.025413
      g+1     :     0.002885
      g-1     :     0.000252
      g+2     :     0.006334
      g-2     :     0.000146
      g+3     :     0.004214
      g-3     :     0.002368
      g+4     :     0.002098
      g-4     :     0.003688


                      *****************************
                      * MAYER POPULATION ANALYSIS *
                      *****************************

  NA   - Mulliken gross atomic population
  ZA   - Total nuclear charge
  QA   - Mulliken gross atomic charge
  VA   - Mayer's total valence
  BVA  - Mayer's bonded valence
  FA   - Mayer's free valence

  ATOM       NA         ZA         QA         VA         BVA        FA
  0 Cl    17.3955    17.0000    -0.3955     0.8547     0.8547     0.0000
  1 P     14.0315    15.0000     0.9685     2.9376     2.9376     0.0000
  2 C      5.8890     6.0000     0.1110     3.3627     3.3627     0.0000
  3 O      8.6840     8.0000    -0.6840     1.7163     1.7163     0.0000
  4 C      5.8890     6.0000     0.1110     3.3627     3.3627     0.0000
  5 P     14.0315    15.0000     0.9685     2.9376     2.9376     0.0000
  6 O      8.6840     8.0000    -0.6840     1.7163     1.7163     0.0000
  7 Cl    17.3955    17.0000    -0.3955     0.8547     0.8547    -0.0000

  Mayer bond orders larger than 0.100000
B(  0-Cl,  1-P ) :   0.8663 B(  1-P ,  2-C ) :   0.9331 B(  1-P ,  4-C ) :   0.9331 
B(  2-C ,  3-O ) :   1.5368 B(  2-C ,  5-P ) :   0.9331 B(  4-C ,  5-P ) :   0.9331 
B(  4-C ,  6-O ) :   1.5368 B(  5-P ,  7-Cl) :   0.8663 

-------
TIMINGS
-------

Total SCF time: 0 days 0 hours 30 min 36 sec 

Total time                  ....    1836.333 sec
Sum of individual times     ....    1811.554 sec  ( 98.7%)

Fock matrix formation       ....     398.928 sec  ( 21.7%)
Diagonalization             ....       0.464 sec  (  0.0%)
Density matrix formation    ....       0.046 sec  (  0.0%)
Population analysis         ....       0.797 sec  (  0.0%)
Initial guess               ....       0.211 sec  (  0.0%)
Orbital Transformation      ....       0.000 sec  (  0.0%)
Orbital Orthonormalization  ....       0.000 sec  (  0.0%)
DIIS solution               ....       0.098 sec  (  0.0%)
SOSCF solution              ....       2.991 sec  (  0.2%)
SCF Stability Analysis      ....    1408.019 sec  ( 76.7%)

Maximum memory used throughout the entire SCF-calculation: 268.2 MB


           ************************************************************
           *        Program running with 16 parallel MPI-processes    *
           *              working on a common directory               *
           ************************************************************

------------------------------------------------------------------------------
                                ORCA  MP2 
------------------------------------------------------------------------------

Freezing NCore=48 chemical core electrons

-------------
RI-MP2 ENERGY
-------------
Dimension of the basis                    ...  656
Memory devoted to MP2                     ... 3800 MB   
Data format for buffers                   ... DOUBLE
Compression type for matrix containers    ... UNCOMPRESSED
Overall scaling of the MP2 energy         ...   1.000e+00
Calculating two index integrals           ... done (    0.017 sec)
Cholesky decomposition of V**-1           ... done (    0.221 sec)

-----------------
RI-TRANSFORMATION (AUX index driven)
-----------------

Dimension of the orbital-basis         ... 656
Dimension of the aux-basis             ... 1448
Transformation of internal/external MOs...   24-  45 to   46- 655
Number Format for Storage              ... Double (8 Byte)
Integral mode                          ... Direct

First Phase: integral generation and transformation of MO indices
  Aux angular momentum 0               ... done (    0.056 sec)
  Aux angular momentum 1               ... done (    0.099 sec)
  Aux angular momentum 2               ... done (    0.145 sec)
  Aux angular momentum 3               ... done (    0.219 sec)
  Aux angular momentum 4               ... done (    0.158 sec)
  Aux angular momentum 5               ... done (    0.127 sec)
Closing buffer VIA ( 0.14 GB; CompressionRatio= 1.00)
  Phase 1 completed in     1.844 sec
Second Phase: sorting and transformation of aux index

IA-Transformation
Memory available                       ... 3733 MB 
Max. # MO pairs treated in a batch     ... 2    
# of internal orbitals                 ... 22
# batches for internal orbitals        ... 1
Closing buffer IAV ( 0.14 GB; CompressionRatio= 1.00)
(ia|v) transformation done in     1.025 sec

  Phase 2 completed in     1.924 sec
RI-Integral transformation completed in     3.987 sec
Opening buffers                              ... done

Starting loop over batches of integrals:

Operator 0  - window                       ... ( 24- 45)x( 46-655)
Operator 0  - Memory available             ...  3800 MB
Operator 0  - Memory needed per MO         ...   6.7 MB
Operator 0  - Number of orbitals per batch ... 2
Operator 0  - Number of batches            ... 1

OPERATOR  0   PASS   0:  MOs    24 ...   25 +   26 ...   27 +   28 ...   29 +   30 ...   31
                            +   32 ...   33 +   34 ...   35 +   36 ...   37 +   38 ...   39
                            +   40 ...   41 +   42 ...   43 +   44 ...   45
  Reading integrals       ... ok
Time spent in pair loops =     0.105 sec
Deleting buffer (Ka|jb)[aa] ...done

-----------------------------------------------
 RI-MP2 CORRELATION ENERGY:     -1.554390471 Eh
-----------------------------------------------


-------
TIMINGS
-------

Total time                :    5.925 sec
Integral trafo            :    4.000 sec ( 67.5%)
I/O of integrals          :    0.006 sec (  0.1%)
K(i,j) Operators          :    0.086 sec (  1.5%)
T(i,j) pair energies      :    0.005 sec (  0.1%)
V-calculation             :    0.017 sec (  0.3%)
V**(-1/2)                 :    0.221 sec (  3.7%)
Gamma(ia|P)               :    0.000 sec (  0.0%)
Gamma-Trafo               :    0.000 sec (  0.0%)
D(virtual)                :    0.000 sec (  0.0%)
D(internal)               :    0.000 sec (  0.0%)
W(virtual)                :    0.000 sec (  0.0%)
W(internal)               :    0.000 sec (  0.0%)
L(virtual)                :    0.000 sec (  0.0%)
L(internal)               :    0.000 sec (  0.0%)
G(D)                      :    0.000 sec (  0.0%)
G(Z)                      :    0.000 sec (  0.0%)
Z-Vector Solution         :    0.000 sec (  0.0%)
3-Index Derivative        :    0.000 sec (  0.0%)
2-Index Derivative        :    0.000 sec (  0.0%)
Separable Gradient        :    0.000 sec (  0.0%)


---------------------------------------
MP2 TOTAL ENERGY:    -1827.655858328 Eh
---------------------------------------

Maximum memory used throughout the entire MP2-calculation: 158.5 MB

-------------------------   --------------------
FINAL SINGLE POINT ENERGY     -1827.655858328110
-------------------------   --------------------


                            ***************************************
                            *     ORCA property calculations      *
                            ***************************************


  WARNING: The energy has been calculated at the MP2 level but the densities
           used in the property calculations are still SCF densities
           MP2 response densities have not been calculated 
           use %mp2 Density relaxed end
           or  %mp2 Density unrelaxed end

                                    ---------------------
                                    Active property flags
                                    ---------------------
   (+) Dipole Moment


------------------------------------------------------------------------------
                       ORCA ELECTRIC PROPERTIES CALCULATION
------------------------------------------------------------------------------

Dipole Moment Calculation                       ... on
Quadrupole Moment Calculation                   ... off
Polarizability Calculation                      ... off
GBWName                                         ... QZ_P-Cl_10_AB.gbw
Electron density                                ... QZ_P-Cl_10_AB.scfp
The origin for moment calculation is the CENTER OF MASS  = (-0.000000,  0.000000 -0.000001)

-------------
DIPOLE MOMENT
-------------
                                X             Y             Z
Electronic contribution:      0.00000      -0.00000      -0.00006
Nuclear contribution   :     -0.00000       0.00000       0.00005
                        -----------------------------------------
Total Dipole Moment    :      0.00000      -0.00000      -0.00001
                        -----------------------------------------
Magnitude (a.u.)       :      0.00001
Magnitude (Debye)      :      0.00003



--------------------
Rotational spectrum 
--------------------
 
Rotational constants in cm-1:     0.064470     0.022252     0.017748 
Rotational constants in MHz :  1932.760798   667.101422   532.086513 

 Dipole components along the rotational axes: 
x,y,z [a.u.] :     0.000002     0.000000    -0.000010 
x,y,z [Debye]:     0.000004     0.000000    -0.000026 

 

Timings for individual modules:

Sum of individual times         ...     1849.896 sec (=  30.832 min)
GTO integral calculation        ...        4.707 sec (=   0.078 min)   0.3 %
SCF iterations                  ...     1837.694 sec (=  30.628 min)  99.3 %
MP2 module                      ...        7.494 sec (=   0.125 min)   0.4 %



                             ****ORCA TERMINATED NORMALLY****
TOTAL RUN TIME: 0 days 0 hours 40 minutes 38 seconds 760 msec
