
                                 *****************
                                 * O   R   C   A *
                                 *****************

                                            #,                                       
                                            ###                                      
                                            ####                                     
                                            #####                                    
                                            ######                                   
                                           ########,                                 
                                     ,,################,,,,,                         
                               ,,#################################,,                 
                          ,,##########################################,,             
                       ,#########################################, ''#####,          
                    ,#############################################,,   '####,        
                  ,##################################################,,,,####,       
                ,###########''''           ''''###############################       
              ,#####''   ,,,,##########,,,,          '''####'''          '####       
            ,##' ,,,,###########################,,,                        '##       
           ' ,,###''''                  '''############,,,                           
         ,,##''                                '''############,,,,        ,,,,,,###''
      ,#''                                            '''#######################'''  
     '                                                          ''''####''''         
             ,#######,   #######,   ,#######,      ##                                
            ,#'     '#,  ##    ##  ,#'     '#,    #''#        ######   ,####,        
            ##       ##  ##   ,#'  ##            #'  '#       #        #'  '#        
            ##       ##  #######   ##           ,######,      #####,   #    #        
            '#,     ,#'  ##    ##  '#,     ,#' ,#      #,         ##   #,  ,#        
             '#######'   ##     ##  '#######'  #'      '#     #####' # '####'        



                  #######################################################
                  #                        -***-                        #
                  #          Department of theory and spectroscopy      #
                  #    Directorship and core code : Frank Neese         #
                  #        Max Planck Institute fuer Kohlenforschung    #
                  #                Kaiser Wilhelm Platz 1               #
                  #                 D-45470 Muelheim/Ruhr               #
                  #                      Germany                        #
                  #                                                     #
                  #                  All rights reserved                #
                  #                        -***-                        #
                  #######################################################


                         Program Version 5.0.3 -  RELEASE  -


 With contributions from (in alphabetic order):
   Daniel Aravena         : Magnetic Suceptibility
   Michael Atanasov       : Ab Initio Ligand Field Theory (pilot matlab implementation)
   Alexander A. Auer      : GIAO ZORA, VPT2 properties, NMR spectrum
   Ute Becker             : Parallelization
   Giovanni Bistoni       : ED, misc. LED, open-shell LED, HFLD
   Martin Brehm           : Molecular dynamics
   Dmytro Bykov           : SCF Hessian
   Vijay G. Chilkuri      : MRCI spin determinant printing, contributions to CSF-ICE
   Dipayan Datta          : RHF DLPNO-CCSD density
   Achintya Kumar Dutta   : EOM-CC, STEOM-CC
   Dmitry Ganyushin       : Spin-Orbit,Spin-Spin,Magnetic field MRCI
   Miquel Garcia          : C-PCM and meta-GGA Hessian, CC/C-PCM, Gaussian charge scheme
   Yang Guo               : DLPNO-NEVPT2, F12-NEVPT2, CIM, IAO-localization
   Andreas Hansen         : Spin unrestricted coupled pair/coupled cluster methods
   Benjamin Helmich-Paris : MC-RPA, TRAH-SCF, COSX integrals
   Lee Huntington         : MR-EOM, pCC
   Robert Izsak           : Overlap fitted RIJCOSX, COSX-SCS-MP3, EOM
   Marcus Kettner         : VPT2
   Christian Kollmar      : KDIIS, OOCD, Brueckner-CCSD(T), CCSD density, CASPT2, CASPT2-K
   Simone Kossmann        : Meta GGA functionals, TD-DFT gradient, OOMP2, MP2 Hessian
   Martin Krupicka        : Initial AUTO-CI
   Lucas Lang             : DCDCAS
   Marvin Lechner         : AUTO-CI (C++ implementation), FIC-MRCC
   Dagmar Lenk            : GEPOL surface, SMD
   Dimitrios Liakos       : Extrapolation schemes; Compound Job, initial MDCI parallelization
   Dimitrios Manganas     : Further ROCIS development; embedding schemes
   Dimitrios Pantazis     : SARC Basis sets
   Anastasios Papadopoulos: AUTO-CI, single reference methods and gradients
   Taras Petrenko         : DFT Hessian,TD-DFT gradient, ASA, ECA, R-Raman, ABS, FL, XAS/XES, NRVS
   Peter Pinski           : DLPNO-MP2, DLPNO-MP2 Gradient
   Christoph Reimann      : Effective Core Potentials
   Marius Retegan         : Local ZFS, SOC
   Christoph Riplinger    : Optimizer, TS searches, QM/MM, DLPNO-CCSD(T), (RO)-DLPNO pert. Triples
   Tobias Risthaus        : Range-separated hybrids, TD-DFT gradient, RPA, STAB
   Michael Roemelt        : Original ROCIS implementation
   Masaaki Saitow         : Open-shell DLPNO-CCSD energy and density
   Barbara Sandhoefer     : DKH picture change effects
   Avijit Sen             : IP-ROCIS
   Kantharuban Sivalingam : CASSCF convergence, NEVPT2, FIC-MRCI
   Bernardo de Souza      : ESD, SOC TD-DFT
   Georgi Stoychev        : AutoAux, RI-MP2 NMR, DLPNO-MP2 response
   Willem Van den Heuvel  : Paramagnetic NMR
   Boris Wezisla          : Elementary symmetry handling
   Frank Wennmohs         : Technical directorship


 We gratefully acknowledge several colleagues who have allowed us to
 interface, adapt or use parts of their codes:
   Stefan Grimme, W. Hujo, H. Kruse, P. Pracht,  : VdW corrections, initial TS optimization,
                  C. Bannwarth, S. Ehlert          DFT functionals, gCP, sTDA/sTD-DF
   Ed Valeev, F. Pavosevic, A. Kumar             : LibInt (2-el integral package), F12 methods
   Garnet Chan, S. Sharma, J. Yang, R. Olivares  : DMRG
   Ulf Ekstrom                                   : XCFun DFT Library
   Mihaly Kallay                                 : mrcc  (arbitrary order and MRCC methods)
   Jiri Pittner, Ondrej Demel                    : Mk-CCSD
   Frank Weinhold                                : gennbo (NPA and NBO analysis)
   Christopher J. Cramer and Donald G. Truhlar   : smd solvation model
   Lars Goerigk                                  : TD-DFT with DH, B97 family of functionals
   V. Asgeirsson, H. Jonsson                     : NEB implementation
   FAccTs GmbH                                   : IRC, NEB, NEB-TS, DLPNO-Multilevel, CI-OPT
                                                   MM, QMMM, 2- and 3-layer-ONIOM, Crystal-QMMM,
                                                   LR-CPCM, SF, NACMEs, symmetry and pop. for TD-DFT,
                                                   nearIR, NL-DFT gradient (VV10), updates on ESD,
                                                   ML-optimized integration grids
   S Lehtola, MJT Oliveira, MAL Marques          : LibXC Library
   Liviu Ungur et al                             : ANISO software


 Your calculation uses the libint2 library for the computation of 2-el integrals
 For citations please refer to: http://libint.valeyev.net

 Your ORCA version has been built with support for libXC version: 5.1.0
 For citations please refer to: https://tddft.org/programs/libxc/

 This ORCA versions uses:
   CBLAS   interface :  Fast vector & matrix operations
   LAPACKE interface :  Fast linear algebra routines
   SCALAPACK package :  Parallel linear algebra routines
   Shared memory     :  Shared parallel matrices
   BLAS/LAPACK       :  OpenBLAS 0.3.15  USE64BITINT DYNAMIC_ARCH NO_AFFINITY SkylakeX SINGLE_THREADED
        Core in use  :  SkylakeX
   Copyright (c) 2011-2014, The OpenBLAS Project


================================================================================

----- Orbital basis set information -----
Your calculation utilizes the basis: aug-cc-pVTZ 
    H, B-Ne : Obtained from the ccRepo (grant-hill.group.shef.ac.uk/ccrepo) Feb. 2017
              R. A. Kendall, T. H. Dunning, Jr., R. J. Harrison, J. Chem. Phys. 96, 6796 (1992)
         He : Obtained from the ccRepo (grant-hill.group.shef.ac.uk/ccrepo) Feb. 2017
              D. E. Woon, T. H. Dunning, Jr., J. Chem. Phys. 100, 2975 (1994)
  Li-Be, Na : Obtained from the ccRepo (grant-hill.group.shef.ac.uk/ccrepo) Feb. 2017
              B. P. Prascher, D. E. Woon, K. A. Peterson, T. H. Dunning, Jr., A. K. Wilson, Theor. Chem. Acc. 128, 69 (2011)
         Mg : Obtained from the Peterson Research Group Website (tyr0.chem.wsu.edu/~kipeters) Feb. 2017
              B. P. Prascher, D. E. Woon, K. A. Peterson, T. H. Dunning, Jr., A. K. Wilson, Theor. Chem. Acc. 128, 69 (2011)
      Al-Ar : Obtained from the ccRepo (grant-hill.group.shef.ac.uk/ccrepo) Feb. 2017
              D. E. Woon, T. H. Dunning, Jr., J. Chem. Phys. 98, 1358 (1993)
      Sc-Zn : Obtained from the ccRepo (grant-hill.group.shef.ac.uk/ccrepo) Feb. 2017
              N. B. Balabanov, K. A. Peterson, J. Chem. Phys. 123, 064107 (2005)
              N. B. Balabanov, K. A. Peterson, J. Chem. Phys. 125, 074110 (2006)
      Ga-Kr : Obtained from the ccRepo (grant-hill.group.shef.ac.uk/ccrepo) Feb. 2017
              A. K. Wilson, D. E. Woon, K. A. Peterson, T. H. Dunning, Jr., J. Chem. Phys. 110, 7667 (1999)
     Ag, Au : Obtained from the Peterson Research Group Website (tyr0.chem.wsu.edu/~kipeters) Feb. 2017
              K. A. Peterson, C. Puzzarini, Theor. Chem. Acc. 114, 283 (2005)

----- AuxC basis set information -----
Your calculation utilizes the auxiliary basis: aug-cc-pVTZ/C 
  H-He, B-F, Al-Ar, Ga-Kr : Obtained from the EMSL Basis Set Exchange (bse.pnl.gov) Feb. 2017
                            F. Weigend, A. Kohn, C. Hattig, J. Chem. Phys. 116, 3175 (2002)
                   Be, Mg : Obtained from the TURBOMOLE 7.0 basis set library
                            C. Haettig, Phys. Chem. Chem. Phys. 7, 59 (2005)
                       Ne : Obtained from the EMSL Basis Set Exchange (bse.pnl.gov) Feb. 2017
                            C. Haettig, Phys. Chem. Chem. Phys. 7, 59 (2005)
                            F. Weigend, A. Kohn, C. Hattig, J. Chem. Phys. 116, 3175 (2002)
                    Sc-Zn : Obtained from the EMSL Basis Set Exchange (bse.pnl.gov) Feb. 2017
                            J. G. Hill, J. A. Platts, J. Chem. Phys. 128, 044104 (2008)

================================================================================
                                        WARNINGS
                       Please study these warnings very carefully!
================================================================================


WARNING: No MP2 level density has been requested!
         To caclulate MP2 level properties use
         %mp2 Density relaxed end
         or
         %mp2 Density unrelaxed end

WARNING: Post HF methods need fully converged wavefunctions
  ===> : Setting SCFConvForced true
         You can overwrite this default with %scf ConvForced false 


INFO   : the flag for use of the SHARK integral package has been found!

================================================================================
                                       INPUT FILE
================================================================================
NAME = TZ_1-nitropropan-2-ylnitrite.inp
|  1> !ri-mp2 aug-cc-pvtz aug-cc-pvtz/c tightscf
|  2> %pal nprocs 16 end
|  3> 
|  4> * xyz 0 1
|  5> O     -1.586677    0.242823   -0.452011
|  6> O      2.127839   -0.895530    1.082740
|  7> O      2.980961    0.036614   -0.679653
|  8> O     -3.549446   -0.597000   -0.150032
|  9> N      2.051118   -0.418864   -0.038076
| 10> N     -2.519406   -0.492165    0.375228
| 11> C     -0.310700    0.372479    0.201478
| 12> C      0.684193   -0.397131   -0.672929
| 13> C      0.022761    1.846227    0.352622
| 14> H     -0.376425   -0.112909    1.175395
| 15> H      0.382088   -1.438003   -0.762724
| 16> H      0.800672    0.053603   -1.652876
| 17> H      0.997303    1.974383    0.824190
| 18> H     -0.723135    2.333423    0.978516
| 19> H      0.038585    2.342002   -0.617938
| 20> *
| 21> 
| 22>                          ****END OF INPUT****
================================================================================

                       ****************************
                       * Single Point Calculation *
                       ****************************

---------------------------------
CARTESIAN COORDINATES (ANGSTROEM)
---------------------------------
  O     -1.586677    0.242823   -0.452011
  O      2.127839   -0.895530    1.082740
  O      2.980961    0.036614   -0.679653
  O     -3.549446   -0.597000   -0.150032
  N      2.051118   -0.418864   -0.038076
  N     -2.519406   -0.492165    0.375228
  C     -0.310700    0.372479    0.201478
  C      0.684193   -0.397131   -0.672929
  C      0.022761    1.846227    0.352622
  H     -0.376425   -0.112909    1.175395
  H      0.382088   -1.438003   -0.762724
  H      0.800672    0.053603   -1.652876
  H      0.997303    1.974383    0.824190
  H     -0.723135    2.333423    0.978516
  H      0.038585    2.342002   -0.617938

----------------------------
CARTESIAN COORDINATES (A.U.)
----------------------------
  NO LB      ZA    FRAG     MASS         X           Y           Z
   0 O     8.0000    0    15.999   -2.998385    0.458869   -0.854177
   1 O     8.0000    0    15.999    4.021033   -1.692306    2.046082
   2 O     8.0000    0    15.999    5.633200    0.069190   -1.284358
   3 O     8.0000    0    15.999   -6.707481   -1.128167   -0.283519
   4 N     7.0000    0    14.007    3.876051   -0.791538   -0.071953
   5 N     7.0000    0    14.007   -4.760987   -0.930057    0.709078
   6 C     6.0000    0    12.011   -0.587138    0.703883    0.380738
   7 C     6.0000    0    12.011    1.292937   -0.750469   -1.271652
   8 C     6.0000    0    12.011    0.043012    3.488863    0.666359
   9 H     1.0000    0     1.008   -0.711340   -0.213367    2.221175
  10 H     1.0000    0     1.008    0.722042   -2.717432   -1.441339
  11 H     1.0000    0     1.008    1.513051    0.101295   -3.123483
  12 H     1.0000    0     1.008    1.884630    3.731043    1.557493
  13 H     1.0000    0     1.008   -1.366527    4.409530    1.849127
  14 H     1.0000    0     1.008    0.072915    4.425742   -1.167734

--------------------------------
INTERNAL COORDINATES (ANGSTROEM)
--------------------------------
 O      0   0   0     0.000000000000     0.00000000     0.00000000
 O      1   0   0     4.177192513982     0.00000000     0.00000000
 O      2   1   0     2.168579874035    86.22116631     0.00000000
 O      1   2   3     2.156143811329   130.68365335   154.38882233
 N      3   2   1     1.218067838859    27.23897282   345.41641343
 N      4   1   2     1.160978400499    38.78945023    27.21820710
 C      1   2   3     1.439435950637    21.48517974   282.61482795
 C      5   3   2     1.507313706739   117.71286028   180.00188413
 C      7   1   2     1.518543352941   109.10254863   166.95264001
 H      7   1   2     1.090153938239   108.18189489   287.66798269
 H      8   5   3     1.087540846789   105.83635288   117.97762425
 H      8   5   3     1.084907654598   106.80173644     0.00000000
 H      9   7   1     1.090198352927   110.69754745   181.35661394
 H      9   7   1     1.088790193044   109.94061704    61.95769376
 H      9   7   1     1.089967872555   110.85443285   301.92221753

---------------------------
INTERNAL COORDINATES (A.U.)
---------------------------
 O      0   0   0     0.000000000000     0.00000000     0.00000000
 O      1   0   0     7.893749860092     0.00000000     0.00000000
 O      2   1   0     4.098022061459    86.22116631     0.00000000
 O      1   2   3     4.074521308760   130.68365335   154.38882233
 N      3   2   1     2.301814627980    27.23897282   345.41641343
 N      4   1   2     2.193931224341    38.78945023    27.21820710
 C      1   2   3     2.720139734024    21.48517974   282.61482795
 C      5   3   2     2.848410103642   117.71286028   180.00188413
 C      7   1   2     2.869631059545   109.10254863   166.95264001
 H      7   1   2     2.060092387087   108.18189489   287.66798269
 H      8   5   3     2.055154359884   105.83635288   117.97762425
 H      8   5   3     2.050178347786   106.80173644     0.00000000
 H      9   7   1     2.060176318683   110.69754745   181.35661394
 H      9   7   1     2.057515282152   109.94061704    61.95769376
 H      9   7   1     2.059740773901   110.85443285   301.92221753

---------------------
BASIS SET INFORMATION
---------------------
There are 4 groups of distinct atoms

 Group   1 Type O   : 19s6p3d2f contracted to 5s4p3d2f pattern {88111/3111/111/11}
 Group   2 Type N   : 19s6p3d2f contracted to 5s4p3d2f pattern {88111/3111/111/11}
 Group   3 Type C   : 19s6p3d2f contracted to 5s4p3d2f pattern {88111/3111/111/11}
 Group   4 Type H   : 6s3p2d contracted to 4s3p2d pattern {3111/111/11}

Atom   0O    basis set group =>   1
Atom   1O    basis set group =>   1
Atom   2O    basis set group =>   1
Atom   3O    basis set group =>   1
Atom   4N    basis set group =>   2
Atom   5N    basis set group =>   2
Atom   6C    basis set group =>   3
Atom   7C    basis set group =>   3
Atom   8C    basis set group =>   3
Atom   9H    basis set group =>   4
Atom  10H    basis set group =>   4
Atom  11H    basis set group =>   4
Atom  12H    basis set group =>   4
Atom  13H    basis set group =>   4
Atom  14H    basis set group =>   4
---------------------------------
AUXILIARY/C BASIS SET INFORMATION
---------------------------------
There are 4 groups of distinct atoms

 Group   1 Type O   : 9s7p6d4f2g contracted to 9s7p6d4f2g pattern {111111111/1111111/111111/1111/11}
 Group   2 Type N   : 9s7p6d4f2g contracted to 9s7p6d4f2g pattern {111111111/1111111/111111/1111/11}
 Group   3 Type C   : 9s7p6d4f2g contracted to 9s7p6d4f2g pattern {111111111/1111111/111111/1111/11}
 Group   4 Type H   : 5s4p3d2f contracted to 5s4p3d2f pattern {11111/1111/111/11}

Atom   0O    basis set group =>   1
Atom   1O    basis set group =>   1
Atom   2O    basis set group =>   1
Atom   3O    basis set group =>   1
Atom   4N    basis set group =>   2
Atom   5N    basis set group =>   2
Atom   6C    basis set group =>   3
Atom   7C    basis set group =>   3
Atom   8C    basis set group =>   3
Atom   9H    basis set group =>   4
Atom  10H    basis set group =>   4
Atom  11H    basis set group =>   4
Atom  12H    basis set group =>   4
Atom  13H    basis set group =>   4
Atom  14H    basis set group =>   4


           ************************************************************
           *        Program running with 16 parallel MPI-processes    *
           *              working on a common directory               *
           ************************************************************
------------------------------------------------------------------------------
                           ORCA GTO INTEGRAL CALCULATION
------------------------------------------------------------------------------
------------------------------------------------------------------------------
                   ___                                                        
                  /   \      - P O W E R E D   B Y -                         
                 /     \                                                     
                 |  |  |   _    _      __       _____    __    __             
                 |  |  |  | |  | |    /  \     |  _  \  |  |  /  |          
                  \  \/   | |  | |   /    \    | | | |  |  | /  /          
                 / \  \   | |__| |  /  /\  \   | |_| |  |  |/  /          
                |  |  |   |  __  | /  /__\  \  |    /   |      \           
                |  |  |   | |  | | |   __   |  |    \   |  |\   \          
                \     /   | |  | | |  |  |  |  | |\  \  |  | \   \       
                 \___/    |_|  |_| |__|  |__|  |_| \__\ |__|  \__/        
                                                                              
                      - O R C A' S   B I G   F R I E N D -                    
                                      &                                       
                       - I N T E G R A L  F E E D E R -                       
                                                                              
 v1 FN, 2020, v2 2021                                                         
------------------------------------------------------------------------------


Reading SHARK input file TZ_1-nitropropan-2-ylnitrite.SHARKINP.tmp ... ok
----------------------
SHARK INTEGRAL PACKAGE
----------------------

Number of atoms                             ...     15
Number of basis functions                   ...    606
Number of shells                            ...    234
Maximum angular momentum                    ...      3
Integral batch strategy                     ... SHARK/LIBINT Hybrid
RI-J (if used) integral strategy            ... SPLIT-RIJ (Revised 2003 algorithm where possible)
Printlevel                                  ...      1
Contraction scheme used                     ... PARTIAL GENERAL contraction
Coulomb Range Separation                    ... NOT USED
Exchange Range Separation                   ... NOT USED
Finite Nucleus Model                        ... NOT USED
Auxiliary Coulomb fitting basis             ... NOT available
Auxiliary J/K fitting basis                 ... NOT available
Auxiliary Correlation fitting basis         ... AVAILABLE
   # of basis functions in Aux-C            ...   1230
   # of shells in Aux-C                     ...    336
   Maximum angular momentum in Aux-C        ...      4
Auxiliary 'external' fitting basis          ... NOT available
Integral threshold                          ...     2.500000e-11
Primitive cut-off                           ...     2.500000e-12
Primitive pair pre-selection threshold      ...     2.500000e-12

Calculating pre-screening integrals         ... done (  0.0 sec) Dimension = 234
Calculating pre-screening integrals (ORCA)  ... done (  0.1 sec) Dimension = 180
Organizing shell pair data                  ... done (  0.3 sec)
Shell pair information
Total number of shell pairs                 ...     27495
Shell pairs after pre-screening             ...     22477
Total number of primitive shell pairs       ...     35025
Primitive shell pairs kept                  ...     26880
          la=0 lb=0:   5056 shell pairs
          la=1 lb=0:   5708 shell pairs
          la=1 lb=1:   1415 shell pairs
          la=2 lb=0:   4023 shell pairs
          la=2 lb=1:   2003 shell pairs
          la=2 lb=2:    739 shell pairs
          la=3 lb=0:   1812 shell pairs
          la=3 lb=1:    912 shell pairs
          la=3 lb=2:    653 shell pairs
          la=3 lb=3:    156 shell pairs

Calculating one electron integrals          ... done (  0.0 sec)
Calculating RI/C V-Matrix + Cholesky decomp.... done (  0.1 sec)
Calculating Nuclear repulsion               ... done (  0.0 sec) ENN=    460.956433029264 Eh

SHARK setup successfully completed in  12.6 seconds

Maximum memory used throughout the entire GTOINT-calculation: 34.7 MB


           ************************************************************
           *        Program running with 16 parallel MPI-processes    *
           *              working on a common directory               *
           ************************************************************
-------------------------------------------------------------------------------
                                 ORCA SCF
-------------------------------------------------------------------------------

------------
SCF SETTINGS
------------
Hamiltonian:
 Ab initio Hamiltonian  Method          .... Hartree-Fock(GTOs)


General Settings:
 Integral files         IntName         .... TZ_1-nitropropan-2-ylnitrite
 Hartree-Fock type      HFTyp           .... RHF
 Total Charge           Charge          ....    0
 Multiplicity           Mult            ....    1
 Number of Electrons    NEL             ....   70
 Basis Dimension        Dim             ....  552
 Nuclear Repulsion      ENuc            ....    460.9564330293 Eh

Convergence Acceleration:
 DIIS                   CNVDIIS         .... on
   Start iteration      DIISMaxIt       ....    12
   Startup error        DIISStart       ....  0.200000
   # of expansion vecs  DIISMaxEq       ....     5
   Bias factor          DIISBfac        ....   1.050
   Max. coefficient     DIISMaxC        ....  10.000
 Trust-Rad. Augm. Hess. CNVTRAH         .... auto
   Auto Start mean grad. ratio tolernc. ....  1.125000
   Auto Start start iteration           ....    20
   Auto Start num. interpolation iter.  ....    10
   Max. Number of Micro iterations      ....    16
   Max. Number of Macro iterations      .... Maxiter - #DIIS iter
   Number of Davidson start vectors     ....     2
   Converg. threshold I  (grad. norm)   ....   1.000e-05
   Converg. threshold II (energy diff.) ....   1.000e-08
   Grad. Scal. Fac. for Micro threshold ....   0.100
   Minimum threshold for Micro iter.    ....   0.010
   NR start threshold (gradient norm)   ....   0.001
   Initial trust radius                 ....   0.400
   Minimum AH scaling param. (alpha)    ....   1.000
   Maximum AH scaling param. (alpha)    .... 1000.000
   Orbital update algorithm             .... Taylor
   White noise on init. David. guess    .... on
   Maximum white noise                  ....   0.010
   Quad. conv. algorithm                .... NR
 SOSCF                  CNVSOSCF        .... on
   Start iteration      SOSCFMaxIt      ....   150
   Startup grad/error   SOSCFStart      ....  0.003300
 Level Shifting         CNVShift        .... on
   Level shift para.    LevelShift      ....    0.2500
   Turn off err/grad.   ShiftErr        ....    0.0010
 Zerner damping         CNVZerner       .... off
 Static damping         CNVDamp         .... on
   Fraction old density DampFac         ....    0.7000
   Max. Damping (<1)    DampMax         ....    0.9800
   Min. Damping (>=0)   DampMin         ....    0.0000
   Turn off err/grad.   DampErr         ....    0.1000
 Fernandez-Rico         CNVRico         .... off

SCF Procedure:
 Maximum # iterations   MaxIter         ....   125
 SCF integral mode      SCFMode         .... Direct
   Integral package                     .... SHARK and LIBINT hybrid scheme
 Reset frequency        DirectResetFreq ....    20
 Integral Threshold     Thresh          ....  2.500e-11 Eh
 Primitive CutOff       TCut            ....  2.500e-12 Eh

Convergence Tolerance:
 Convergence Check Mode ConvCheckMode   .... Total+1el-Energy
 Convergence forced     ConvForced      .... 1
 Energy Change          TolE            ....  1.000e-08 Eh
 1-El. energy change                    ....  1.000e-05 Eh
 Orbital Gradient       TolG            ....  1.000e-05
 Orbital Rotation angle TolX            ....  1.000e-05
 DIIS Error             TolErr          ....  5.000e-07


Diagonalization of the overlap matrix:
Smallest eigenvalue                        ... 5.067e-06
Time for diagonalization                   ...    0.042 sec
Threshold for overlap eigenvalues          ... 1.000e-08
Number of eigenvalues below threshold      ... 0
Time for construction of square roots      ...    0.028 sec
Total time needed                          ...    0.072 sec

Time for model grid setup =    0.081 sec

------------------------------
INITIAL GUESS: MODEL POTENTIAL
------------------------------
Loading Hartree-Fock densities                     ... done
Calculating cut-offs                               ... done
Initializing the effective Hamiltonian             ... done
Setting up the integral package (SHARK)            ... done
Starting the Coulomb interaction                   ... done (   0.1 sec)
Reading the grid                                   ... done
Mapping shells                                     ... done
Starting the XC term evaluation                    ... done (   0.1 sec)
Transforming the Hamiltonian                       ... done (   0.0 sec)
Diagonalizing the Hamiltonian                      ... done (   0.0 sec)
Back transforming the eigenvectors                 ... done (   0.0 sec)
Now organizing SCF variables                       ... done
                      ------------------
                      INITIAL GUESS DONE (   0.3 sec)
                      ------------------
--------------
SCF ITERATIONS
--------------
ITER       Energy         Delta-E        Max-DP      RMS-DP      [F,P]     Damp
               ***  Starting incremental Fock matrix formation  ***
  0   -525.0486386443   0.000000000000 0.04966169  0.00062585  0.2398283 0.7000
  1   -525.1740571928  -0.125418548407 0.03843806  0.00049036  0.1590150 0.7000
                               ***Turning on DIIS***
  2   -525.2479413482  -0.073884155443 0.02865223  0.00035466  0.1098775 0.7000
  3   -525.7682188560  -0.520277507801 0.07561129  0.00092517  0.0811958 0.0000
  4   -525.4017391020   0.366479754022 0.01361995  0.00014471  0.0083933 0.0000
  5   -525.4046123041  -0.002873202088 0.00489755  0.00006440  0.0060158 0.0000
  6   -525.3996251092   0.004987194826 0.00199398  0.00003885  0.0038012 0.0000
                      *** Initiating the SOSCF procedure ***
                           *** Shutting down DIIS ***
                      *** Re-Reading the Fockian *** 
                      *** Removing any level shift *** 
ITER      Energy       Delta-E        Grad      Rot      Max-DP    RMS-DP
  7   -525.41096190  -0.0113367883  0.002184  0.002184  0.001294  0.000022
               *** Restarting incremental Fock matrix formation ***
  8   -525.41201035  -0.0010484481  0.000933  0.001681  0.000783  0.000012
  9   -525.41203229  -0.0000219490  0.000454  0.002430  0.001162  0.000019
 10   -525.41204443  -0.0000121341  0.000279  0.000279  0.000405  0.000004
 11   -525.41204565  -0.0000012238  0.000084  0.000177  0.000098  0.000001
 12   -525.41204588  -0.0000002304  0.000014  0.000022  0.000037  0.000000
 13   -525.41204589  -0.0000000054  0.000012  0.000027  0.000026  0.000000
 14   -525.41204590  -0.0000000117  0.000004  0.000004  0.000006  0.000000
                  ***Gradient check signals convergence***
              ***Rediagonalizing the Fockian in SOSCF/NRSCF***

               *****************************************************
               *                     SUCCESS                       *
               *           SCF CONVERGED AFTER  15 CYCLES          *
               *****************************************************


----------------
TOTAL SCF ENERGY
----------------

Total Energy       :         -525.41204588 Eh          -14297.18862 eV

Components:
Nuclear Repulsion  :          460.95643303 Eh           12543.26223 eV
Electronic Energy  :         -986.36847891 Eh          -26840.45085 eV
One Electron Energy:        -1633.59873510 Eh          -44452.48150 eV
Two Electron Energy:          647.23025619 Eh           17612.03065 eV

Virial components:
Potential Energy   :        -1049.82087837 Eh          -28567.07842 eV
Kinetic Energy     :          524.40883249 Eh           14269.88980 eV
Virial Ratio       :            2.00191304


---------------
SCF CONVERGENCE
---------------

  Last Energy change         ...    1.7692e-08  Tolerance :   1.0000e-08
  Last MAX-Density change    ...    1.9514e-05  Tolerance :   1.0000e-07
  Last RMS-Density change    ...    1.8893e-07  Tolerance :   5.0000e-09
  Last Orbital Gradient      ...    1.0788e-06  Tolerance :   1.0000e-05
  Last Orbital Rotation      ...    1.3162e-06  Tolerance :   1.0000e-05

             **** THE GBW FILE WAS UPDATED (TZ_1-nitropropan-2-ylnitrite.gbw) ****
             **** DENSITY TZ_1-nitropropan-2-ylnitrite.scfp WAS UPDATED ****
             **** ENERGY FILE WAS UPDATED (TZ_1-nitropropan-2-ylnitrite.en.tmp) ****
             **** THE GBW FILE WAS UPDATED (TZ_1-nitropropan-2-ylnitrite.gbw) ****
             **** DENSITY TZ_1-nitropropan-2-ylnitrite.scfp WAS UPDATED ****
----------------
ORBITAL ENERGIES
----------------

  NO   OCC          E(Eh)            E(eV) 
   0   2.0000     -20.681699      -562.7776 
   1   2.0000     -20.641671      -561.6884 
   2   2.0000     -20.619344      -561.0809 
   3   2.0000     -20.614982      -560.9622 
   4   2.0000     -15.859984      -431.5721 
   5   2.0000     -15.809261      -430.1919 
   6   2.0000     -11.334997      -308.4409 
   7   2.0000     -11.321488      -308.0734 
   8   2.0000     -11.247747      -306.0668 
   9   2.0000      -1.625990       -44.2454 
  10   2.0000      -1.620251       -44.0893 
  11   2.0000      -1.418423       -38.5973 
  12   2.0000      -1.415110       -38.5071 
  13   2.0000      -1.140176       -31.0258 
  14   2.0000      -1.040587       -28.3158 
  15   2.0000      -0.959175       -26.1005 
  16   2.0000      -0.903224       -24.5780 
  17   2.0000      -0.843710       -22.9585 
  18   2.0000      -0.784332       -21.3428 
  19   2.0000      -0.760379       -20.6910 
  20   2.0000      -0.754268       -20.5247 
  21   2.0000      -0.745024       -20.2731 
  22   2.0000      -0.722670       -19.6648 
  23   2.0000      -0.700848       -19.0710 
  24   2.0000      -0.654542       -17.8110 
  25   2.0000      -0.630461       -17.1557 
  26   2.0000      -0.609110       -16.5747 
  27   2.0000      -0.584827       -15.9140 
  28   2.0000      -0.556707       -15.1488 
  29   2.0000      -0.535899       -14.5825 
  30   2.0000      -0.510455       -13.8902 
  31   2.0000      -0.506141       -13.7728 
  32   2.0000      -0.485781       -13.2188 
  33   2.0000      -0.467000       -12.7077 
  34   2.0000      -0.462869       -12.5953 
  35   0.0000       0.029058         0.7907 
  36   0.0000       0.031676         0.8620 
  37   0.0000       0.037806         1.0288 
  38   0.0000       0.051780         1.4090 
  39   0.0000       0.053960         1.4683 
  40   0.0000       0.058341         1.5875 
  41   0.0000       0.070082         1.9070 
  42   0.0000       0.078421         2.1340 
  43   0.0000       0.084010         2.2860 
  44   0.0000       0.093892         2.5549 
  45   0.0000       0.101617         2.7651 
  46   0.0000       0.109763         2.9868 
  47   0.0000       0.115150         3.1334 
  48   0.0000       0.121125         3.2960 
  49   0.0000       0.128116         3.4862 
  50   0.0000       0.130388         3.5480 
  51   0.0000       0.136252         3.7076 
  52   0.0000       0.137029         3.7287 
  53   0.0000       0.143381         3.9016 
  54   0.0000       0.146129         3.9764 
  55   0.0000       0.147450         4.0123 
  56   0.0000       0.161801         4.4028 
  57   0.0000       0.176903         4.8138 
  58   0.0000       0.182673         4.9708 
  59   0.0000       0.185703         5.0532 
  60   0.0000       0.201436         5.4814 
  61   0.0000       0.210459         5.7269 
  62   0.0000       0.213378         5.8063 
  63   0.0000       0.219835         5.9820 
  64   0.0000       0.226232         6.1561 
  65   0.0000       0.230874         6.2824 
  66   0.0000       0.233883         6.3643 
  67   0.0000       0.240062         6.5324 
  68   0.0000       0.251063         6.8318 
  69   0.0000       0.257528         7.0077 
  70   0.0000       0.261002         7.1022 
  71   0.0000       0.263325         7.1654 
  72   0.0000       0.278380         7.5751 
  73   0.0000       0.281883         7.6704 
  74   0.0000       0.285135         7.7589 
  75   0.0000       0.288023         7.8375 
  76   0.0000       0.293848         7.9960 
  77   0.0000       0.298456         8.1214 
  78   0.0000       0.307035         8.3548 
  79   0.0000       0.314414         8.5556 
  80   0.0000       0.320591         8.7237 
  81   0.0000       0.324097         8.8191 
  82   0.0000       0.336528         9.1574 
  83   0.0000       0.338164         9.2019 
  84   0.0000       0.346817         9.4374 
  85   0.0000       0.350474         9.5369 
  86   0.0000       0.361888         9.8475 
  87   0.0000       0.368349        10.0233 
  88   0.0000       0.372340        10.1319 
  89   0.0000       0.380176        10.3451 
  90   0.0000       0.388228        10.5642 
  91   0.0000       0.392249        10.6736 
  92   0.0000       0.403371        10.9763 
  93   0.0000       0.407828        11.0976 
  94   0.0000       0.410357        11.1664 
  95   0.0000       0.420191        11.4340 
  96   0.0000       0.422857        11.5065 
  97   0.0000       0.427391        11.6299 
  98   0.0000       0.433968        11.8089 
  99   0.0000       0.447332        12.1725 
 100   0.0000       0.449589        12.2339 
 101   0.0000       0.462938        12.5972 
 102   0.0000       0.466756        12.7011 
 103   0.0000       0.472097        12.8464 
 104   0.0000       0.479266        13.0415 
 105   0.0000       0.484671        13.1886 
 106   0.0000       0.500030        13.6065 
 107   0.0000       0.512190        13.9374 
 108   0.0000       0.515529        14.0283 
 109   0.0000       0.522229        14.2106 
 110   0.0000       0.525842        14.3089 
 111   0.0000       0.527566        14.3558 
 112   0.0000       0.540643        14.7116 
 113   0.0000       0.553019        15.0484 
 114   0.0000       0.559158        15.2155 
 115   0.0000       0.566347        15.4111 
 116   0.0000       0.573020        15.5927 
 117   0.0000       0.577943        15.7266 
 118   0.0000       0.591933        16.1073 
 119   0.0000       0.596772        16.2390 
 120   0.0000       0.602200        16.3867 
 121   0.0000       0.605881        16.4869 
 122   0.0000       0.620946        16.8968 
 123   0.0000       0.628157        17.0930 
 124   0.0000       0.638976        17.3874 
 125   0.0000       0.642957        17.4957 
 126   0.0000       0.651247        17.7213 
 127   0.0000       0.656541        17.8654 
 128   0.0000       0.661375        17.9969 
 129   0.0000       0.687034        18.6952 
 130   0.0000       0.690834        18.7986 
 131   0.0000       0.696736        18.9591 
 132   0.0000       0.708590        19.2817 
 133   0.0000       0.723246        19.6805 
 134   0.0000       0.737023        20.0554 
 135   0.0000       0.751100        20.4385 
 136   0.0000       0.763784        20.7836 
 137   0.0000       0.770170        20.9574 
 138   0.0000       0.781852        21.2753 
 139   0.0000       0.785433        21.3727 
 140   0.0000       0.790365        21.5069 
 141   0.0000       0.798090        21.7171 
 142   0.0000       0.805084        21.9075 
 143   0.0000       0.820301        22.3215 
 144   0.0000       0.823383        22.4054 
 145   0.0000       0.825065        22.4512 
 146   0.0000       0.828135        22.5347 
 147   0.0000       0.835145        22.7255 
 148   0.0000       0.841967        22.9111 
 149   0.0000       0.846238        23.0273 
 150   0.0000       0.854757        23.2591 
 151   0.0000       0.856786        23.3143 
 152   0.0000       0.874757        23.8033 
 153   0.0000       0.882337        24.0096 
 154   0.0000       0.891844        24.2683 
 155   0.0000       0.895519        24.3683 
 156   0.0000       0.907922        24.7058 
 157   0.0000       0.913656        24.8618 
 158   0.0000       0.924330        25.1523 
 159   0.0000       0.926478        25.2108 
 160   0.0000       0.932641        25.3784 
 161   0.0000       0.950652        25.8686 
 162   0.0000       0.951364        25.8879 
 163   0.0000       0.959752        26.1162 
 164   0.0000       0.966284        26.2939 
 165   0.0000       0.982675        26.7399 
 166   0.0000       0.993510        27.0348 
 167   0.0000       0.995966        27.1016 
 168   0.0000       1.005489        27.3607 
 169   0.0000       1.010040        27.4846 
 170   0.0000       1.015618        27.6364 
 171   0.0000       1.023050        27.8386 
 172   0.0000       1.032730        28.1020 
 173   0.0000       1.058898        28.8141 
 174   0.0000       1.065768        29.0010 
 175   0.0000       1.069012        29.0893 
 176   0.0000       1.073213        29.2036 
 177   0.0000       1.082312        29.4512 
 178   0.0000       1.089794        29.6548 
 179   0.0000       1.100048        29.9338 
 180   0.0000       1.101643        29.9772 
 181   0.0000       1.114232        30.3198 
 182   0.0000       1.117113        30.3982 
 183   0.0000       1.121236        30.5104 
 184   0.0000       1.138971        30.9930 
 185   0.0000       1.148845        31.2617 
 186   0.0000       1.153257        31.3817 
 187   0.0000       1.166241        31.7350 
 188   0.0000       1.183904        32.2157 
 189   0.0000       1.195895        32.5420 
 190   0.0000       1.208076        32.8734 
 191   0.0000       1.215364        33.0717 
 192   0.0000       1.218101        33.1462 
 193   0.0000       1.233065        33.5534 
 194   0.0000       1.243686        33.8424 
 195   0.0000       1.257840        34.2276 
 196   0.0000       1.262098        34.3434 
 197   0.0000       1.269961        34.5574 
 198   0.0000       1.288354        35.0579 
 199   0.0000       1.302077        35.4313 
 200   0.0000       1.304608        35.5002 
 201   0.0000       1.318429        35.8763 
 202   0.0000       1.330761        36.2118 
 203   0.0000       1.335968        36.3535 
 204   0.0000       1.347366        36.6637 
 205   0.0000       1.370490        37.2929 
 206   0.0000       1.370634        37.2969 
 207   0.0000       1.388446        37.7815 
 208   0.0000       1.393251        37.9123 
 209   0.0000       1.403576        38.1933 
 210   0.0000       1.423085        38.7241 
 211   0.0000       1.433759        39.0146 
 212   0.0000       1.446452        39.3600 
 213   0.0000       1.451818        39.5060 
 214   0.0000       1.463298        39.8184 
 215   0.0000       1.469835        39.9962 
 216   0.0000       1.485439        40.4209 
 217   0.0000       1.486249        40.4429 
 218   0.0000       1.510888        41.1134 
 219   0.0000       1.517328        41.2886 
 220   0.0000       1.521751        41.4090 
 221   0.0000       1.539228        41.8845 
 222   0.0000       1.546140        42.0726 
 223   0.0000       1.559756        42.4431 
 224   0.0000       1.568445        42.6795 
 225   0.0000       1.576840        42.9080 
 226   0.0000       1.587293        43.1924 
 227   0.0000       1.603707        43.6391 
 228   0.0000       1.612466        43.8774 
 229   0.0000       1.622518        44.1510 
 230   0.0000       1.634329        44.4723 
 231   0.0000       1.648078        44.8465 
 232   0.0000       1.656746        45.0824 
 233   0.0000       1.667247        45.3681 
 234   0.0000       1.674850        45.5750 
 235   0.0000       1.678939        45.6863 
 236   0.0000       1.688498        45.9464 
 237   0.0000       1.698049        46.2063 
 238   0.0000       1.701917        46.3115 
 239   0.0000       1.712571        46.6014 
 240   0.0000       1.721817        46.8530 
 241   0.0000       1.724982        46.9391 
 242   0.0000       1.731659        47.1208 
 243   0.0000       1.736942        47.2646 
 244   0.0000       1.764536        48.0155 
 245   0.0000       1.779760        48.4297 
 246   0.0000       1.786999        48.6267 
 247   0.0000       1.814951        49.3873 
 248   0.0000       1.820322        49.5335 
 249   0.0000       1.836287        49.9679 
 250   0.0000       1.838564        50.0299 
 251   0.0000       1.860590        50.6292 
 252   0.0000       1.869097        50.8607 
 253   0.0000       1.874148        50.9981 
 254   0.0000       1.882939        51.2374 
 255   0.0000       1.884027        51.2670 
 256   0.0000       1.924659        52.3726 
 257   0.0000       1.931797        52.5669 
 258   0.0000       1.938141        52.7395 
 259   0.0000       1.946225        52.9595 
 260   0.0000       1.954248        53.1778 
 261   0.0000       1.961728        53.3813 
 262   0.0000       1.975706        53.7617 
 263   0.0000       1.994193        54.2647 
 264   0.0000       2.004756        54.5522 
 265   0.0000       2.020601        54.9833 
 266   0.0000       2.022813        55.0435 
 267   0.0000       2.049906        55.7808 
 268   0.0000       2.069736        56.3204 
 269   0.0000       2.070281        56.3352 
 270   0.0000       2.094471        56.9935 
 271   0.0000       2.111490        57.4566 
 272   0.0000       2.118651        57.6514 
 273   0.0000       2.124910        57.8217 
 274   0.0000       2.133016        58.0423 
 275   0.0000       2.150963        58.5307 
 276   0.0000       2.161568        58.8193 
 277   0.0000       2.169534        59.0360 
 278   0.0000       2.185698        59.4759 
 279   0.0000       2.197971        59.8098 
 280   0.0000       2.201858        59.9156 
 281   0.0000       2.219403        60.3930 
 282   0.0000       2.225249        60.5521 
 283   0.0000       2.249309        61.2068 
 284   0.0000       2.255580        61.3775 
 285   0.0000       2.256517        61.4030 
 286   0.0000       2.276560        61.9483 
 287   0.0000       2.296123        62.4807 
 288   0.0000       2.319276        63.1107 
 289   0.0000       2.329766        63.3962 
 290   0.0000       2.336093        63.5683 
 291   0.0000       2.342309        63.7375 
 292   0.0000       2.351142        63.9778 
 293   0.0000       2.360075        64.2209 
 294   0.0000       2.386391        64.9370 
 295   0.0000       2.397627        65.2427 
 296   0.0000       2.409926        65.5774 
 297   0.0000       2.419989        65.8512 
 298   0.0000       2.424979        65.9870 
 299   0.0000       2.450843        66.6908 
 300   0.0000       2.463751        67.0421 
 301   0.0000       2.479522        67.4712 
 302   0.0000       2.485953        67.6462 
 303   0.0000       2.510659        68.3185 
 304   0.0000       2.531136        68.8757 
 305   0.0000       2.540650        69.1346 
 306   0.0000       2.550652        69.4068 
 307   0.0000       2.568440        69.8908 
 308   0.0000       2.584471        70.3270 
 309   0.0000       2.598403        70.7061 
 310   0.0000       2.618355        71.2491 
 311   0.0000       2.621699        71.3400 
 312   0.0000       2.640424        71.8496 
 313   0.0000       2.658135        72.3315 
 314   0.0000       2.675754        72.8110 
 315   0.0000       2.677627        72.8619 
 316   0.0000       2.699244        73.4502 
 317   0.0000       2.704647        73.5972 
 318   0.0000       2.718781        73.9818 
 319   0.0000       2.731814        74.3364 
 320   0.0000       2.746931        74.7478 
 321   0.0000       2.763566        75.2005 
 322   0.0000       2.790463        75.9324 
 323   0.0000       2.794118        76.0318 
 324   0.0000       2.810995        76.4911 
 325   0.0000       2.844699        77.4082 
 326   0.0000       2.868094        78.0448 
 327   0.0000       2.883947        78.4762 
 328   0.0000       2.890641        78.6584 
 329   0.0000       2.899642        78.9033 
 330   0.0000       2.929554        79.7172 
 331   0.0000       2.955673        80.4279 
 332   0.0000       2.980301        81.0981 
 333   0.0000       2.993500        81.4573 
 334   0.0000       3.038216        82.6741 
 335   0.0000       3.049675        82.9859 
 336   0.0000       3.075104        83.6778 
 337   0.0000       3.109147        84.6042 
 338   0.0000       3.123289        84.9890 
 339   0.0000       3.154664        85.8428 
 340   0.0000       3.180773        86.5532 
 341   0.0000       3.199316        87.0578 
 342   0.0000       3.216822        87.5342 
 343   0.0000       3.223270        87.7096 
 344   0.0000       3.230493        87.9062 
 345   0.0000       3.264513        88.8319 
 346   0.0000       3.317065        90.2619 
 347   0.0000       3.330743        90.6341 
 348   0.0000       3.347428        91.0882 
 349   0.0000       3.363643        91.5294 
 350   0.0000       3.411141        92.8219 
 351   0.0000       3.414165        92.9042 
 352   0.0000       3.461370        94.1887 
 353   0.0000       3.471084        94.4530 
 354   0.0000       3.496527        95.1453 
 355   0.0000       3.516748        95.6956 
 356   0.0000       3.532035        96.1116 
 357   0.0000       3.549740        96.5933 
 358   0.0000       3.601237        97.9946 
 359   0.0000       3.614968        98.3683 
 360   0.0000       3.623765        98.6077 
 361   0.0000       3.673241        99.9540 
 362   0.0000       3.678693       100.1023 
 363   0.0000       3.713424       101.0474 
 364   0.0000       3.718778       101.1931 
 365   0.0000       3.732813       101.5750 
 366   0.0000       3.765665       102.4689 
 367   0.0000       3.776937       102.7757 
 368   0.0000       3.806417       103.5779 
 369   0.0000       3.816202       103.8441 
 370   0.0000       3.821260       103.9818 
 371   0.0000       3.852448       104.8304 
 372   0.0000       3.867278       105.2340 
 373   0.0000       3.881215       105.6132 
 374   0.0000       3.895518       106.0024 
 375   0.0000       3.911670       106.4419 
 376   0.0000       3.945252       107.3558 
 377   0.0000       3.975841       108.1881 
 378   0.0000       3.985119       108.4406 
 379   0.0000       4.003815       108.9494 
 380   0.0000       4.019960       109.3887 
 381   0.0000       4.040283       109.9417 
 382   0.0000       4.042833       110.0111 
 383   0.0000       4.073678       110.8504 
 384   0.0000       4.083828       111.1266 
 385   0.0000       4.093262       111.3833 
 386   0.0000       4.141538       112.6970 
 387   0.0000       4.145929       112.8165 
 388   0.0000       4.173242       113.5597 
 389   0.0000       4.188991       113.9882 
 390   0.0000       4.209437       114.5446 
 391   0.0000       4.225976       114.9946 
 392   0.0000       4.227731       115.0424 
 393   0.0000       4.252310       115.7113 
 394   0.0000       4.261417       115.9590 
 395   0.0000       4.268629       116.1553 
 396   0.0000       4.296927       116.9253 
 397   0.0000       4.305352       117.1546 
 398   0.0000       4.336609       118.0051 
 399   0.0000       4.355752       118.5260 
 400   0.0000       4.375595       119.0660 
 401   0.0000       4.436791       120.7312 
 402   0.0000       4.448892       121.0605 
 403   0.0000       4.458934       121.3338 
 404   0.0000       4.469563       121.6230 
 405   0.0000       4.486812       122.0924 
 406   0.0000       4.510983       122.7501 
 407   0.0000       4.523817       123.0993 
 408   0.0000       4.560381       124.0943 
 409   0.0000       4.603219       125.2600 
 410   0.0000       4.634089       126.1000 
 411   0.0000       4.662203       126.8650 
 412   0.0000       4.666812       126.9904 
 413   0.0000       4.710103       128.1684 
 414   0.0000       4.715202       128.3072 
 415   0.0000       4.785052       130.2079 
 416   0.0000       4.785983       130.2332 
 417   0.0000       4.821600       131.2024 
 418   0.0000       4.824805       131.2896 
 419   0.0000       4.847376       131.9038 
 420   0.0000       4.864545       132.3710 
 421   0.0000       4.882335       132.8551 
 422   0.0000       4.893565       133.1607 
 423   0.0000       4.906330       133.5080 
 424   0.0000       4.925636       134.0334 
 425   0.0000       4.953701       134.7971 
 426   0.0000       4.963438       135.0620 
 427   0.0000       4.988187       135.7355 
 428   0.0000       5.006182       136.2251 
 429   0.0000       5.016515       136.5063 
 430   0.0000       5.041049       137.1739 
 431   0.0000       5.046518       137.3227 
 432   0.0000       5.064548       137.8134 
 433   0.0000       5.080654       138.2516 
 434   0.0000       5.092886       138.5845 
 435   0.0000       5.123611       139.4206 
 436   0.0000       5.143770       139.9691 
 437   0.0000       5.156898       140.3263 
 438   0.0000       5.168669       140.6466 
 439   0.0000       5.182620       141.0263 
 440   0.0000       5.206330       141.6714 
 441   0.0000       5.228432       142.2729 
 442   0.0000       5.233711       142.4165 
 443   0.0000       5.254488       142.9819 
 444   0.0000       5.286989       143.8663 
 445   0.0000       5.309233       144.4716 
 446   0.0000       5.313570       144.5896 
 447   0.0000       5.328560       144.9975 
 448   0.0000       5.367112       146.0465 
 449   0.0000       5.376948       146.3142 
 450   0.0000       5.386983       146.5873 
 451   0.0000       5.403773       147.0441 
 452   0.0000       5.412777       147.2892 
 453   0.0000       5.440672       148.0482 
 454   0.0000       5.452659       148.3744 
 455   0.0000       5.458199       148.5251 
 456   0.0000       5.481294       149.1536 
 457   0.0000       5.495051       149.5279 
 458   0.0000       5.532244       150.5400 
 459   0.0000       5.545882       150.9111 
 460   0.0000       5.555375       151.1694 
 461   0.0000       5.578097       151.7877 
 462   0.0000       5.604334       152.5017 
 463   0.0000       5.623474       153.0225 
 464   0.0000       5.647382       153.6731 
 465   0.0000       5.676931       154.4772 
 466   0.0000       5.698243       155.0571 
 467   0.0000       5.713397       155.4694 
 468   0.0000       5.757187       156.6610 
 469   0.0000       5.782124       157.3396 
 470   0.0000       5.801100       157.8560 
 471   0.0000       5.818748       158.3362 
 472   0.0000       5.834074       158.7532 
 473   0.0000       5.870478       159.7438 
 474   0.0000       5.931816       161.4129 
 475   0.0000       5.941479       161.6758 
 476   0.0000       5.974164       162.5653 
 477   0.0000       6.017604       163.7473 
 478   0.0000       6.062357       164.9651 
 479   0.0000       6.088214       165.6687 
 480   0.0000       6.121275       166.5684 
 481   0.0000       6.180219       168.1723 
 482   0.0000       6.192169       168.4975 
 483   0.0000       6.194219       168.5533 
 484   0.0000       6.232092       169.5839 
 485   0.0000       6.250762       170.0919 
 486   0.0000       6.304915       171.5655 
 487   0.0000       6.449702       175.5053 
 488   0.0000       6.510196       177.1514 
 489   0.0000       6.512727       177.2203 
 490   0.0000       6.541493       178.0031 
 491   0.0000       6.579548       179.0386 
 492   0.0000       6.599543       179.5827 
 493   0.0000       6.627096       180.3324 
 494   0.0000       6.650205       180.9613 
 495   0.0000       6.667308       181.4267 
 496   0.0000       6.699126       182.2925 
 497   0.0000       6.750537       183.6914 
 498   0.0000       6.765506       184.0988 
 499   0.0000       6.802024       185.0925 
 500   0.0000       6.814394       185.4291 
 501   0.0000       6.838790       186.0929 
 502   0.0000       6.866525       186.8476 
 503   0.0000       6.881424       187.2531 
 504   0.0000       6.909246       188.0101 
 505   0.0000       6.928807       188.5424 
 506   0.0000       6.954459       189.2404 
 507   0.0000       6.964199       189.5055 
 508   0.0000       6.970644       189.6809 
 509   0.0000       7.076956       192.5738 
 510   0.0000       7.097336       193.1283 
 511   0.0000       7.161244       194.8674 
 512   0.0000       7.169037       195.0794 
 513   0.0000       7.213171       196.2804 
 514   0.0000       7.272872       197.9049 
 515   0.0000       7.284913       198.2326 
 516   0.0000       7.341922       199.7839 
 517   0.0000       7.358449       200.2336 
 518   0.0000       7.366586       200.4550 
 519   0.0000       7.403754       201.4664 
 520   0.0000       7.417621       201.8437 
 521   0.0000       7.422161       201.9673 
 522   0.0000       7.433276       202.2697 
 523   0.0000       7.453573       202.8220 
 524   0.0000       7.478167       203.4913 
 525   0.0000       7.550657       205.4638 
 526   0.0000       7.578810       206.2299 
 527   0.0000       7.692684       209.3286 
 528   0.0000       7.702960       209.6082 
 529   0.0000       7.715709       209.9551 
 530   0.0000       7.751550       210.9304 
 531   0.0000       7.769241       211.4118 
 532   0.0000       7.811195       212.5534 
 533   0.0000       7.874931       214.2878 
 534   0.0000       7.894720       214.8263 
 535   0.0000       7.915719       215.3977 
 536   0.0000       8.023458       218.3294 
 537   0.0000       8.041379       218.8170 
 538   0.0000       8.063658       219.4233 
 539   0.0000       8.278109       225.2588 
 540   0.0000       8.315764       226.2834 
 541   0.0000       8.399037       228.5494 
 542   0.0000       8.438852       229.6328 
 543   0.0000      14.416843       392.3023 
 544   0.0000      15.444826       420.2751 
 545   0.0000      15.845287       431.1722 
 546   0.0000      16.690330       454.1670 
 547   0.0000      16.807249       457.3485 
 548   0.0000      17.899143       487.0604 
 549   0.0000      18.117249       492.9954 
 550   0.0000      19.375285       527.2283 
 551   0.0000      20.311467       552.7031 

                    ********************************
                    * MULLIKEN POPULATION ANALYSIS *
                    ********************************

-----------------------
MULLIKEN ATOMIC CHARGES
-----------------------
   0 O :   -0.601969
   1 O :   -0.750396
   2 O :   -0.726028
   3 O :   -0.387135
   4 N :    1.013738
   5 N :    0.292247
   6 C :    0.540997
   7 C :   -0.376591
   8 C :   -0.983599
   9 H :    0.492637
  10 H :    0.306447
  11 H :    0.328507
  12 H :    0.312799
  13 H :    0.263081
  14 H :    0.275268
Sum of atomic charges:    0.0000000

--------------------------------
MULLIKEN REDUCED ORBITAL CHARGES
--------------------------------
  0 O s       :     3.912620  s :     3.912620
      pz      :     1.582432  p :     4.650081
      px      :     1.308251
      py      :     1.759397
      dz2     :     0.003131  d :     0.032131
      dxz     :     0.015587
      dyz     :     0.001227
      dx2y2   :     0.004818
      dxy     :     0.007368
      f0      :     0.000293  f :     0.007137
      f+1     :     0.002114
      f-1     :     0.000291
      f+2     :     0.001122
      f-2     :     0.001227
      f+3     :     0.001108
      f-3     :     0.000982
  1 O s       :     4.027153  s :     4.027153
      pz      :     1.174372  p :     4.657815
      px      :     2.011827
      py      :     1.471616
      dz2     :     0.021027  d :     0.058397
      dxz     :     0.011943
      dyz     :     0.016947
      dx2y2   :     0.004552
      dxy     :     0.003929
      f0      :     0.002474  f :     0.007032
      f+1     :     0.001226
      f-1     :     0.001479
      f+2     :     0.000932
      f-2     :     0.000619
      f+3     :     0.000133
      f-3     :     0.000169
  2 O s       :     4.025214  s :     4.025214
      pz      :     1.689555  p :     4.633687
      px      :     1.465668
      py      :     1.478464
      dz2     :     0.008671  d :     0.059779
      dxz     :     0.016728
      dyz     :     0.007767
      dx2y2   :     0.010027
      dxy     :     0.016587
      f0      :     0.000753  f :     0.007348
      f+1     :     0.001534
      f-1     :     0.000252
      f+2     :     0.001486
      f-2     :     0.001281
      f+3     :     0.001167
      f-3     :     0.000876
  3 O s       :     3.939232  s :     3.939232
      pz      :     1.664141  p :     4.373442
      px      :     1.266613
      py      :     1.442688
      dz2     :     0.012689  d :     0.066849
      dxz     :     0.011970
      dyz     :     0.007482
      dx2y2   :     0.012610
      dxy     :     0.022099
      f0      :     0.000523  f :     0.007613
      f+1     :     0.002341
      f-1     :    -0.000022
      f+2     :     0.001060
      f-2     :     0.001402
      f+3     :     0.000874
      f-3     :     0.001434
  4 N s       :     3.140574  s :     3.140574
      pz      :     0.935785  p :     2.785892
      px      :     0.924112
      py      :     0.925995
      dz2     :     0.004394  d :     0.040602
      dxz     :     0.010691
      dyz     :     0.008246
      dx2y2   :     0.013728
      dxy     :     0.003543
      f0      :     0.002520  f :     0.019194
      f+1     :     0.006019
      f-1     :     0.003201
      f+2     :     0.000749
      f-2     :     0.002976
      f+3     :     0.001722
      f-3     :     0.002007
  5 N s       :     3.842025  s :     3.842025
      pz      :     1.086499  p :     2.708859
      px      :     0.828101
      py      :     0.794260
      dz2     :     0.017531  d :     0.127420
      dxz     :     0.041036
      dyz     :     0.014458
      dx2y2   :     0.018977
      dxy     :     0.035418
      f0      :     0.002619  f :     0.029449
      f+1     :     0.008209
      f-1     :     0.002264
      f+2     :     0.005644
      f-2     :     0.004966
      f+3     :     0.002604
      f-3     :     0.003144
  6 C s       :     2.923223  s :     2.923223
      pz      :     0.974978  p :     2.564796
      px      :     0.647338
      py      :     0.942479
      dz2     :     0.009828  d :    -0.046224
      dxz     :    -0.008558
      dyz     :    -0.021882
      dx2y2   :     0.016276
      dxy     :    -0.041888
      f0      :    -0.000608  f :     0.017208
      f+1     :     0.007926
      f-1     :     0.003355
      f+2     :    -0.001943
      f-2     :     0.006784
      f+3     :    -0.000868
      f-3     :     0.002562
  7 C s       :     3.169705  s :     3.169705
      pz      :     1.105033  p :     3.084076
      px      :     0.765497
      py      :     1.213546
      dz2     :     0.023182  d :     0.119600
      dxz     :     0.017527
      dyz     :     0.015984
      dx2y2   :     0.068518
      dxy     :    -0.005611
      f0      :     0.001124  f :     0.003209
      f+1     :    -0.005159
      f-1     :     0.001807
      f+2     :     0.003418
      f-2     :     0.001640
      f+3     :    -0.000551
      f-3     :     0.000929
  8 C s       :     3.255442  s :     3.255442
      pz      :     1.271404  p :     3.545829
      px      :     1.278548
      py      :     0.995878
      dz2     :     0.037340  d :     0.173250
      dxz     :     0.049199
      dyz     :     0.026792
      dx2y2   :     0.047660
      dxy     :     0.012259
      f0      :     0.002016  f :     0.009078
      f+1     :    -0.000146
      f-1     :     0.001583
      f+2     :     0.003283
      f-2     :     0.000189
      f+3     :     0.001855
      f-3     :     0.000298
  9 H s       :     0.454712  s :     0.454712
      pz      :     0.010837  p :     0.044978
      px      :     0.020297
      py      :     0.013843
      dz2     :     0.000971  d :     0.007673
      dxz     :     0.001715
      dyz     :     0.002695
      dx2y2   :     0.000816
      dxy     :     0.001476
 10 H s       :     0.632431  s :     0.632431
      pz      :     0.021475  p :     0.053610
      px      :     0.002756
      py      :     0.029379
      dz2     :     0.000222  d :     0.007512
      dxz     :     0.000315
      dyz     :     0.004302
      dx2y2   :     0.001259
      dxy     :     0.001415
 11 H s       :     0.605080  s :     0.605080
      pz      :     0.034708  p :     0.061799
      px      :     0.016482
      py      :     0.010609
      dz2     :     0.002233  d :     0.004615
      dxz     :    -0.000219
      dyz     :     0.001090
      dx2y2   :     0.001129
      dxy     :     0.000381
 12 H s       :     0.600164  s :     0.600164
      pz      :     0.020966  p :     0.077504
      px      :     0.029985
      py      :     0.026553
      dz2     :     0.002265  d :     0.009534
      dxz     :     0.000932
      dyz     :     0.001039
      dx2y2   :     0.000567
      dxy     :     0.004730
 13 H s       :     0.657204  s :     0.657204
      pz      :     0.025091  p :     0.071476
      px      :     0.018085
      py      :     0.028300
      dz2     :     0.003020  d :     0.008240
      dxz     :    -0.000485
      dyz     :     0.001164
      dx2y2   :     0.003469
      dxy     :     0.001072
 14 H s       :     0.650449  s :     0.650449
      pz      :     0.018558  p :     0.065864
      px      :     0.024207
      py      :     0.023099
      dz2     :     0.001027  d :     0.008419
      dxz     :     0.003308
      dyz     :     0.000592
      dx2y2   :     0.002112
      dxy     :     0.001380


                     *******************************
                     * LOEWDIN POPULATION ANALYSIS *
                     *******************************

----------------------
LOEWDIN ATOMIC CHARGES
----------------------
   0 O :    0.401280
   1 O :    0.390655
   2 O :    0.392734
   3 O :    0.275187
   4 N :   -0.711830
   5 N :   -0.226236
   6 C :   -0.339519
   7 C :    0.214422
   8 C :    0.590246
   9 H :   -0.188496
  10 H :   -0.144422
  11 H :   -0.159742
  12 H :   -0.167656
  13 H :   -0.164027
  14 H :   -0.162597

-------------------------------
LOEWDIN REDUCED ORBITAL CHARGES
-------------------------------
  0 O s       :     3.079272  s :     3.079272
      pz      :     1.364103  p :     3.925128
      px      :     1.178851
      py      :     1.382174
      dz2     :     0.070697  d :     0.455673
      dxz     :     0.126243
      dyz     :     0.058272
      dx2y2   :     0.089137
      dxy     :     0.111324
      f0      :     0.008518  f :     0.138646
      f+1     :     0.036468
      f-1     :     0.010888
      f+2     :     0.018358
      f-2     :     0.026360
      f+3     :     0.017386
      f-3     :     0.020668
  1 O s       :     3.232121  s :     3.232121
      pz      :     1.239822  p :     3.995067
      px      :     1.523073
      py      :     1.232171
      dz2     :     0.088978  d :     0.273974
      dxz     :     0.078884
      dyz     :     0.073780
      dx2y2   :     0.015379
      dxy     :     0.016954
      f0      :     0.026961  f :     0.108183
      f+1     :     0.028932
      f-1     :     0.024617
      f+2     :     0.010713
      f-2     :     0.013977
      f+3     :     0.001321
      f-3     :     0.001662
  2 O s       :     3.239722  s :     3.239722
      pz      :     1.398847  p :     3.986987
      px      :     1.365982
      py      :     1.222158
      dz2     :     0.055754  d :     0.272628
      dxz     :     0.069095
      dyz     :     0.039470
      dx2y2   :     0.062826
      dxy     :     0.045482
      f0      :     0.009077  f :     0.107929
      f+1     :     0.027737
      f-1     :     0.007814
      f+2     :     0.016862
      f-2     :     0.018812
      f+3     :     0.015754
      f-3     :     0.011872
  3 O s       :     3.292774  s :     3.292774
      pz      :     1.439722  p :     3.982717
      px      :     1.353649
      py      :     1.189346
      dz2     :     0.047548  d :     0.328975
      dxz     :     0.130036
      dyz     :     0.011532
      dx2y2   :     0.074869
      dxy     :     0.064991
      f0      :     0.008939  f :     0.120347
      f+1     :     0.034974
      f-1     :     0.001396
      f+2     :     0.026878
      f-2     :     0.010583
      f+3     :     0.015730
      f-3     :     0.021845
  4 N s       :     2.676251  s :     2.676251
      pz      :     0.999533  p :     2.808172
      px      :     1.017334
      py      :     0.791306
      dz2     :     0.387116  d :     1.526912
      dxz     :     0.421461
      dyz     :     0.278620
      dx2y2   :     0.229728
      dxy     :     0.209988
      f0      :     0.102366  f :     0.700495
      f+1     :     0.208100
      f-1     :     0.084314
      f+2     :     0.069981
      f-2     :     0.110215
      f+3     :     0.061685
      f-3     :     0.063832
  5 N s       :     2.970813  s :     2.970813
      pz      :     1.078973  p :     2.822150
      px      :     0.998353
      py      :     0.744823
      dz2     :     0.143714  d :     0.971280
      dxz     :     0.300571
      dyz     :     0.072092
      dx2y2   :     0.225516
      dxy     :     0.229386
      f0      :     0.031852  f :     0.461993
      f+1     :     0.136388
      f-1     :     0.022905
      f+2     :     0.082343
      f-2     :     0.072571
      f+3     :     0.054076
      f-3     :     0.061859
  6 C s       :     2.430782  s :     2.430782
      pz      :     0.750454  p :     2.155621
      px      :     0.633619
      py      :     0.771548
      dz2     :     0.178573  d :     1.119144
      dxz     :     0.221332
      dyz     :     0.207071
      dx2y2   :     0.271200
      dxy     :     0.240967
      f0      :     0.060220  f :     0.633972
      f+1     :     0.111506
      f-1     :     0.034233
      f+2     :     0.120247
      f-2     :     0.079331
      f+3     :     0.107790
      f-3     :     0.120644
  7 C s       :     2.443087  s :     2.443087
      pz      :     0.753689  p :     2.183848
      px      :     0.635288
      py      :     0.794870
      dz2     :     0.172914  d :     0.777208
      dxz     :     0.173894
      dyz     :     0.098203
      dx2y2   :     0.211871
      dxy     :     0.120327
      f0      :     0.033550  f :     0.381436
      f+1     :     0.089915
      f-1     :     0.029218
      f+2     :     0.061136
      f-2     :     0.043268
      f+3     :     0.065180
      f-3     :     0.059167
  8 C s       :     2.443697  s :     2.443697
      pz      :     0.767485  p :     2.262194
      px      :     0.768592
      py      :     0.726118
      dz2     :     0.067322  d :     0.513613
      dxz     :     0.078683
      dyz     :     0.140972
      dx2y2   :     0.129443
      dxy     :     0.097193
      f0      :     0.029247  f :     0.190250
      f+1     :     0.004661
      f-1     :     0.023896
      f+2     :     0.037261
      f-2     :     0.021684
      f+3     :     0.036078
      f-3     :     0.037423
  9 H s       :     0.634019  s :     0.634019
      pz      :     0.126279  p :     0.307392
      px      :     0.089352
      py      :     0.091760
      dz2     :     0.066649  d :     0.247085
      dxz     :     0.067297
      dyz     :     0.053957
      dx2y2   :     0.039233
      dxy     :     0.019949
 10 H s       :     0.632568  s :     0.632568
      pz      :     0.076255  p :     0.285832
      px      :     0.071614
      py      :     0.137962
      dz2     :     0.017680  d :     0.226022
      dxz     :     0.015266
      dyz     :     0.075231
      dx2y2   :     0.059998
      dxy     :     0.057848
 11 H s       :     0.631998  s :     0.631998
      pz      :     0.125904  p :     0.294129
      px      :     0.072752
      py      :     0.095474
      dz2     :     0.064356  d :     0.233614
      dxz     :     0.065309
      dyz     :     0.056895
      dx2y2   :     0.032386
      dxy     :     0.014668
 12 H s       :     0.629973  s :     0.629973
      pz      :     0.095737  p :     0.309439
      px      :     0.136163
      py      :     0.077539
      dz2     :     0.044037  d :     0.228243
      dxz     :     0.057968
      dyz     :     0.017455
      dx2y2   :     0.049126
      dxy     :     0.059657
 13 H s       :     0.636813  s :     0.636813
      pz      :     0.104720  p :     0.301917
      px      :     0.114395
      py      :     0.082803
      dz2     :     0.060322  d :     0.225297
      dxz     :     0.039700
      dyz     :     0.028925
      dx2y2   :     0.065408
      dxy     :     0.030941
 14 H s       :     0.633518  s :     0.633518
      pz      :     0.137216  p :     0.303171
      px      :     0.082639
      py      :     0.083317
      dz2     :     0.063883  d :     0.225908
      dxz     :     0.076447
      dyz     :     0.048492
      dx2y2   :     0.025291
      dxy     :     0.011794


                      *****************************
                      * MAYER POPULATION ANALYSIS *
                      *****************************

  NA   - Mulliken gross atomic population
  ZA   - Total nuclear charge
  QA   - Mulliken gross atomic charge
  VA   - Mayer's total valence
  BVA  - Mayer's bonded valence
  FA   - Mayer's free valence

  ATOM       NA         ZA         QA         VA         BVA        FA
  0 O      8.6020     8.0000    -0.6020     1.7775     1.7775     0.0000
  1 O      8.7504     8.0000    -0.7504     1.2965     1.2965     0.0000
  2 O      8.7260     8.0000    -0.7260     1.3335     1.3335     0.0000
  3 O      8.3871     8.0000    -0.3871     1.5897     1.5897     0.0000
  4 N      5.9863     7.0000     1.0137     2.9984     2.9984     0.0000
  5 N      6.7078     7.0000     0.2922     2.3416     2.3416     0.0000
  6 C      5.4590     6.0000     0.5410     2.9747     2.9747     0.0000
  7 C      6.3766     6.0000    -0.3766     3.8738     3.8738    -0.0000
  8 C      6.9836     6.0000    -0.9836     3.8037     3.8037    -0.0000
  9 H      0.5074     1.0000     0.4926     0.6607     0.6607     0.0000
 10 H      0.6936     1.0000     0.3064     1.0134     1.0134    -0.0000
 11 H      0.6715     1.0000     0.3285     1.0420     1.0420     0.0000
 12 H      0.6872     1.0000     0.3128     1.0374     1.0374     0.0000
 13 H      0.7369     1.0000     0.2631     1.0976     1.0976    -0.0000
 14 H      0.7247     1.0000     0.2753     1.0766     1.0766    -0.0000

  Mayer bond orders larger than 0.100000
B(  0-O ,  5-N ) :   1.0319 B(  0-O ,  6-C ) :   0.4980 B(  0-O ,  7-C ) :   0.1112 
B(  0-O ,  9-H ) :  -0.1088 B(  1-O ,  2-O ) :   0.1836 B(  1-O ,  4-N ) :   1.0307 
B(  2-O ,  4-N ) :   1.0814 B(  3-O ,  5-N ) :   1.4971 B(  4-N ,  7-C ) :   0.8634 
B(  5-N ,  9-H ) :  -0.1363 B(  6-C ,  7-C ) :   0.8506 B(  6-C ,  8-C ) :   0.7795 
B(  6-C ,  9-H ) :   0.8648 B(  7-C ,  8-C ) :   0.1141 B(  7-C , 10-H ) :   0.9136 
B(  7-C , 11-H ) :   0.8786 B(  8-C , 12-H ) :   0.9273 B(  8-C , 13-H ) :   0.9727 
B(  8-C , 14-H ) :   0.9428 

-------
TIMINGS
-------

Total SCF time: 0 days 0 hours 5 min 44 sec 

Total time                  ....     344.407 sec
Sum of individual times     ....     343.303 sec  ( 99.7%)

Fock matrix formation       ....     341.098 sec  ( 99.0%)
Diagonalization             ....       0.725 sec  (  0.2%)
Density matrix formation    ....       0.037 sec  (  0.0%)
Population analysis         ....       0.125 sec  (  0.0%)
Initial guess               ....       0.265 sec  (  0.1%)
Orbital Transformation      ....       0.000 sec  (  0.0%)
Orbital Orthonormalization  ....       0.000 sec  (  0.0%)
DIIS solution               ....       0.359 sec  (  0.1%)
SOSCF solution              ....       0.613 sec  (  0.2%)

Maximum memory used throughout the entire SCF-calculation: 254.4 MB


           ************************************************************
           *        Program running with 16 parallel MPI-processes    *
           *              working on a common directory               *
           ************************************************************

------------------------------------------------------------------------------
                                ORCA  MP2 
------------------------------------------------------------------------------

Freezing NCore=18 chemical core electrons

-------------
RI-MP2 ENERGY
-------------
Dimension of the basis                    ...  552
Memory devoted to MP2                     ...  256 MB   
Data format for buffers                   ... DOUBLE
Compression type for matrix containers    ... UNCOMPRESSED
Overall scaling of the MP2 energy         ...   1.000e+00
Calculating two index integrals           ... done (    0.008 sec)
Cholesky decomposition of V**-1           ... done (    0.156 sec)

-----------------
RI-TRANSFORMATION (AUX index driven)
-----------------

Dimension of the orbital-basis         ... 552
Dimension of the aux-basis             ... 1230
Transformation of internal/external MOs...    9-  34 to   35- 551
Number Format for Storage              ... Double (8 Byte)
Integral mode                          ... Direct

First Phase: integral generation and transformation of MO indices
  Aux angular momentum 0               ... done (    0.063 sec)
  Aux angular momentum 1               ... done (    0.122 sec)
  Aux angular momentum 2               ... done (    0.176 sec)
  Aux angular momentum 3               ... done (    0.149 sec)
  Aux angular momentum 4               ... done (    0.136 sec)
Closing buffer VIA ( 0.12 GB; CompressionRatio= 1.00)
  Phase 1 completed in     0.766 sec
Second Phase: sorting and transformation of aux index

IA-Transformation
Memory available                       ... 196 MB 
Max. # MO pairs treated in a batch     ... 2    
# of internal orbitals                 ... 26
# batches for internal orbitals        ... 1
Closing buffer IAV ( 0.12 GB; CompressionRatio= 1.00)
(ia|v) transformation done in     0.134 sec

  Phase 2 completed in     0.203 sec
RI-Integral transformation completed in     0.987 sec
Opening buffers                              ... done

Starting loop over batches of integrals:

Operator 0  - window                       ... (  9- 34)x( 35-551)
Operator 0  - Memory available             ...   256 MB
Operator 0  - Memory needed per MO         ...   4.9 MB
Operator 0  - Number of orbitals per batch ... 2
Operator 0  - Number of batches            ... 1

OPERATOR  0   PASS   0:  MOs     9 ...   10 +   11 ...   12 +   13 ...   14 +   15 ...   16
                            +   17 ...   18 +   19 ...   20 +   21 ...   22 +   23 ...   24
                            +   25 ...   26 +   27 ...   28 +   29 ...   30 +   31 ...   32
                            +   33 ...   34
  Reading integrals       ... ok
Time spent in pair loops =     0.078 sec
Deleting buffer (Ka|jb)[aa] ...done

-----------------------------------------------
 RI-MP2 CORRELATION ENERGY:     -1.910680811 Eh
-----------------------------------------------


-------
TIMINGS
-------

Total time                :    2.121 sec
Integral trafo            :    1.000 sec ( 47.2%)
I/O of integrals          :    0.005 sec (  0.2%)
K(i,j) Operators          :    0.053 sec (  2.5%)
T(i,j) pair energies      :    0.008 sec (  0.4%)
V-calculation             :    0.008 sec (  0.4%)
V**(-1/2)                 :    0.156 sec (  7.3%)
Gamma(ia|P)               :    0.000 sec (  0.0%)
Gamma-Trafo               :    0.000 sec (  0.0%)
D(virtual)                :    0.000 sec (  0.0%)
D(internal)               :    0.000 sec (  0.0%)
W(virtual)                :    0.000 sec (  0.0%)
W(internal)               :    0.000 sec (  0.0%)
L(virtual)                :    0.000 sec (  0.0%)
L(internal)               :    0.000 sec (  0.0%)
G(D)                      :    0.000 sec (  0.0%)
G(Z)                      :    0.000 sec (  0.0%)
Z-Vector Solution         :    0.000 sec (  0.0%)
3-Index Derivative        :    0.000 sec (  0.0%)
2-Index Derivative        :    0.000 sec (  0.0%)
Separable Gradient        :    0.000 sec (  0.0%)


---------------------------------------
MP2 TOTAL ENERGY:     -527.322726693 Eh
---------------------------------------

Maximum memory used throughout the entire MP2-calculation: 131.6 MB

-------------------------   --------------------
FINAL SINGLE POINT ENERGY      -527.322726692818
-------------------------   --------------------


                            ***************************************
                            *     ORCA property calculations      *
                            ***************************************


  WARNING: The energy has been calculated at the MP2 level but the densities
           used in the property calculations are still SCF densities
           MP2 response densities have not been calculated 
           use %mp2 Density relaxed end
           or  %mp2 Density unrelaxed end

                                    ---------------------
                                    Active property flags
                                    ---------------------
   (+) Dipole Moment


------------------------------------------------------------------------------
                       ORCA ELECTRIC PROPERTIES CALCULATION
------------------------------------------------------------------------------

Dipole Moment Calculation                       ... on
Quadrupole Moment Calculation                   ... off
Polarizability Calculation                      ... off
GBWName                                         ... TZ_1-nitropropan-2-ylnitrite.gbw
Electron density                                ... TZ_1-nitropropan-2-ylnitrite.scfp
The origin for moment calculation is the CENTER OF MASS  = (-0.015629, -0.071823  0.000793)

-------------
DIPOLE MOMENT
-------------
                                X             Y             Z
Electronic contribution:     -1.79951      -4.75841      -0.12069
Nuclear contribution   :      1.09405       5.02761      -0.05549
                        -----------------------------------------
Total Dipole Moment    :     -0.70546       0.26919      -0.17618
                        -----------------------------------------
Magnitude (a.u.)       :      0.77535
Magnitude (Debye)      :      1.97079



--------------------
Rotational spectrum 
--------------------
 
Rotational constants in cm-1:     0.127083     0.025572     0.024065 
Rotational constants in MHz :  3809.845660   766.628077   721.447337 

 Dipole components along the rotational axes: 
x,y,z [a.u.] :    -0.706034     0.282308    -0.151624 
x,y,z [Debye]:    -1.794595     0.717571    -0.385399 

 

Timings for individual modules:

Sum of individual times         ...      382.702 sec (=   6.378 min)
GTO integral calculation        ...       24.579 sec (=   0.410 min)   6.4 %
SCF iterations                  ...      352.280 sec (=   5.871 min)  92.1 %
MP2 module                      ...        5.842 sec (=   0.097 min)   1.5 %
                             ****ORCA TERMINATED NORMALLY****
TOTAL RUN TIME: 0 days 0 hours 6 minutes 26 seconds 339 msec
