
                                 *****************
                                 * O   R   C   A *
                                 *****************

                                            #,                                       
                                            ###                                      
                                            ####                                     
                                            #####                                    
                                            ######                                   
                                           ########,                                 
                                     ,,################,,,,,                         
                               ,,#################################,,                 
                          ,,##########################################,,             
                       ,#########################################, ''#####,          
                    ,#############################################,,   '####,        
                  ,##################################################,,,,####,       
                ,###########''''           ''''###############################       
              ,#####''   ,,,,##########,,,,          '''####'''          '####       
            ,##' ,,,,###########################,,,                        '##       
           ' ,,###''''                  '''############,,,                           
         ,,##''                                '''############,,,,        ,,,,,,###''
      ,#''                                            '''#######################'''  
     '                                                          ''''####''''         
             ,#######,   #######,   ,#######,      ##                                
            ,#'     '#,  ##    ##  ,#'     '#,    #''#        ######   ,####,        
            ##       ##  ##   ,#'  ##            #'  '#       #        #'  '#        
            ##       ##  #######   ##           ,######,      #####,   #    #        
            '#,     ,#'  ##    ##  '#,     ,#' ,#      #,         ##   #,  ,#        
             '#######'   ##     ##  '#######'  #'      '#     #####' # '####'        



                  #######################################################
                  #                        -***-                        #
                  #          Department of theory and spectroscopy      #
                  #    Directorship and core code : Frank Neese         #
                  #        Max Planck Institute fuer Kohlenforschung    #
                  #                Kaiser Wilhelm Platz 1               #
                  #                 D-45470 Muelheim/Ruhr               #
                  #                      Germany                        #
                  #                                                     #
                  #                  All rights reserved                #
                  #                        -***-                        #
                  #######################################################


                         Program Version 5.0.3 -  RELEASE  -


 With contributions from (in alphabetic order):
   Daniel Aravena         : Magnetic Suceptibility
   Michael Atanasov       : Ab Initio Ligand Field Theory (pilot matlab implementation)
   Alexander A. Auer      : GIAO ZORA, VPT2 properties, NMR spectrum
   Ute Becker             : Parallelization
   Giovanni Bistoni       : ED, misc. LED, open-shell LED, HFLD
   Martin Brehm           : Molecular dynamics
   Dmytro Bykov           : SCF Hessian
   Vijay G. Chilkuri      : MRCI spin determinant printing, contributions to CSF-ICE
   Dipayan Datta          : RHF DLPNO-CCSD density
   Achintya Kumar Dutta   : EOM-CC, STEOM-CC
   Dmitry Ganyushin       : Spin-Orbit,Spin-Spin,Magnetic field MRCI
   Miquel Garcia          : C-PCM and meta-GGA Hessian, CC/C-PCM, Gaussian charge scheme
   Yang Guo               : DLPNO-NEVPT2, F12-NEVPT2, CIM, IAO-localization
   Andreas Hansen         : Spin unrestricted coupled pair/coupled cluster methods
   Benjamin Helmich-Paris : MC-RPA, TRAH-SCF, COSX integrals
   Lee Huntington         : MR-EOM, pCC
   Robert Izsak           : Overlap fitted RIJCOSX, COSX-SCS-MP3, EOM
   Marcus Kettner         : VPT2
   Christian Kollmar      : KDIIS, OOCD, Brueckner-CCSD(T), CCSD density, CASPT2, CASPT2-K
   Simone Kossmann        : Meta GGA functionals, TD-DFT gradient, OOMP2, MP2 Hessian
   Martin Krupicka        : Initial AUTO-CI
   Lucas Lang             : DCDCAS
   Marvin Lechner         : AUTO-CI (C++ implementation), FIC-MRCC
   Dagmar Lenk            : GEPOL surface, SMD
   Dimitrios Liakos       : Extrapolation schemes; Compound Job, initial MDCI parallelization
   Dimitrios Manganas     : Further ROCIS development; embedding schemes
   Dimitrios Pantazis     : SARC Basis sets
   Anastasios Papadopoulos: AUTO-CI, single reference methods and gradients
   Taras Petrenko         : DFT Hessian,TD-DFT gradient, ASA, ECA, R-Raman, ABS, FL, XAS/XES, NRVS
   Peter Pinski           : DLPNO-MP2, DLPNO-MP2 Gradient
   Christoph Reimann      : Effective Core Potentials
   Marius Retegan         : Local ZFS, SOC
   Christoph Riplinger    : Optimizer, TS searches, QM/MM, DLPNO-CCSD(T), (RO)-DLPNO pert. Triples
   Tobias Risthaus        : Range-separated hybrids, TD-DFT gradient, RPA, STAB
   Michael Roemelt        : Original ROCIS implementation
   Masaaki Saitow         : Open-shell DLPNO-CCSD energy and density
   Barbara Sandhoefer     : DKH picture change effects
   Avijit Sen             : IP-ROCIS
   Kantharuban Sivalingam : CASSCF convergence, NEVPT2, FIC-MRCI
   Bernardo de Souza      : ESD, SOC TD-DFT
   Georgi Stoychev        : AutoAux, RI-MP2 NMR, DLPNO-MP2 response
   Willem Van den Heuvel  : Paramagnetic NMR
   Boris Wezisla          : Elementary symmetry handling
   Frank Wennmohs         : Technical directorship


 We gratefully acknowledge several colleagues who have allowed us to
 interface, adapt or use parts of their codes:
   Stefan Grimme, W. Hujo, H. Kruse, P. Pracht,  : VdW corrections, initial TS optimization,
                  C. Bannwarth, S. Ehlert          DFT functionals, gCP, sTDA/sTD-DF
   Ed Valeev, F. Pavosevic, A. Kumar             : LibInt (2-el integral package), F12 methods
   Garnet Chan, S. Sharma, J. Yang, R. Olivares  : DMRG
   Ulf Ekstrom                                   : XCFun DFT Library
   Mihaly Kallay                                 : mrcc  (arbitrary order and MRCC methods)
   Jiri Pittner, Ondrej Demel                    : Mk-CCSD
   Frank Weinhold                                : gennbo (NPA and NBO analysis)
   Christopher J. Cramer and Donald G. Truhlar   : smd solvation model
   Lars Goerigk                                  : TD-DFT with DH, B97 family of functionals
   V. Asgeirsson, H. Jonsson                     : NEB implementation
   FAccTs GmbH                                   : IRC, NEB, NEB-TS, DLPNO-Multilevel, CI-OPT
                                                   MM, QMMM, 2- and 3-layer-ONIOM, Crystal-QMMM,
                                                   LR-CPCM, SF, NACMEs, symmetry and pop. for TD-DFT,
                                                   nearIR, NL-DFT gradient (VV10), updates on ESD,
                                                   ML-optimized integration grids
   S Lehtola, MJT Oliveira, MAL Marques          : LibXC Library
   Liviu Ungur et al                             : ANISO software


 Your calculation uses the libint2 library for the computation of 2-el integrals
 For citations please refer to: http://libint.valeyev.net

 Your ORCA version has been built with support for libXC version: 5.1.0
 For citations please refer to: https://tddft.org/programs/libxc/

 This ORCA versions uses:
   CBLAS   interface :  Fast vector & matrix operations
   LAPACKE interface :  Fast linear algebra routines
   SCALAPACK package :  Parallel linear algebra routines
   Shared memory     :  Shared parallel matrices
   BLAS/LAPACK       :  OpenBLAS 0.3.15  USE64BITINT DYNAMIC_ARCH NO_AFFINITY SkylakeX SINGLE_THREADED
        Core in use  :  SkylakeX
   Copyright (c) 2011-2014, The OpenBLAS Project


================================================================================

----- Orbital basis set information -----
Your calculation utilizes the basis: aug-cc-pVTZ 
    H, B-Ne : Obtained from the ccRepo (grant-hill.group.shef.ac.uk/ccrepo) Feb. 2017
              R. A. Kendall, T. H. Dunning, Jr., R. J. Harrison, J. Chem. Phys. 96, 6796 (1992)
         He : Obtained from the ccRepo (grant-hill.group.shef.ac.uk/ccrepo) Feb. 2017
              D. E. Woon, T. H. Dunning, Jr., J. Chem. Phys. 100, 2975 (1994)
  Li-Be, Na : Obtained from the ccRepo (grant-hill.group.shef.ac.uk/ccrepo) Feb. 2017
              B. P. Prascher, D. E. Woon, K. A. Peterson, T. H. Dunning, Jr., A. K. Wilson, Theor. Chem. Acc. 128, 69 (2011)
         Mg : Obtained from the Peterson Research Group Website (tyr0.chem.wsu.edu/~kipeters) Feb. 2017
              B. P. Prascher, D. E. Woon, K. A. Peterson, T. H. Dunning, Jr., A. K. Wilson, Theor. Chem. Acc. 128, 69 (2011)
      Al-Ar : Obtained from the ccRepo (grant-hill.group.shef.ac.uk/ccrepo) Feb. 2017
              D. E. Woon, T. H. Dunning, Jr., J. Chem. Phys. 98, 1358 (1993)
      Sc-Zn : Obtained from the ccRepo (grant-hill.group.shef.ac.uk/ccrepo) Feb. 2017
              N. B. Balabanov, K. A. Peterson, J. Chem. Phys. 123, 064107 (2005)
              N. B. Balabanov, K. A. Peterson, J. Chem. Phys. 125, 074110 (2006)
      Ga-Kr : Obtained from the ccRepo (grant-hill.group.shef.ac.uk/ccrepo) Feb. 2017
              A. K. Wilson, D. E. Woon, K. A. Peterson, T. H. Dunning, Jr., J. Chem. Phys. 110, 7667 (1999)
     Ag, Au : Obtained from the Peterson Research Group Website (tyr0.chem.wsu.edu/~kipeters) Feb. 2017
              K. A. Peterson, C. Puzzarini, Theor. Chem. Acc. 114, 283 (2005)

----- AuxC basis set information -----
Your calculation utilizes the auxiliary basis: aug-cc-pVTZ/C 
  H-He, B-F, Al-Ar, Ga-Kr : Obtained from the EMSL Basis Set Exchange (bse.pnl.gov) Feb. 2017
                            F. Weigend, A. Kohn, C. Hattig, J. Chem. Phys. 116, 3175 (2002)
                   Be, Mg : Obtained from the TURBOMOLE 7.0 basis set library
                            C. Haettig, Phys. Chem. Chem. Phys. 7, 59 (2005)
                       Ne : Obtained from the EMSL Basis Set Exchange (bse.pnl.gov) Feb. 2017
                            C. Haettig, Phys. Chem. Chem. Phys. 7, 59 (2005)
                            F. Weigend, A. Kohn, C. Hattig, J. Chem. Phys. 116, 3175 (2002)
                    Sc-Zn : Obtained from the EMSL Basis Set Exchange (bse.pnl.gov) Feb. 2017
                            J. G. Hill, J. A. Platts, J. Chem. Phys. 128, 044104 (2008)

================================================================================
                                        WARNINGS
                       Please study these warnings very carefully!
================================================================================


WARNING: No MP2 level density has been requested!
         To caclulate MP2 level properties use
         %mp2 Density relaxed end
         or
         %mp2 Density unrelaxed end

WARNING: Post HF methods need fully converged wavefunctions
  ===> : Setting SCFConvForced true
         You can overwrite this default with %scf ConvForced false 


INFO   : the flag for use of the SHARK integral package has been found!

================================================================================
                                       INPUT FILE
================================================================================
NAME = TZ_1,3-dihydro-2H-benzimidazole-2-thione.inp
|  1> !ri-mp2 aug-cc-pvtz aug-cc-pvtz/c tightscf
|  2> %pal nprocs 16 end
|  3> 
|  4> * xyz 0 1
|  5> N     0.000000    1.086138    0.759003
|  6> C     0.000000    0.000000    1.598098
|  7> S     0.000000    0.000000    3.259399
|  8> C     0.000000    0.701967   -0.573500
|  9> C     0.000000    1.422352   -1.756178
| 10> C     0.000000    0.697607   -2.946432
| 11> C     0.000000   -0.697607   -2.946432
| 12> C     0.000000   -1.422352   -1.756178
| 13> C     0.000000   -0.701967   -0.573500
| 14> N     0.000000   -1.086138    0.759003
| 15> H     0.000000    2.023318    1.120645
| 16> H     0.000000    2.503243   -1.758725
| 17> H     0.000000    1.228712   -3.887766
| 18> H     0.000000   -1.228712   -3.887766
| 19> H     0.000000   -2.503243   -1.758725
| 20> H     0.000000   -2.023318    1.120645
| 21> *
| 22> 
| 23>                          ****END OF INPUT****
================================================================================

                       ****************************
                       * Single Point Calculation *
                       ****************************

---------------------------------
CARTESIAN COORDINATES (ANGSTROEM)
---------------------------------
  N      0.000000    1.086138    0.759003
  C      0.000000    0.000000    1.598098
  S      0.000000    0.000000    3.259399
  C      0.000000    0.701967   -0.573500
  C      0.000000    1.422352   -1.756178
  C      0.000000    0.697607   -2.946432
  C      0.000000   -0.697607   -2.946432
  C      0.000000   -1.422352   -1.756178
  C      0.000000   -0.701967   -0.573500
  N      0.000000   -1.086138    0.759003
  H      0.000000    2.023318    1.120645
  H      0.000000    2.503243   -1.758725
  H      0.000000    1.228712   -3.887766
  H      0.000000   -1.228712   -3.887766
  H      0.000000   -2.503243   -1.758725
  H      0.000000   -2.023318    1.120645

----------------------------
CARTESIAN COORDINATES (A.U.)
----------------------------
  NO LB      ZA    FRAG     MASS         X           Y           Z
   0 N     7.0000    0    14.007    0.000000    2.052503    1.434308
   1 C     6.0000    0    12.011    0.000000    0.000000    3.019968
   2 S    16.0000    0    32.060    0.000000    0.000000    6.159371
   3 C     6.0000    0    12.011    0.000000    1.326525   -1.083758
   4 C     6.0000    0    12.011    0.000000    2.687856   -3.318695
   5 C     6.0000    0    12.011    0.000000    1.318286   -5.567950
   6 C     6.0000    0    12.011    0.000000   -1.318286   -5.567950
   7 C     6.0000    0    12.011    0.000000   -2.687856   -3.318695
   8 C     6.0000    0    12.011    0.000000   -1.326525   -1.083758
   9 N     7.0000    0    14.007    0.000000   -2.052503    1.434308
  10 H     1.0000    0     1.008    0.000000    3.823517    2.117712
  11 H     1.0000    0     1.008    0.000000    4.730444   -3.323509
  12 H     1.0000    0     1.008    0.000000    2.321929   -7.346813
  13 H     1.0000    0     1.008    0.000000   -2.321929   -7.346813
  14 H     1.0000    0     1.008    0.000000   -4.730444   -3.323509
  15 H     1.0000    0     1.008    0.000000   -3.823517    2.117712

--------------------------------
INTERNAL COORDINATES (ANGSTROEM)
--------------------------------
 N      0   0   0     0.000000000000     0.00000000     0.00000000
 C      1   0   0     1.372507258294     0.00000000     0.00000000
 S      2   1   0     1.661301000000   127.68785019     0.00000000
 C      1   2   3     1.386777416260   111.60516641   180.00000000
 C      4   1   2     1.384803884999   132.57116279   180.00000000
 C      5   4   1     1.393542213046   117.31663467   180.00000000
 C      6   5   4     1.395214000000   121.33721189     0.00000000
 C      7   6   5     1.393542213046   121.33721189     0.00000000
 C      8   7   6     1.384803884999   117.31663467     0.00000000
 N      2   1   3     1.372507258294   104.62429963   180.00000000
 H      1   2   3     1.004535359539   121.21138702     0.00000000
 H      5   4   1     1.080894000858   121.48116435     0.00000000
 H      6   5   4     1.080824787179   119.23089568   180.00000085
 H      7   6   5     1.080824787179   119.43189243   180.00000000
 H      8   7   6     1.080894000858   121.20220098   180.00000000
 H     10   2   1     1.004535359539   121.21138702   180.00000000

---------------------------
INTERNAL COORDINATES (A.U.)
---------------------------
 N      0   0   0     0.000000000000     0.00000000     0.00000000
 C      1   0   0     2.593662834994     0.00000000     0.00000000
 S      2   1   0     3.139403916010   127.68785019     0.00000000
 C      1   2   3     2.620629525439   111.60516641   180.00000000
 C      4   1   2     2.616900091839   132.57116279   180.00000000
 C      5   4   1     2.633413138715   117.31663467   180.00000000
 C      6   5   4     2.636572358213   121.33721189     0.00000000
 C      7   6   5     2.633413138715   121.33721189     0.00000000
 C      8   7   6     2.616900091839   117.31663467     0.00000000
 N      2   1   3     2.593662834994   104.62429963   180.00000000
 H      1   2   3     1.898296721369   121.21138702     0.00000000
 H      5   4   1     2.042593641419   121.48116435     0.00000000
 H      6   5   4     2.042462846522   119.23089568   180.00000085
 H      7   6   5     2.042462846522   119.43189243   180.00000000
 H      8   7   6     2.042593641419   121.20220098   180.00000000
 H     10   2   1     1.898296721369   121.21138702   180.00000000

---------------------
BASIS SET INFORMATION
---------------------
There are 4 groups of distinct atoms

 Group   1 Type N   : 19s6p3d2f contracted to 5s4p3d2f pattern {88111/3111/111/11}
 Group   2 Type C   : 19s6p3d2f contracted to 5s4p3d2f pattern {88111/3111/111/11}
 Group   3 Type S   : 42s17p3d2f contracted to 6s5p3d2f pattern {131313111/77111/111/11}
 Group   4 Type H   : 6s3p2d contracted to 4s3p2d pattern {3111/111/11}

Atom   0N    basis set group =>   1
Atom   1C    basis set group =>   2
Atom   2S    basis set group =>   3
Atom   3C    basis set group =>   2
Atom   4C    basis set group =>   2
Atom   5C    basis set group =>   2
Atom   6C    basis set group =>   2
Atom   7C    basis set group =>   2
Atom   8C    basis set group =>   2
Atom   9N    basis set group =>   1
Atom  10H    basis set group =>   4
Atom  11H    basis set group =>   4
Atom  12H    basis set group =>   4
Atom  13H    basis set group =>   4
Atom  14H    basis set group =>   4
Atom  15H    basis set group =>   4
---------------------------------
AUXILIARY/C BASIS SET INFORMATION
---------------------------------
There are 4 groups of distinct atoms

 Group   1 Type N   : 9s7p6d4f2g contracted to 9s7p6d4f2g pattern {111111111/1111111/111111/1111/11}
 Group   2 Type C   : 9s7p6d4f2g contracted to 9s7p6d4f2g pattern {111111111/1111111/111111/1111/11}
 Group   3 Type S   : 11s9p8d6f3g contracted to 11s9p8d6f3g pattern {11111111111/111111111/11111111/111111/111}
 Group   4 Type H   : 5s4p3d2f contracted to 5s4p3d2f pattern {11111/1111/111/11}

Atom   0N    basis set group =>   1
Atom   1C    basis set group =>   2
Atom   2S    basis set group =>   3
Atom   3C    basis set group =>   2
Atom   4C    basis set group =>   2
Atom   5C    basis set group =>   2
Atom   6C    basis set group =>   2
Atom   7C    basis set group =>   2
Atom   8C    basis set group =>   2
Atom   9N    basis set group =>   1
Atom  10H    basis set group =>   4
Atom  11H    basis set group =>   4
Atom  12H    basis set group =>   4
Atom  13H    basis set group =>   4
Atom  14H    basis set group =>   4
Atom  15H    basis set group =>   4


           ************************************************************
           *        Program running with 16 parallel MPI-processes    *
           *              working on a common directory               *
           ************************************************************
------------------------------------------------------------------------------
                           ORCA GTO INTEGRAL CALCULATION
------------------------------------------------------------------------------
------------------------------------------------------------------------------
                   ___                                                        
                  /   \      - P O W E R E D   B Y -                         
                 /     \                                                     
                 |  |  |   _    _      __       _____    __    __             
                 |  |  |  | |  | |    /  \     |  _  \  |  |  /  |          
                  \  \/   | |  | |   /    \    | | | |  |  | /  /          
                 / \  \   | |__| |  /  /\  \   | |_| |  |  |/  /          
                |  |  |   |  __  | /  /__\  \  |    /   |      \           
                |  |  |   | |  | | |   __   |  |    \   |  |\   \          
                \     /   | |  | | |  |  |  |  | |\  \  |  | \   \       
                 \___/    |_|  |_| |__|  |__|  |_| \__\ |__|  \__/        
                                                                              
                      - O R C A' S   B I G   F R I E N D -                    
                                      &                                       
                       - I N T E G R A L  F E E D E R -                       
                                                                              
 v1 FN, 2020, v2 2021                                                         
------------------------------------------------------------------------------


Reading SHARK input file TZ_1,3-dihydro-2H-benzimidazole-2-thione.SHARKINP.tmp ... ok
----------------------
SHARK INTEGRAL PACKAGE
----------------------

Number of atoms                             ...     16
Number of basis functions                   ...    681
Number of shells                            ...    265
Maximum angular momentum                    ...      3
Integral batch strategy                     ... SHARK/LIBINT Hybrid
RI-J (if used) integral strategy            ... SPLIT-RIJ (Revised 2003 algorithm where possible)
Printlevel                                  ...      1
Contraction scheme used                     ... PARTIAL GENERAL contraction
Coulomb Range Separation                    ... NOT USED
Exchange Range Separation                   ... NOT USED
Finite Nucleus Model                        ... NOT USED
Auxiliary Coulomb fitting basis             ... NOT available
Auxiliary J/K fitting basis                 ... NOT available
Auxiliary Correlation fitting basis         ... AVAILABLE
   # of basis functions in Aux-C            ...   1377
   # of shells in Aux-C                     ...    373
   Maximum angular momentum in Aux-C        ...      4
Auxiliary 'external' fitting basis          ... NOT available
Integral threshold                          ...     2.500000e-11
Primitive cut-off                           ...     2.500000e-12
Primitive pair pre-selection threshold      ...     2.500000e-12

Calculating pre-screening integrals         ... done (  0.0 sec) Dimension = 265
Calculating pre-screening integrals (ORCA)  ... done (  0.1 sec) Dimension = 196
Organizing shell pair data                  ... done (  0.3 sec)
Shell pair information
Total number of shell pairs                 ...     35245
Shell pairs after pre-screening             ...     28668
Total number of primitive shell pairs       ...     43705
Primitive shell pairs kept                  ...     33514
          la=0 lb=0:   6417 shell pairs
          la=1 lb=0:   7341 shell pairs
          la=1 lb=1:   1878 shell pairs
          la=2 lb=0:   5008 shell pairs
          la=2 lb=1:   2466 shell pairs
          la=2 lb=2:    862 shell pairs
          la=3 lb=0:   2470 shell pairs
          la=3 lb=1:   1200 shell pairs
          la=3 lb=2:    818 shell pairs
          la=3 lb=3:    208 shell pairs

Calculating one electron integrals          ... done (  0.0 sec)
Calculating RI/C V-Matrix + Cholesky decomp.... done (  0.1 sec)
Calculating Nuclear repulsion               ... done (  0.0 sec) ENN=    551.913034839782 Eh

SHARK setup successfully completed in   1.1 seconds

Maximum memory used throughout the entire GTOINT-calculation: 69.9 MB


           ************************************************************
           *        Program running with 16 parallel MPI-processes    *
           *              working on a common directory               *
           ************************************************************
-------------------------------------------------------------------------------
                                 ORCA SCF
-------------------------------------------------------------------------------

------------
SCF SETTINGS
------------
Hamiltonian:
 Ab initio Hamiltonian  Method          .... Hartree-Fock(GTOs)


General Settings:
 Integral files         IntName         .... TZ_1,3-dihydro-2H-benzimidazole-2-thione
 Hartree-Fock type      HFTyp           .... RHF
 Total Charge           Charge          ....    0
 Multiplicity           Mult            ....    1
 Number of Electrons    NEL             ....   78
 Basis Dimension        Dim             ....  602
 Nuclear Repulsion      ENuc            ....    551.9130348398 Eh

Convergence Acceleration:
 DIIS                   CNVDIIS         .... on
   Start iteration      DIISMaxIt       ....    12
   Startup error        DIISStart       ....  0.200000
   # of expansion vecs  DIISMaxEq       ....     5
   Bias factor          DIISBfac        ....   1.050
   Max. coefficient     DIISMaxC        ....  10.000
 Trust-Rad. Augm. Hess. CNVTRAH         .... auto
   Auto Start mean grad. ratio tolernc. ....  1.125000
   Auto Start start iteration           ....    20
   Auto Start num. interpolation iter.  ....    10
   Max. Number of Micro iterations      ....    16
   Max. Number of Macro iterations      .... Maxiter - #DIIS iter
   Number of Davidson start vectors     ....     2
   Converg. threshold I  (grad. norm)   ....   1.000e-05
   Converg. threshold II (energy diff.) ....   1.000e-08
   Grad. Scal. Fac. for Micro threshold ....   0.100
   Minimum threshold for Micro iter.    ....   0.010
   NR start threshold (gradient norm)   ....   0.001
   Initial trust radius                 ....   0.400
   Minimum AH scaling param. (alpha)    ....   1.000
   Maximum AH scaling param. (alpha)    .... 1000.000
   Orbital update algorithm             .... Taylor
   White noise on init. David. guess    .... on
   Maximum white noise                  ....   0.010
   Quad. conv. algorithm                .... NR
 SOSCF                  CNVSOSCF        .... on
   Start iteration      SOSCFMaxIt      ....   150
   Startup grad/error   SOSCFStart      ....  0.003300
 Level Shifting         CNVShift        .... on
   Level shift para.    LevelShift      ....    0.2500
   Turn off err/grad.   ShiftErr        ....    0.0010
 Zerner damping         CNVZerner       .... off
 Static damping         CNVDamp         .... on
   Fraction old density DampFac         ....    0.7000
   Max. Damping (<1)    DampMax         ....    0.9800
   Min. Damping (>=0)   DampMin         ....    0.0000
   Turn off err/grad.   DampErr         ....    0.1000
 Fernandez-Rico         CNVRico         .... off

SCF Procedure:
 Maximum # iterations   MaxIter         ....   125
 SCF integral mode      SCFMode         .... Direct
   Integral package                     .... SHARK and LIBINT hybrid scheme
 Reset frequency        DirectResetFreq ....    20
 Integral Threshold     Thresh          ....  2.500e-11 Eh
 Primitive CutOff       TCut            ....  2.500e-12 Eh

Convergence Tolerance:
 Convergence Check Mode ConvCheckMode   .... Total+1el-Energy
 Convergence forced     ConvForced      .... 1
 Energy Change          TolE            ....  1.000e-08 Eh
 1-El. energy change                    ....  1.000e-05 Eh
 Orbital Gradient       TolG            ....  1.000e-05
 Orbital Rotation angle TolX            ....  1.000e-05
 DIIS Error             TolErr          ....  5.000e-07


Diagonalization of the overlap matrix:
Smallest eigenvalue                        ... 5.236e-07
Time for diagonalization                   ...    0.058 sec
Threshold for overlap eigenvalues          ... 1.000e-08
Number of eigenvalues below threshold      ... 0
Time for construction of square roots      ...    0.052 sec
Total time needed                          ...    0.112 sec

Time for model grid setup =   10.063 sec

------------------------------
INITIAL GUESS: MODEL POTENTIAL
------------------------------
Loading Hartree-Fock densities                     ... done
Calculating cut-offs                               ... done
Initializing the effective Hamiltonian             ... done
Setting up the integral package (SHARK)            ... done
Starting the Coulomb interaction                   ... done (   0.2 sec)
Reading the grid                                   ... done
Mapping shells                                     ... done
Starting the XC term evaluation                    ... done (   0.1 sec)
Transforming the Hamiltonian                       ... done (   0.0 sec)
Diagonalizing the Hamiltonian                      ... done (   0.1 sec)
Back transforming the eigenvectors                 ... done (   0.0 sec)
Now organizing SCF variables                       ... done
                      ------------------
                      INITIAL GUESS DONE (  10.5 sec)
                      ------------------
--------------
SCF ITERATIONS
--------------
ITER       Energy         Delta-E        Max-DP      RMS-DP      [F,P]     Damp
               ***  Starting incremental Fock matrix formation  ***
  0   -774.7975046825   0.000000000000 0.09691723  0.00136817  0.1970246 0.7000
  1   -774.9214824503  -0.123977767792 0.10121754  0.00115680  0.1351957 0.7000
                               ***Turning on DIIS***
  2   -775.0005814229  -0.079098972566 0.08348331  0.00088946  0.1013640 0.7000
  3   -776.0538531116  -1.053271688755 0.21272857  0.00238944  0.0757650 0.0000
  4   -775.0991755484   0.954677563258 0.01908824  0.00028934  0.0079091 0.0000
  5   -775.1612115581  -0.062036009775 0.00666601  0.00010513  0.0049306 0.0000
                      *** Initiating the SOSCF procedure ***
                           *** Shutting down DIIS ***
                      *** Re-Reading the Fockian *** 
                      *** Removing any level shift *** 
ITER      Energy       Delta-E        Grad      Rot      Max-DP    RMS-DP
  6   -775.16429388  -0.0030823232  0.001447  0.001447  0.002271  0.000039
               *** Restarting incremental Fock matrix formation ***
  7   -775.17287724  -0.0085833579  0.000651  0.001406  0.001401  0.000022
  8   -775.17289885  -0.0000216129  0.000280  0.001364  0.001361  0.000023
  9   -775.17290640  -0.0000075501  0.000085  0.000099  0.000361  0.000005
 10   -775.17290680  -0.0000003975  0.000033  0.000068  0.000073  0.000001
 11   -775.17290687  -0.0000000674  0.000008  0.000022  0.000069  0.000001
 12   -775.17290687  -0.0000000052  0.000006  0.000019  0.000061  0.000001
                  ***Gradient check signals convergence***
              ***Rediagonalizing the Fockian in SOSCF/NRSCF***

               *****************************************************
               *                     SUCCESS                       *
               *           SCF CONVERGED AFTER  13 CYCLES          *
               *****************************************************


----------------
TOTAL SCF ENERGY
----------------

Total Energy       :         -775.17290687 Eh          -21093.52717 eV

Components:
Nuclear Repulsion  :          551.91303484 Eh           15018.31719 eV
Electronic Energy  :        -1327.08594171 Eh          -36111.84436 eV
One Electron Energy:        -2156.33680031 Eh          -58676.90741 eV
Two Electron Energy:          829.25085860 Eh           22565.06305 eV

Virial components:
Potential Energy   :        -1549.75725340 Eh          -42171.03880 eV
Kinetic Energy     :          774.58434653 Eh           21077.51163 eV
Virial Ratio       :            2.00075984


---------------
SCF CONVERGENCE
---------------

  Last Energy change         ...    2.2144e-09  Tolerance :   1.0000e-08
  Last MAX-Density change    ...    3.0475e-05  Tolerance :   1.0000e-07
  Last RMS-Density change    ...    4.4122e-07  Tolerance :   5.0000e-09
  Last Orbital Gradient      ...    2.3995e-06  Tolerance :   1.0000e-05
  Last Orbital Rotation      ...    6.5726e-06  Tolerance :   1.0000e-05

             **** THE GBW FILE WAS UPDATED (TZ_1,3-dihydro-2H-benzimidazole-2-thione.gbw) ****
             **** DENSITY TZ_1,3-dihydro-2H-benzimidazole-2-thione.scfp WAS UPDATED ****
             **** ENERGY FILE WAS UPDATED (TZ_1,3-dihydro-2H-benzimidazole-2-thione.en.tmp) ****
             **** THE GBW FILE WAS UPDATED (TZ_1,3-dihydro-2H-benzimidazole-2-thione.gbw) ****
             **** DENSITY TZ_1,3-dihydro-2H-benzimidazole-2-thione.scfp WAS UPDATED ****
----------------
ORBITAL ENERGIES
----------------

  NO   OCC          E(Eh)            E(eV) 
   0   2.0000     -91.895780     -2500.6113 
   1   2.0000     -15.633808      -425.4175 
   2   2.0000     -15.633779      -425.4168 
   3   2.0000     -11.382972      -309.7464 
   4   2.0000     -11.302290      -307.5509 
   5   2.0000     -11.301105      -307.5187 
   6   2.0000     -11.260720      -306.4198 
   7   2.0000     -11.260707      -306.4194 
   8   2.0000     -11.252946      -306.2082 
   9   2.0000     -11.251736      -306.1753 
  10   2.0000      -8.898771      -242.1479 
  11   2.0000      -6.580437      -179.0628 
  12   2.0000      -6.578329      -179.0054 
  13   2.0000      -6.577797      -178.9910 
  14   2.0000      -1.384994       -37.6876 
  15   2.0000      -1.231427       -33.5088 
  16   2.0000      -1.170623       -31.8543 
  17   2.0000      -1.054064       -28.6825 
  18   2.0000      -1.039349       -28.2821 
  19   2.0000      -0.958837       -26.0913 
  20   2.0000      -0.897793       -24.4302 
  21   2.0000      -0.855507       -23.2795 
  22   2.0000      -0.830720       -22.6050 
  23   2.0000      -0.751110       -20.4387 
  24   2.0000      -0.728595       -19.8261 
  25   2.0000      -0.686070       -18.6689 
  26   2.0000      -0.653652       -17.7868 
  27   2.0000      -0.650832       -17.7101 
  28   2.0000      -0.635051       -17.2806 
  29   2.0000      -0.627723       -17.0812 
  30   2.0000      -0.547468       -14.8974 
  31   2.0000      -0.527849       -14.3635 
  32   2.0000      -0.521711       -14.1965 
  33   2.0000      -0.508957       -13.8494 
  34   2.0000      -0.495659       -13.4876 
  35   2.0000      -0.377826       -10.2812 
  36   2.0000      -0.348836        -9.4923 
  37   2.0000      -0.329787        -8.9740 
  38   2.0000      -0.291978        -7.9451 
  39   0.0000       0.021801         0.5932 
  40   0.0000       0.025437         0.6922 
  41   0.0000       0.031853         0.8668 
  42   0.0000       0.043205         1.1757 
  43   0.0000       0.053572         1.4578 
  44   0.0000       0.064948         1.7673 
  45   0.0000       0.070688         1.9235 
  46   0.0000       0.081724         2.2238 
  47   0.0000       0.085064         2.3147 
  48   0.0000       0.086118         2.3434 
  49   0.0000       0.094436         2.5697 
  50   0.0000       0.096324         2.6211 
  51   0.0000       0.098549         2.6817 
  52   0.0000       0.105292         2.8651 
  53   0.0000       0.110940         3.0188 
  54   0.0000       0.113360         3.0847 
  55   0.0000       0.115679         3.1478 
  56   0.0000       0.117350         3.1933 
  57   0.0000       0.121791         3.3141 
  58   0.0000       0.123007         3.3472 
  59   0.0000       0.124426         3.3858 
  60   0.0000       0.135534         3.6881 
  61   0.0000       0.135914         3.6984 
  62   0.0000       0.138062         3.7568 
  63   0.0000       0.141540         3.8515 
  64   0.0000       0.152146         4.1401 
  65   0.0000       0.157887         4.2963 
  66   0.0000       0.161893         4.4053 
  67   0.0000       0.162119         4.4115 
  68   0.0000       0.172203         4.6859 
  69   0.0000       0.174457         4.7472 
  70   0.0000       0.184034         5.0078 
  71   0.0000       0.188249         5.1225 
  72   0.0000       0.198259         5.3949 
  73   0.0000       0.200695         5.4612 
  74   0.0000       0.206479         5.6186 
  75   0.0000       0.211951         5.7675 
  76   0.0000       0.213520         5.8102 
  77   0.0000       0.223274         6.0756 
  78   0.0000       0.225874         6.1463 
  79   0.0000       0.229579         6.2471 
  80   0.0000       0.237915         6.4740 
  81   0.0000       0.247034         6.7221 
  82   0.0000       0.253065         6.8862 
  83   0.0000       0.259946         7.0735 
  84   0.0000       0.269237         7.3263 
  85   0.0000       0.277792         7.5591 
  86   0.0000       0.278820         7.5871 
  87   0.0000       0.289579         7.8798 
  88   0.0000       0.295301         8.0356 
  89   0.0000       0.295733         8.0473 
  90   0.0000       0.309046         8.4096 
  91   0.0000       0.317557         8.6412 
  92   0.0000       0.317580         8.6418 
  93   0.0000       0.321560         8.7501 
  94   0.0000       0.323007         8.7895 
  95   0.0000       0.325589         8.8597 
  96   0.0000       0.330863         9.0032 
  97   0.0000       0.336221         9.1491 
  98   0.0000       0.347518         9.4565 
  99   0.0000       0.351471         9.5640 
 100   0.0000       0.354146         9.6368 
 101   0.0000       0.357797         9.7362 
 102   0.0000       0.365861         9.9556 
 103   0.0000       0.368549        10.0287 
 104   0.0000       0.375310        10.2127 
 105   0.0000       0.377623        10.2757 
 106   0.0000       0.389215        10.5911 
 107   0.0000       0.392457        10.6793 
 108   0.0000       0.395043        10.7497 
 109   0.0000       0.401151        10.9159 
 110   0.0000       0.405139        11.0244 
 111   0.0000       0.405728        11.0404 
 112   0.0000       0.421796        11.4777 
 113   0.0000       0.426946        11.6178 
 114   0.0000       0.428858        11.6698 
 115   0.0000       0.431611        11.7447 
 116   0.0000       0.434236        11.8162 
 117   0.0000       0.442432        12.0392 
 118   0.0000       0.446744        12.1565 
 119   0.0000       0.451027        12.2731 
 120   0.0000       0.453473        12.3396 
 121   0.0000       0.463522        12.6131 
 122   0.0000       0.469706        12.7813 
 123   0.0000       0.480596        13.0777 
 124   0.0000       0.484336        13.1795 
 125   0.0000       0.485720        13.2171 
 126   0.0000       0.487770        13.2729 
 127   0.0000       0.491190        13.3660 
 128   0.0000       0.494848        13.4655 
 129   0.0000       0.494985        13.4692 
 130   0.0000       0.502994        13.6872 
 131   0.0000       0.506553        13.7840 
 132   0.0000       0.506921        13.7940 
 133   0.0000       0.523966        14.2578 
 134   0.0000       0.525182        14.2909 
 135   0.0000       0.535238        14.5646 
 136   0.0000       0.536298        14.5934 
 137   0.0000       0.540077        14.6962 
 138   0.0000       0.544051        14.8044 
 139   0.0000       0.545806        14.8521 
 140   0.0000       0.549508        14.9529 
 141   0.0000       0.561702        15.2847 
 142   0.0000       0.590718        16.0743 
 143   0.0000       0.591015        16.0823 
 144   0.0000       0.596190        16.2232 
 145   0.0000       0.597468        16.2579 
 146   0.0000       0.608618        16.5613 
 147   0.0000       0.613291        16.6885 
 148   0.0000       0.613647        16.6982 
 149   0.0000       0.621168        16.9028 
 150   0.0000       0.629592        17.1321 
 151   0.0000       0.646792        17.6001 
 152   0.0000       0.650896        17.7118 
 153   0.0000       0.664098        18.0710 
 154   0.0000       0.664488        18.0816 
 155   0.0000       0.673693        18.3321 
 156   0.0000       0.681323        18.5398 
 157   0.0000       0.687260        18.7013 
 158   0.0000       0.688056        18.7230 
 159   0.0000       0.695600        18.9282 
 160   0.0000       0.701135        19.0788 
 161   0.0000       0.715263        19.4633 
 162   0.0000       0.715489        19.4695 
 163   0.0000       0.726161        19.7599 
 164   0.0000       0.737605        20.0712 
 165   0.0000       0.737615        20.0715 
 166   0.0000       0.749951        20.4072 
 167   0.0000       0.757781        20.6203 
 168   0.0000       0.765769        20.8376 
 169   0.0000       0.774095        21.0642 
 170   0.0000       0.775451        21.1011 
 171   0.0000       0.790329        21.5059 
 172   0.0000       0.795318        21.6417 
 173   0.0000       0.799398        21.7527 
 174   0.0000       0.800791        21.7906 
 175   0.0000       0.815166        22.1818 
 176   0.0000       0.829638        22.5756 
 177   0.0000       0.837720        22.7955 
 178   0.0000       0.838240        22.8097 
 179   0.0000       0.850170        23.1343 
 180   0.0000       0.853809        23.2333 
 181   0.0000       0.854483        23.2517 
 182   0.0000       0.855833        23.2884 
 183   0.0000       0.857741        23.3403 
 184   0.0000       0.863830        23.5060 
 185   0.0000       0.867935        23.6177 
 186   0.0000       0.881582        23.9891 
 187   0.0000       0.885955        24.1081 
 188   0.0000       0.889047        24.1922 
 189   0.0000       0.891225        24.2515 
 190   0.0000       0.904919        24.6241 
 191   0.0000       0.909166        24.7397 
 192   0.0000       0.920079        25.0366 
 193   0.0000       0.930430        25.3183 
 194   0.0000       0.930682        25.3251 
 195   0.0000       0.940238        25.5852 
 196   0.0000       0.952071        25.9072 
 197   0.0000       0.953035        25.9334 
 198   0.0000       0.955624        26.0038 
 199   0.0000       0.965314        26.2675 
 200   0.0000       0.971859        26.4456 
 201   0.0000       0.975900        26.5556 
 202   0.0000       0.990909        26.9640 
 203   0.0000       0.996343        27.1119 
 204   0.0000       0.997684        27.1484 
 205   0.0000       1.002927        27.2910 
 206   0.0000       1.010670        27.5017 
 207   0.0000       1.015607        27.6361 
 208   0.0000       1.023545        27.8521 
 209   0.0000       1.028489        27.9866 
 210   0.0000       1.040343        28.3092 
 211   0.0000       1.045227        28.4421 
 212   0.0000       1.055743        28.7282 
 213   0.0000       1.056909        28.7600 
 214   0.0000       1.068679        29.0802 
 215   0.0000       1.069693        29.1078 
 216   0.0000       1.070817        29.1384 
 217   0.0000       1.075591        29.2683 
 218   0.0000       1.078470        29.3467 
 219   0.0000       1.098798        29.8998 
 220   0.0000       1.100059        29.9341 
 221   0.0000       1.103357        30.0239 
 222   0.0000       1.104263        30.0485 
 223   0.0000       1.112020        30.2596 
 224   0.0000       1.126148        30.6440 
 225   0.0000       1.126572        30.6556 
 226   0.0000       1.133613        30.8472 
 227   0.0000       1.134076        30.8598 
 228   0.0000       1.153476        31.3877 
 229   0.0000       1.153609        31.3913 
 230   0.0000       1.159460        31.5505 
 231   0.0000       1.172920        31.9168 
 232   0.0000       1.173598        31.9352 
 233   0.0000       1.177077        32.0299 
 234   0.0000       1.185379        32.2558 
 235   0.0000       1.194825        32.5128 
 236   0.0000       1.195003        32.5177 
 237   0.0000       1.211734        32.9730 
 238   0.0000       1.224016        33.3072 
 239   0.0000       1.225752        33.3544 
 240   0.0000       1.238239        33.6942 
 241   0.0000       1.243404        33.8347 
 242   0.0000       1.248978        33.9864 
 243   0.0000       1.251617        34.0582 
 244   0.0000       1.273542        34.6548 
 245   0.0000       1.287182        35.0260 
 246   0.0000       1.288711        35.0676 
 247   0.0000       1.296978        35.2926 
 248   0.0000       1.312422        35.7128 
 249   0.0000       1.317425        35.8490 
 250   0.0000       1.328825        36.1592 
 251   0.0000       1.333965        36.2990 
 252   0.0000       1.339053        36.4375 
 253   0.0000       1.345473        36.6122 
 254   0.0000       1.351397        36.7734 
 255   0.0000       1.366846        37.1938 
 256   0.0000       1.370251        37.2864 
 257   0.0000       1.370670        37.2978 
 258   0.0000       1.391250        37.8578 
 259   0.0000       1.392782        37.8995 
 260   0.0000       1.406246        38.2659 
 261   0.0000       1.409828        38.3634 
 262   0.0000       1.414999        38.5041 
 263   0.0000       1.416953        38.5573 
 264   0.0000       1.433472        39.0068 
 265   0.0000       1.439426        39.1688 
 266   0.0000       1.445671        39.3387 
 267   0.0000       1.461573        39.7714 
 268   0.0000       1.465283        39.8724 
 269   0.0000       1.467788        39.9406 
 270   0.0000       1.477799        40.2130 
 271   0.0000       1.487474        40.4762 
 272   0.0000       1.506086        40.9827 
 273   0.0000       1.516806        41.2744 
 274   0.0000       1.520611        41.3779 
 275   0.0000       1.532929        41.7131 
 276   0.0000       1.540304        41.9138 
 277   0.0000       1.542279        41.9675 
 278   0.0000       1.558338        42.4045 
 279   0.0000       1.559003        42.4226 
 280   0.0000       1.572239        42.7828 
 281   0.0000       1.593463        43.3603 
 282   0.0000       1.598768        43.5047 
 283   0.0000       1.622287        44.1447 
 284   0.0000       1.624965        44.2175 
 285   0.0000       1.628691        44.3189 
 286   0.0000       1.654387        45.0182 
 287   0.0000       1.655410        45.0460 
 288   0.0000       1.668778        45.4098 
 289   0.0000       1.669287        45.4236 
 290   0.0000       1.676367        45.6163 
 291   0.0000       1.676474        45.6192 
 292   0.0000       1.692701        46.0607 
 293   0.0000       1.720571        46.8191 
 294   0.0000       1.737605        47.2826 
 295   0.0000       1.743912        47.4543 
 296   0.0000       1.754720        47.7484 
 297   0.0000       1.762154        47.9506 
 298   0.0000       1.776906        48.3521 
 299   0.0000       1.795550        48.8594 
 300   0.0000       1.805957        49.1426 
 301   0.0000       1.813417        49.3456 
 302   0.0000       1.835842        49.9558 
 303   0.0000       1.852638        50.4128 
 304   0.0000       1.874375        51.0043 
 305   0.0000       1.881384        51.1951 
 306   0.0000       1.883852        51.2622 
 307   0.0000       1.892971        51.5104 
 308   0.0000       1.895840        51.5884 
 309   0.0000       1.899034        51.6753 
 310   0.0000       1.911531        52.0154 
 311   0.0000       1.915497        52.1233 
 312   0.0000       1.922121        52.3036 
 313   0.0000       1.945453        52.9385 
 314   0.0000       1.960733        53.3543 
 315   0.0000       1.983829        53.9827 
 316   0.0000       1.991448        54.1900 
 317   0.0000       1.998754        54.3889 
 318   0.0000       2.005826        54.5813 
 319   0.0000       2.009943        54.6933 
 320   0.0000       2.019469        54.9525 
 321   0.0000       2.030100        55.2418 
 322   0.0000       2.044520        55.6342 
 323   0.0000       2.071138        56.3585 
 324   0.0000       2.073927        56.4344 
 325   0.0000       2.089971        56.8710 
 326   0.0000       2.101643        57.1886 
 327   0.0000       2.114726        57.5446 
 328   0.0000       2.126464        57.8640 
 329   0.0000       2.126715        57.8709 
 330   0.0000       2.148153        58.4542 
 331   0.0000       2.149393        58.4880 
 332   0.0000       2.160428        58.7882 
 333   0.0000       2.163986        58.8851 
 334   0.0000       2.167412        58.9783 
 335   0.0000       2.173528        59.1447 
 336   0.0000       2.175214        59.1906 
 337   0.0000       2.230288        60.6892 
 338   0.0000       2.239089        60.9287 
 339   0.0000       2.242636        61.0252 
 340   0.0000       2.248130        61.1747 
 341   0.0000       2.269490        61.7560 
 342   0.0000       2.270976        61.7964 
 343   0.0000       2.274183        61.8837 
 344   0.0000       2.280683        62.0605 
 345   0.0000       2.290596        62.3303 
 346   0.0000       2.292367        62.3785 
 347   0.0000       2.317967        63.0751 
 348   0.0000       2.322243        63.1914 
 349   0.0000       2.324353        63.2489 
 350   0.0000       2.333730        63.5040 
 351   0.0000       2.363015        64.3009 
 352   0.0000       2.382001        64.8176 
 353   0.0000       2.383232        64.8510 
 354   0.0000       2.397858        65.2490 
 355   0.0000       2.418588        65.8131 
 356   0.0000       2.450674        66.6862 
 357   0.0000       2.467652        67.1482 
 358   0.0000       2.467926        67.1557 
 359   0.0000       2.472568        67.2820 
 360   0.0000       2.479944        67.4827 
 361   0.0000       2.485200        67.6257 
 362   0.0000       2.510690        68.3193 
 363   0.0000       2.512618        68.3718 
 364   0.0000       2.537612        69.0519 
 365   0.0000       2.553642        69.4881 
 366   0.0000       2.566858        69.8478 
 367   0.0000       2.567374        69.8618 
 368   0.0000       2.597704        70.6871 
 369   0.0000       2.606845        70.9359 
 370   0.0000       2.610993        71.0487 
 371   0.0000       2.626087        71.4595 
 372   0.0000       2.631732        71.6131 
 373   0.0000       2.662605        72.4532 
 374   0.0000       2.697601        73.4055 
 375   0.0000       2.705733        73.6267 
 376   0.0000       2.724053        74.1253 
 377   0.0000       2.725277        74.1586 
 378   0.0000       2.728338        74.2418 
 379   0.0000       2.737120        74.4808 
 380   0.0000       2.768575        75.3367 
 381   0.0000       2.782739        75.7222 
 382   0.0000       2.786196        75.8162 
 383   0.0000       2.807526        76.3967 
 384   0.0000       2.835890        77.1685 
 385   0.0000       2.850018        77.5529 
 386   0.0000       2.883817        78.4727 
 387   0.0000       2.892562        78.7106 
 388   0.0000       2.969328        80.7995 
 389   0.0000       2.978710        81.0548 
 390   0.0000       2.980723        81.1096 
 391   0.0000       3.024783        82.3085 
 392   0.0000       3.039063        82.6971 
 393   0.0000       3.047991        82.9400 
 394   0.0000       3.073170        83.6252 
 395   0.0000       3.149502        85.7023 
 396   0.0000       3.154348        85.8342 
 397   0.0000       3.166267        86.1585 
 398   0.0000       3.194698        86.9322 
 399   0.0000       3.220500        87.6343 
 400   0.0000       3.231133        87.9236 
 401   0.0000       3.280566        89.2687 
 402   0.0000       3.288006        89.4712 
 403   0.0000       3.292447        89.5920 
 404   0.0000       3.306698        89.9798 
 405   0.0000       3.339822        90.8812 
 406   0.0000       3.340713        90.9054 
 407   0.0000       3.358776        91.3970 
 408   0.0000       3.364844        91.5621 
 409   0.0000       3.373474        91.7969 
 410   0.0000       3.398257        92.4713 
 411   0.0000       3.400131        92.5223 
 412   0.0000       3.427133        93.2570 
 413   0.0000       3.448116        93.8280 
 414   0.0000       3.464145        94.2642 
 415   0.0000       3.473303        94.5134 
 416   0.0000       3.498299        95.1936 
 417   0.0000       3.527446        95.9867 
 418   0.0000       3.529333        96.0380 
 419   0.0000       3.534580        96.1808 
 420   0.0000       3.535094        96.1948 
 421   0.0000       3.545048        96.4657 
 422   0.0000       3.553851        96.7052 
 423   0.0000       3.581660        97.4619 
 424   0.0000       3.589543        97.6764 
 425   0.0000       3.598353        97.9162 
 426   0.0000       3.608119        98.1819 
 427   0.0000       3.613040        98.3158 
 428   0.0000       3.662669        99.6663 
 429   0.0000       3.692870       100.4881 
 430   0.0000       3.693555       100.5067 
 431   0.0000       3.719409       101.2103 
 432   0.0000       3.725512       101.3763 
 433   0.0000       3.742152       101.8291 
 434   0.0000       3.753551       102.1393 
 435   0.0000       3.760224       102.3209 
 436   0.0000       3.760915       102.3397 
 437   0.0000       3.772488       102.6546 
 438   0.0000       3.802860       103.4811 
 439   0.0000       3.813781       103.7783 
 440   0.0000       3.825314       104.0921 
 441   0.0000       3.843854       104.5966 
 442   0.0000       3.848396       104.7202 
 443   0.0000       3.849429       104.7483 
 444   0.0000       3.856713       104.9465 
 445   0.0000       3.873935       105.4151 
 446   0.0000       3.882573       105.6502 
 447   0.0000       3.923084       106.7525 
 448   0.0000       3.928105       106.8892 
 449   0.0000       3.931006       106.9681 
 450   0.0000       3.933213       107.0282 
 451   0.0000       3.972639       108.1010 
 452   0.0000       3.979887       108.2982 
 453   0.0000       3.995637       108.7268 
 454   0.0000       3.996423       108.7482 
 455   0.0000       4.000476       108.8585 
 456   0.0000       4.006783       109.0301 
 457   0.0000       4.021585       109.4329 
 458   0.0000       4.051562       110.2486 
 459   0.0000       4.054715       110.3344 
 460   0.0000       4.070458       110.7628 
 461   0.0000       4.106257       111.7369 
 462   0.0000       4.116156       112.0063 
 463   0.0000       4.120899       112.1354 
 464   0.0000       4.142052       112.7110 
 465   0.0000       4.144941       112.7896 
 466   0.0000       4.156504       113.1042 
 467   0.0000       4.166684       113.3812 
 468   0.0000       4.192818       114.0924 
 469   0.0000       4.224925       114.9660 
 470   0.0000       4.234525       115.2273 
 471   0.0000       4.243806       115.4798 
 472   0.0000       4.249644       115.6387 
 473   0.0000       4.263662       116.0201 
 474   0.0000       4.267213       116.1168 
 475   0.0000       4.270760       116.2133 
 476   0.0000       4.293016       116.8189 
 477   0.0000       4.293778       116.8396 
 478   0.0000       4.313232       117.3690 
 479   0.0000       4.320262       117.5603 
 480   0.0000       4.324740       117.6822 
 481   0.0000       4.346709       118.2800 
 482   0.0000       4.349742       118.3625 
 483   0.0000       4.356848       118.5559 
 484   0.0000       4.392996       119.5395 
 485   0.0000       4.398859       119.6990 
 486   0.0000       4.405390       119.8767 
 487   0.0000       4.409061       119.9767 
 488   0.0000       4.429944       120.5449 
 489   0.0000       4.456229       121.2602 
 490   0.0000       4.461047       121.3912 
 491   0.0000       4.463398       121.4552 
 492   0.0000       4.492875       122.2573 
 493   0.0000       4.497424       122.3811 
 494   0.0000       4.528462       123.2257 
 495   0.0000       4.538601       123.5016 
 496   0.0000       4.568820       124.3239 
 497   0.0000       4.581392       124.6660 
 498   0.0000       4.600593       125.1885 
 499   0.0000       4.601175       125.2043 
 500   0.0000       4.603097       125.2566 
 501   0.0000       4.629210       125.9672 
 502   0.0000       4.702447       127.9601 
 503   0.0000       4.706589       128.0728 
 504   0.0000       4.723270       128.5267 
 505   0.0000       4.726909       128.6257 
 506   0.0000       4.727697       128.6472 
 507   0.0000       4.744751       129.1112 
 508   0.0000       4.775744       129.9546 
 509   0.0000       4.789078       130.3174 
 510   0.0000       4.807384       130.8156 
 511   0.0000       4.808353       130.8419 
 512   0.0000       4.880951       132.8174 
 513   0.0000       4.895825       133.2222 
 514   0.0000       4.901134       133.3666 
 515   0.0000       4.940508       134.4381 
 516   0.0000       4.946575       134.6032 
 517   0.0000       4.962259       135.0299 
 518   0.0000       4.989375       135.7678 
 519   0.0000       4.999911       136.0545 
 520   0.0000       5.047094       137.3384 
 521   0.0000       5.085776       138.3910 
 522   0.0000       5.092165       138.5649 
 523   0.0000       5.107249       138.9753 
 524   0.0000       5.111103       139.0802 
 525   0.0000       5.118184       139.2729 
 526   0.0000       5.149668       140.1296 
 527   0.0000       5.155720       140.2943 
 528   0.0000       5.174040       140.7928 
 529   0.0000       5.192111       141.2845 
 530   0.0000       5.206326       141.6713 
 531   0.0000       5.211349       141.8080 
 532   0.0000       5.226607       142.2232 
 533   0.0000       5.245862       142.7472 
 534   0.0000       5.256259       143.0301 
 535   0.0000       5.290097       143.9508 
 536   0.0000       5.297872       144.1624 
 537   0.0000       5.345534       145.4594 
 538   0.0000       5.360995       145.8801 
 539   0.0000       5.362484       145.9206 
 540   0.0000       5.423914       147.5922 
 541   0.0000       5.451109       148.3322 
 542   0.0000       5.453846       148.4067 
 543   0.0000       5.463053       148.6572 
 544   0.0000       5.508617       149.8971 
 545   0.0000       5.518400       150.1633 
 546   0.0000       5.527663       150.4154 
 547   0.0000       5.565776       151.4525 
 548   0.0000       5.619913       152.9256 
 549   0.0000       5.643904       153.5784 
 550   0.0000       5.660642       154.0339 
 551   0.0000       5.662417       154.0822 
 552   0.0000       5.662439       154.0828 
 553   0.0000       5.688940       154.8039 
 554   0.0000       5.732802       155.9975 
 555   0.0000       5.764986       156.8732 
 556   0.0000       5.806031       157.9901 
 557   0.0000       5.818474       158.3287 
 558   0.0000       5.839338       158.8965 
 559   0.0000       5.922756       161.1664 
 560   0.0000       5.924874       161.2240 
 561   0.0000       5.925772       161.2485 
 562   0.0000       5.927116       161.2850 
 563   0.0000       6.061170       164.9328 
 564   0.0000       6.091434       165.7564 
 565   0.0000       6.127328       166.7331 
 566   0.0000       6.150810       167.3721 
 567   0.0000       6.196073       168.6037 
 568   0.0000       6.196843       168.6247 
 569   0.0000       6.212644       169.0546 
 570   0.0000       6.259699       170.3351 
 571   0.0000       6.274089       170.7266 
 572   0.0000       6.362994       173.1459 
 573   0.0000       6.372013       173.3913 
 574   0.0000       6.453136       175.5988 
 575   0.0000       6.511334       177.1824 
 576   0.0000       6.571035       178.8069 
 577   0.0000       6.637166       180.6065 
 578   0.0000       6.643495       180.7787 
 579   0.0000       6.734720       183.2611 
 580   0.0000       6.791476       184.8055 
 581   0.0000       6.805294       185.1815 
 582   0.0000       6.885604       187.3668 
 583   0.0000       6.957918       189.3346 
 584   0.0000       6.969778       189.6573 
 585   0.0000       7.064569       192.2367 
 586   0.0000       7.067893       192.3271 
 587   0.0000       7.163261       194.9222 
 588   0.0000       7.251554       197.3248 
 589   0.0000       7.297965       198.5877 
 590   0.0000       7.586353       206.4352 
 591   0.0000       7.814721       212.6494 
 592   0.0000       7.916696       215.4242 
 593   0.0000      15.812638       430.2837 
 594   0.0000      16.555588       450.5005 
 595   0.0000      16.620112       452.2562 
 596   0.0000      18.500553       503.4256 
 597   0.0000      18.776714       510.9404 
 598   0.0000      19.307577       525.3859 
 599   0.0000      19.956077       543.0325 
 600   0.0000      20.102254       547.0101 
 601   0.0000      20.627192       561.2944 

                    ********************************
                    * MULLIKEN POPULATION ANALYSIS *
                    ********************************

-----------------------
MULLIKEN ATOMIC CHARGES
-----------------------
   0 N :   -0.072846
   1 C :   -0.323383
   2 S :   -0.682953
   3 C :    1.252032
   4 C :   -1.210214
   5 C :   -0.460999
   6 C :   -0.460990
   7 C :   -1.210229
   8 C :    1.252025
   9 N :   -0.072848
  10 H :    0.069556
  11 H :    0.385732
  12 H :    0.539910
  13 H :    0.539909
  14 H :    0.385739
  15 H :    0.069558
Sum of atomic charges:    0.0000000

--------------------------------
MULLIKEN REDUCED ORBITAL CHARGES
--------------------------------
  0 N s       :     3.564922  s :     3.564922
      pz      :     0.890443  p :     3.445093
      px      :     1.556560
      py      :     0.998089
      dz2     :     0.017109  d :     0.057376
      dxz     :     0.028068
      dyz     :     0.026510
      dx2y2   :    -0.026037
      dxy     :     0.011726
      f0      :    -0.002015  f :     0.005456
      f+1     :     0.001203
      f-1     :     0.002460
      f+2     :    -0.001113
      f-2     :     0.001031
      f+3     :     0.001458
      f-3     :     0.002430
  1 C s       :     3.651235  s :     3.651235
      pz      :     0.922227  p :     2.586296
      px      :     0.708875
      py      :     0.955194
      dz2     :     0.033314  d :     0.049736
      dxz     :     0.070850
      dyz     :    -0.113586
      dx2y2   :     0.003287
      dxy     :     0.055871
      f0      :    -0.014222  f :     0.036116
      f+1     :     0.003048
      f-1     :     0.031678
      f+2     :    -0.002180
      f-2     :     0.011626
      f+3     :     0.005703
      f-3     :     0.000464
  2 S s       :     5.993565  s :     5.993565
      pz      :     2.959897  p :    10.579131
      px      :     3.646919
      py      :     3.972314
      dz2     :     0.059089  d :     0.097547
      dxz     :     0.024873
      dyz     :     0.013537
      dx2y2   :     0.000277
      dxy     :    -0.000229
      f0      :     0.006655  f :     0.012709
      f+1     :     0.004047
      f-1     :     0.002461
      f+2     :    -0.000400
      f-2     :    -0.000020
      f+3     :    -0.000053
      f-3     :     0.000018
  3 C s       :     3.053477  s :     3.053477
      pz      :     0.332012  p :     1.878646
      px      :     0.929382
      py      :     0.617252
      dz2     :    -0.160588  d :    -0.131331
      dxz     :     0.002464
      dyz     :     0.066363
      dx2y2   :    -0.026359
      dxy     :    -0.013212
      f0      :    -0.022545  f :    -0.052824
      f+1     :     0.009076
      f-1     :    -0.017765
      f+2     :    -0.020252
      f-2     :    -0.002100
      f+3     :     0.002140
      f-3     :    -0.001378
  4 C s       :     3.910854  s :     3.910854
      pz      :     0.975513  p :     3.153985
      px      :     1.048753
      py      :     1.129719
      dz2     :     0.031341  d :     0.173677
      dxz     :     0.023863
      dyz     :     0.048659
      dx2y2   :     0.056365
      dxy     :     0.013449
      f0      :    -0.022485  f :    -0.028302
      f+1     :     0.001300
      f-1     :    -0.002943
      f+2     :    -0.010098
      f-2     :     0.000973
      f+3     :     0.001012
      f-3     :     0.003940
  5 C s       :     3.268985  s :     3.268985
      pz      :     1.088637  p :     3.147570
      px      :     0.972696
      py      :     1.086237
      dz2     :     0.052205  d :     0.054836
      dxz     :     0.010560
      dyz     :    -0.064161
      dx2y2   :     0.025923
      dxy     :     0.030310
      f0      :    -0.009077  f :    -0.010391
      f+1     :     0.001245
      f-1     :     0.000752
      f+2     :    -0.004274
      f-2     :     0.000187
      f+3     :     0.001806
      f-3     :    -0.001030
  6 C s       :     3.268983  s :     3.268983
      pz      :     1.088638  p :     3.147570
      px      :     0.972696
      py      :     1.086236
      dz2     :     0.052201  d :     0.054828
      dxz     :     0.010560
      dyz     :    -0.064165
      dx2y2   :     0.025923
      dxy     :     0.030310
      f0      :    -0.009077  f :    -0.010391
      f+1     :     0.001245
      f-1     :     0.000752
      f+2     :    -0.004274
      f-2     :     0.000187
      f+3     :     0.001806
      f-3     :    -0.001030
  7 C s       :     3.910864  s :     3.910864
      pz      :     0.975516  p :     3.153989
      px      :     1.048753
      py      :     1.129721
      dz2     :     0.031339  d :     0.173678
      dxz     :     0.023863
      dyz     :     0.048660
      dx2y2   :     0.056367
      dxy     :     0.013449
      f0      :    -0.022485  f :    -0.028302
      f+1     :     0.001300
      f-1     :    -0.002943
      f+2     :    -0.010098
      f-2     :     0.000973
      f+3     :     0.001012
      f-3     :     0.003940
  8 C s       :     3.053478  s :     3.053478
      pz      :     0.332005  p :     1.878646
      px      :     0.929382
      py      :     0.617259
      dz2     :    -0.160581  d :    -0.131325
      dxz     :     0.002464
      dyz     :     0.066362
      dx2y2   :    -0.026359
      dxy     :    -0.013212
      f0      :    -0.022544  f :    -0.052824
      f+1     :     0.009076
      f-1     :    -0.017765
      f+2     :    -0.020252
      f-2     :    -0.002100
      f+3     :     0.002140
      f-3     :    -0.001378
  9 N s       :     3.564926  s :     3.564926
      pz      :     0.890442  p :     3.445090
      px      :     1.556560
      py      :     0.998088
      dz2     :     0.017110  d :     0.057377
      dxz     :     0.028068
      dyz     :     0.026511
      dx2y2   :    -0.026037
      dxy     :     0.011726
      f0      :    -0.002015  f :     0.005456
      f+1     :     0.001203
      f-1     :     0.002460
      f+2     :    -0.001113
      f-2     :     0.001031
      f+3     :     0.001458
      f-3     :     0.002430
 10 H s       :     0.823283  s :     0.823283
      pz      :     0.026360  p :     0.080346
      px      :     0.044394
      py      :     0.009593
      dz2     :     0.002359  d :     0.026814
      dxz     :     0.001369
      dyz     :     0.006467
      dx2y2   :     0.005517
      dxy     :     0.011103
 11 H s       :     0.571166  s :     0.571166
      pz      :     0.012934  p :     0.039740
      px      :     0.018757
      py      :     0.008049
      dz2     :     0.001208  d :     0.003362
      dxz     :    -0.000033
      dyz     :    -0.000144
      dx2y2   :    -0.001949
      dxy     :     0.004281
 12 H s       :     0.459771  s :     0.459771
      pz      :    -0.029052  p :    -0.004635
      px      :     0.016672
      py      :     0.007745
      dz2     :     0.000823  d :     0.004954
      dxz     :     0.002909
      dyz     :     0.001104
      dx2y2   :    -0.000726
      dxy     :     0.000845
 13 H s       :     0.459773  s :     0.459773
      pz      :    -0.029052  p :    -0.004636
      px      :     0.016672
      py      :     0.007744
      dz2     :     0.000823  d :     0.004954
      dxz     :     0.002909
      dyz     :     0.001104
      dx2y2   :    -0.000726
      dxy     :     0.000845
 14 H s       :     0.571161  s :     0.571161
      pz      :     0.012934  p :     0.039738
      px      :     0.018757
      py      :     0.008047
      dz2     :     0.001208  d :     0.003362
      dxz     :    -0.000033
      dyz     :    -0.000144
      dx2y2   :    -0.001949
      dxy     :     0.004281
 15 H s       :     0.823281  s :     0.823281
      pz      :     0.026360  p :     0.080346
      px      :     0.044394
      py      :     0.009593
      dz2     :     0.002359  d :     0.026814
      dxz     :     0.001369
      dyz     :     0.006467
      dx2y2   :     0.005517
      dxy     :     0.011103


                     *******************************
                     * LOEWDIN POPULATION ANALYSIS *
                     *******************************

----------------------
LOEWDIN ATOMIC CHARGES
----------------------
   0 N :    0.507195
   1 C :   -1.036421
   2 S :    0.803147
   3 C :   -0.202914
   4 C :    0.245775
   5 C :    0.191965
   6 C :    0.191965
   7 C :    0.245775
   8 C :   -0.202914
   9 N :    0.507195
  10 H :   -0.260470
  11 H :   -0.177015
  12 H :   -0.187899
  13 H :   -0.187899
  14 H :   -0.177015
  15 H :   -0.260470

-------------------------------
LOEWDIN REDUCED ORBITAL CHARGES
-------------------------------
  0 N s       :     2.618545  s :     2.618545
      pz      :     0.981460  p :     2.998597
      px      :     1.045172
      py      :     0.971966
      dz2     :     0.185341  d :     0.629432
      dxz     :     0.117604
      dyz     :     0.197552
      dx2y2   :     0.084014
      dxy     :     0.044921
      f0      :     0.046786  f :     0.246230
      f+1     :     0.030331
      f-1     :     0.078331
      f+2     :     0.032816
      f-2     :     0.027507
      f+3     :     0.011009
      f-3     :     0.019452
  1 C s       :     2.523898  s :     2.523898
      pz      :     0.992191  p :     2.309522
      px      :     0.547160
      py      :     0.770170
      dz2     :     0.369586  d :     1.473902
      dxz     :     0.349255
      dyz     :     0.458016
      dx2y2   :     0.131287
      dxy     :     0.165757
      f0      :     0.116357  f :     0.729099
      f+1     :     0.094376
      f-1     :     0.263887
      f+2     :     0.059515
      f-2     :     0.106748
      f+3     :     0.044682
      f-3     :     0.043535
  2 S s       :     5.220539  s :     5.220539
      pz      :     2.967224  p :     9.636463
      px      :     3.275887
      py      :     3.393352
      dz2     :     0.122785  d :     0.230341
      dxz     :     0.042786
      dyz     :     0.059004
      dx2y2   :     0.002630
      dxy     :     0.003136
      f0      :     0.040983  f :     0.109511
      f+1     :     0.024475
      f-1     :     0.036932
      f+2     :     0.002894
      f-2     :     0.004102
      f+3     :     0.000034
      f-3     :     0.000089
  3 C s       :     2.431871  s :     2.431871
      pz      :     0.777957  p :     2.184570
      px      :     0.601182
      py      :     0.805432
      dz2     :     0.257478  d :     0.987921
      dxz     :     0.198062
      dyz     :     0.291876
      dx2y2   :     0.120976
      dxy     :     0.119529
      f0      :     0.157349  f :     0.598552
      f+1     :     0.099427
      f-1     :     0.113163
      f+2     :     0.091652
      f-2     :     0.059698
      f+3     :     0.041547
      f-3     :     0.035716
  4 C s       :     2.478974  s :     2.478974
      pz      :     0.833113  p :     2.273271
      px      :     0.609038
      py      :     0.831119
      dz2     :     0.232009  d :     0.673011
      dxz     :     0.133515
      dyz     :     0.171112
      dx2y2   :     0.096726
      dxy     :     0.039648
      f0      :     0.101868  f :     0.328970
      f+1     :     0.026895
      f-1     :     0.058985
      f+2     :     0.054158
      f-2     :     0.063156
      f+3     :     0.006510
      f-3     :     0.017397
  5 C s       :     2.480891  s :     2.480891
      pz      :     0.827778  p :     2.271745
      px      :     0.596332
      py      :     0.847636
      dz2     :     0.155811  d :     0.715866
      dxz     :     0.068309
      dyz     :     0.260998
      dx2y2   :     0.116759
      dxy     :     0.113989
      f0      :     0.085975  f :     0.339532
      f+1     :     0.034374
      f-1     :     0.051498
      f+2     :     0.073852
      f-2     :     0.025339
      f+3     :     0.034834
      f-3     :     0.033660
  6 C s       :     2.480891  s :     2.480891
      pz      :     0.827778  p :     2.271745
      px      :     0.596332
      py      :     0.847636
      dz2     :     0.155811  d :     0.715866
      dxz     :     0.068309
      dyz     :     0.260998
      dx2y2   :     0.116759
      dxy     :     0.113989
      f0      :     0.085975  f :     0.339532
      f+1     :     0.034374
      f-1     :     0.051498
      f+2     :     0.073852
      f-2     :     0.025339
      f+3     :     0.034834
      f-3     :     0.033660
  7 C s       :     2.478974  s :     2.478974
      pz      :     0.833113  p :     2.273271
      px      :     0.609038
      py      :     0.831119
      dz2     :     0.232009  d :     0.673011
      dxz     :     0.133515
      dyz     :     0.171112
      dx2y2   :     0.096726
      dxy     :     0.039648
      f0      :     0.101868  f :     0.328970
      f+1     :     0.026895
      f-1     :     0.058985
      f+2     :     0.054158
      f-2     :     0.063156
      f+3     :     0.006510
      f-3     :     0.017397
  8 C s       :     2.431871  s :     2.431871
      pz      :     0.777957  p :     2.184570
      px      :     0.601182
      py      :     0.805432
      dz2     :     0.257478  d :     0.987921
      dxz     :     0.198062
      dyz     :     0.291876
      dx2y2   :     0.120976
      dxy     :     0.119529
      f0      :     0.157349  f :     0.598552
      f+1     :     0.099427
      f-1     :     0.113163
      f+2     :     0.091652
      f-2     :     0.059698
      f+3     :     0.041547
      f-3     :     0.035716
  9 N s       :     2.618545  s :     2.618545
      pz      :     0.981460  p :     2.998597
      px      :     1.045172
      py      :     0.971966
      dz2     :     0.185341  d :     0.629432
      dxz     :     0.117604
      dyz     :     0.197552
      dx2y2   :     0.084014
      dxy     :     0.044921
      f0      :     0.046786  f :     0.246230
      f+1     :     0.030331
      f-1     :     0.078331
      f+2     :     0.032816
      f-2     :     0.027507
      f+3     :     0.011009
      f-3     :     0.019452
 10 H s       :     0.592970  s :     0.592970
      pz      :     0.099935  p :     0.386268
      px      :     0.120382
      py      :     0.165950
      dz2     :     0.040741  d :     0.281232
      dxz     :     0.014492
      dyz     :     0.080439
      dx2y2   :     0.061448
      dxy     :     0.084111
 11 H s       :     0.671624  s :     0.671624
      pz      :     0.069212  p :     0.293263
      px      :     0.085444
      py      :     0.138607
      dz2     :     0.014838  d :     0.212128
      dxz     :     0.004043
      dyz     :     0.081020
      dx2y2   :     0.051025
      dxy     :     0.061202
 12 H s       :     0.671073  s :     0.671073
      pz      :     0.123337  p :     0.301784
      px      :     0.088262
      py      :     0.090185
      dz2     :     0.071877  d :     0.215041
      dxz     :     0.047024
      dyz     :     0.054462
      dx2y2   :     0.023766
      dxy     :     0.017913
 13 H s       :     0.671073  s :     0.671073
      pz      :     0.123337  p :     0.301784
      px      :     0.088262
      py      :     0.090185
      dz2     :     0.071877  d :     0.215041
      dxz     :     0.047024
      dyz     :     0.054462
      dx2y2   :     0.023766
      dxy     :     0.017913
 14 H s       :     0.671624  s :     0.671624
      pz      :     0.069212  p :     0.293263
      px      :     0.085444
      py      :     0.138607
      dz2     :     0.014838  d :     0.212128
      dxz     :     0.004043
      dyz     :     0.081020
      dx2y2   :     0.051025
      dxy     :     0.061202
 15 H s       :     0.592970  s :     0.592970
      pz      :     0.099935  p :     0.386268
      px      :     0.120382
      py      :     0.165950
      dz2     :     0.040741  d :     0.281232
      dxz     :     0.014492
      dyz     :     0.080439
      dx2y2   :     0.061448
      dxy     :     0.084111


                      *****************************
                      * MAYER POPULATION ANALYSIS *
                      *****************************

  NA   - Mulliken gross atomic population
  ZA   - Total nuclear charge
  QA   - Mulliken gross atomic charge
  VA   - Mayer's total valence
  BVA  - Mayer's bonded valence
  FA   - Mayer's free valence

  ATOM       NA         ZA         QA         VA         BVA        FA
  0 N      7.0728     7.0000    -0.0728     2.5773     2.5773     0.0000
  1 C      6.3234     6.0000    -0.3234     3.6947     3.6947     0.0000
  2 S     16.6830    16.0000    -0.6830     1.5111     1.5111     0.0000
  3 C      4.7480     6.0000     1.2520     1.7631     1.7631    -0.0000
  4 C      7.2102     6.0000    -1.2102     2.9443     2.9443     0.0000
  5 C      6.4610     6.0000    -0.4610     3.0581     3.0581    -0.0000
  6 C      6.4610     6.0000    -0.4610     3.0580     3.0580     0.0000
  7 C      7.2102     6.0000    -1.2102     2.9443     2.9443     0.0000
  8 C      4.7480     6.0000     1.2520     1.7631     1.7631    -0.0000
  9 N      7.0728     7.0000    -0.0728     2.5773     2.5773     0.0000
 10 H      0.9304     1.0000     0.0696     1.0583     1.0583     0.0000
 11 H      0.6143     1.0000     0.3857     0.9482     0.9482    -0.0000
 12 H      0.4601     1.0000     0.5399     0.5291     0.5291    -0.0000
 13 H      0.4601     1.0000     0.5399     0.5291     0.5291    -0.0000
 14 H      0.6143     1.0000     0.3857     0.9482     0.9482     0.0000
 15 H      0.9304     1.0000     0.0696     1.0583     1.0583     0.0000

  Mayer bond orders larger than 0.100000
B(  0-N ,  1-C ) :   1.3964 B(  0-N ,  3-C ) :   0.5457 B(  0-N ,  4-C ) :  -0.1586 
B(  0-N ,  8-C ) :  -0.1887 B(  0-N ,  9-N ) :  -0.2260 B(  0-N , 10-H ) :   1.2024 
B(  1-C ,  2-S ) :   1.4774 B(  1-C ,  3-C ) :  -0.2760 B(  1-C ,  8-C ) :  -0.2760 
B(  1-C ,  9-N ) :   1.3964 B(  3-C ,  4-C ) :   0.4990 B(  3-C ,  5-C ) :  -0.2212 
B(  3-C ,  8-C ) :   1.3542 B(  3-C ,  9-N ) :  -0.1887 B(  3-C , 10-H ) :  -0.1084 
B(  4-C ,  5-C ) :   1.4722 B(  4-C ,  7-C ) :   0.2250 B(  4-C , 11-H ) :   0.9142 
B(  4-C , 12-H ) :  -0.1555 B(  5-C ,  6-C ) :   1.2214 B(  5-C , 12-H ) :   0.6140 
B(  5-C , 13-H ) :  -0.1110 B(  6-C ,  7-C ) :   1.4722 B(  6-C ,  8-C ) :  -0.2212 
B(  6-C , 12-H ) :  -0.1110 B(  6-C , 13-H ) :   0.6140 B(  7-C ,  8-C ) :   0.4990 
B(  7-C ,  9-N ) :  -0.1586 B(  7-C , 13-H ) :  -0.1555 B(  7-C , 14-H ) :   0.9141 
B(  8-C ,  9-N ) :   0.5457 B(  8-C , 15-H ) :  -0.1084 B(  9-N , 15-H ) :   1.2024 


-------
TIMINGS
-------

Total SCF time: 0 days 0 hours 9 min 18 sec 

Total time                  ....     558.652 sec
Sum of individual times     ....     547.453 sec  ( 98.0%)

Fock matrix formation       ....     534.924 sec  ( 95.8%)
Diagonalization             ....       0.782 sec  (  0.1%)
Density matrix formation    ....       0.040 sec  (  0.0%)
Population analysis         ....       0.154 sec  (  0.0%)
Initial guess               ....       0.442 sec  (  0.1%)
Orbital Transformation      ....       0.000 sec  (  0.0%)
Orbital Orthonormalization  ....       0.000 sec  (  0.0%)
DIIS solution               ....       0.356 sec  (  0.1%)
SOSCF solution              ....       0.692 sec  (  0.1%)

Maximum memory used throughout the entire SCF-calculation: 261.8 MB


           ************************************************************
           *        Program running with 16 parallel MPI-processes    *
           *              working on a common directory               *
           ************************************************************

------------------------------------------------------------------------------
                                ORCA  MP2 
------------------------------------------------------------------------------

Freezing NCore=28 chemical core electrons

-------------
RI-MP2 ENERGY
-------------
Dimension of the basis                    ...  602
Memory devoted to MP2                     ...  256 MB   
Data format for buffers                   ... DOUBLE
Compression type for matrix containers    ... UNCOMPRESSED
Overall scaling of the MP2 energy         ...   1.000e+00
Calculating two index integrals           ... done (    0.012 sec)
Cholesky decomposition of V**-1           ... done (    0.194 sec)

-----------------
RI-TRANSFORMATION (AUX index driven)
-----------------

Dimension of the orbital-basis         ... 602
Dimension of the aux-basis             ... 1377
Transformation of internal/external MOs...   14-  38 to   39- 601
Number Format for Storage              ... Double (8 Byte)
Integral mode                          ... Direct

First Phase: integral generation and transformation of MO indices
  Aux angular momentum 0               ... done (    0.078 sec)
  Aux angular momentum 1               ... done (    0.127 sec)
  Aux angular momentum 2               ... done (    0.173 sec)
  Aux angular momentum 3               ... done (    0.186 sec)
  Aux angular momentum 4               ... done (    0.125 sec)
Closing buffer VIA ( 0.14 GB; CompressionRatio= 1.00)
  Phase 1 completed in     0.949 sec
Second Phase: sorting and transformation of aux index

IA-Transformation
Memory available                       ... 190 MB 
Max. # MO pairs treated in a batch     ... 2    
# of internal orbitals                 ... 25
# batches for internal orbitals        ... 1
Closing buffer IAV ( 0.14 GB; CompressionRatio= 1.00)
(ia|v) transformation done in     0.149 sec

  Phase 2 completed in     0.215 sec
RI-Integral transformation completed in     1.170 sec
Opening buffers                              ... done

Starting loop over batches of integrals:

Operator 0  - window                       ... ( 14- 38)x( 39-601)
Operator 0  - Memory available             ...   256 MB
Operator 0  - Memory needed per MO         ...   5.9 MB
Operator 0  - Number of orbitals per batch ... 2
Operator 0  - Number of batches            ... 1

OPERATOR  0   PASS   0:  MOs    14 ...   15 +   16 ...   17 +   18 ...   19 +   20 ...   21
                            +   22 ...   23 +   24 ...   25 +   26 ...   27 +   28 ...   29
                            +   30 ...   31 +   32 ...   33 +   34 ...   35 +   36 ...   37
                            +   38 ...   38
  Reading integrals       ... ok
Time spent in pair loops =     0.069 sec
Deleting buffer (Ka|jb)[aa] ...done

-----------------------------------------------
 RI-MP2 CORRELATION ENERGY:     -1.691276327 Eh
-----------------------------------------------


-------
TIMINGS
-------

Total time                :    2.531 sec
Integral trafo            :    1.184 sec ( 46.8%)
I/O of integrals          :    0.004 sec (  0.2%)
K(i,j) Operators          :    0.047 sec (  1.9%)
T(i,j) pair energies      :    0.007 sec (  0.3%)
V-calculation             :    0.012 sec (  0.5%)
V**(-1/2)                 :    0.194 sec (  7.7%)
Gamma(ia|P)               :    0.000 sec (  0.0%)
Gamma-Trafo               :    0.000 sec (  0.0%)
D(virtual)                :    0.000 sec (  0.0%)
D(internal)               :    0.000 sec (  0.0%)
W(virtual)                :    0.000 sec (  0.0%)
W(internal)               :    0.000 sec (  0.0%)
L(virtual)                :    0.000 sec (  0.0%)
L(internal)               :    0.000 sec (  0.0%)
G(D)                      :    0.000 sec (  0.0%)
G(Z)                      :    0.000 sec (  0.0%)
Z-Vector Solution         :    0.000 sec (  0.0%)
3-Index Derivative        :    0.000 sec (  0.0%)
2-Index Derivative        :    0.000 sec (  0.0%)
Separable Gradient        :    0.000 sec (  0.0%)


---------------------------------------
MP2 TOTAL ENERGY:     -776.864183197 Eh
---------------------------------------

Maximum memory used throughout the entire MP2-calculation: 145.5 MB

-------------------------   --------------------
FINAL SINGLE POINT ENERGY      -776.864183197079
-------------------------   --------------------


                            ***************************************
                            *     ORCA property calculations      *
                            ***************************************


  WARNING: The energy has been calculated at the MP2 level but the densities
           used in the property calculations are still SCF densities
           MP2 response densities have not been calculated 
           use %mp2 Density relaxed end
           or  %mp2 Density unrelaxed end

                                    ---------------------
                                    Active property flags
                                    ---------------------
   (+) Dipole Moment


------------------------------------------------------------------------------
                       ORCA ELECTRIC PROPERTIES CALCULATION
------------------------------------------------------------------------------

Dipole Moment Calculation                       ... on
Quadrupole Moment Calculation                   ... off
Polarizability Calculation                      ... off
GBWName                                         ... TZ_1,3-dihydro-2H-benzimidazole-2-thione.gbw
Electron density                                ... TZ_1,3-dihydro-2H-benzimidazole-2-thione.scfp
The origin for moment calculation is the CENTER OF MASS  = ( 0.000000,  0.000000  0.114328)

-------------
DIPOLE MOMENT
-------------
                                X             Y             Z
Electronic contribution:     -0.00000      -0.00000       6.89855
Nuclear contribution   :      0.00000      -0.00000      -8.91755
                        -----------------------------------------
Total Dipole Moment    :     -0.00000      -0.00000      -2.01901
                        -----------------------------------------
Magnitude (a.u.)       :      2.01901
Magnitude (Debye)      :      5.13190



--------------------
Rotational spectrum 
--------------------
 
Rotational constants in cm-1:     0.130575     0.023523     0.019933 
Rotational constants in MHz :  3914.530299   705.214284   597.561756 

 Dipole components along the rotational axes: 
x,y,z [a.u.] :    -2.019005    -0.000000    -0.000000 
x,y,z [Debye]:    -5.131904    -0.000000    -0.000000 

 

Timings for individual modules:

Sum of individual times         ...      618.978 sec (=  10.316 min)
GTO integral calculation        ...       32.915 sec (=   0.549 min)   5.3 %
SCF iterations                  ...      575.325 sec (=   9.589 min)  92.9 %
MP2 module                      ...       10.739 sec (=   0.179 min)   1.7 %
                             ****ORCA TERMINATED NORMALLY****
TOTAL RUN TIME: 0 days 0 hours 10 minutes 24 seconds 893 msec
