
                                 *****************
                                 * O   R   C   A *
                                 *****************

                                            #,                                       
                                            ###                                      
                                            ####                                     
                                            #####                                    
                                            ######                                   
                                           ########,                                 
                                     ,,################,,,,,                         
                               ,,#################################,,                 
                          ,,##########################################,,             
                       ,#########################################, ''#####,          
                    ,#############################################,,   '####,        
                  ,##################################################,,,,####,       
                ,###########''''           ''''###############################       
              ,#####''   ,,,,##########,,,,          '''####'''          '####       
            ,##' ,,,,###########################,,,                        '##       
           ' ,,###''''                  '''############,,,                           
         ,,##''                                '''############,,,,        ,,,,,,###''
      ,#''                                            '''#######################'''  
     '                                                          ''''####''''         
             ,#######,   #######,   ,#######,      ##                                
            ,#'     '#,  ##    ##  ,#'     '#,    #''#        ######   ,####,        
            ##       ##  ##   ,#'  ##            #'  '#       #        #'  '#        
            ##       ##  #######   ##           ,######,      #####,   #    #        
            '#,     ,#'  ##    ##  '#,     ,#' ,#      #,         ##   #,  ,#        
             '#######'   ##     ##  '#######'  #'      '#     #####' # '####'        



                  #######################################################
                  #                        -***-                        #
                  #          Department of theory and spectroscopy      #
                  #    Directorship and core code : Frank Neese         #
                  #        Max Planck Institute fuer Kohlenforschung    #
                  #                Kaiser Wilhelm Platz 1               #
                  #                 D-45470 Muelheim/Ruhr               #
                  #                      Germany                        #
                  #                                                     #
                  #                  All rights reserved                #
                  #                        -***-                        #
                  #######################################################


                         Program Version 5.0.3 -  RELEASE  -


 With contributions from (in alphabetic order):
   Daniel Aravena         : Magnetic Suceptibility
   Michael Atanasov       : Ab Initio Ligand Field Theory (pilot matlab implementation)
   Alexander A. Auer      : GIAO ZORA, VPT2 properties, NMR spectrum
   Ute Becker             : Parallelization
   Giovanni Bistoni       : ED, misc. LED, open-shell LED, HFLD
   Martin Brehm           : Molecular dynamics
   Dmytro Bykov           : SCF Hessian
   Vijay G. Chilkuri      : MRCI spin determinant printing, contributions to CSF-ICE
   Dipayan Datta          : RHF DLPNO-CCSD density
   Achintya Kumar Dutta   : EOM-CC, STEOM-CC
   Dmitry Ganyushin       : Spin-Orbit,Spin-Spin,Magnetic field MRCI
   Miquel Garcia          : C-PCM and meta-GGA Hessian, CC/C-PCM, Gaussian charge scheme
   Yang Guo               : DLPNO-NEVPT2, F12-NEVPT2, CIM, IAO-localization
   Andreas Hansen         : Spin unrestricted coupled pair/coupled cluster methods
   Benjamin Helmich-Paris : MC-RPA, TRAH-SCF, COSX integrals
   Lee Huntington         : MR-EOM, pCC
   Robert Izsak           : Overlap fitted RIJCOSX, COSX-SCS-MP3, EOM
   Marcus Kettner         : VPT2
   Christian Kollmar      : KDIIS, OOCD, Brueckner-CCSD(T), CCSD density, CASPT2, CASPT2-K
   Simone Kossmann        : Meta GGA functionals, TD-DFT gradient, OOMP2, MP2 Hessian
   Martin Krupicka        : Initial AUTO-CI
   Lucas Lang             : DCDCAS
   Marvin Lechner         : AUTO-CI (C++ implementation), FIC-MRCC
   Dagmar Lenk            : GEPOL surface, SMD
   Dimitrios Liakos       : Extrapolation schemes; Compound Job, initial MDCI parallelization
   Dimitrios Manganas     : Further ROCIS development; embedding schemes
   Dimitrios Pantazis     : SARC Basis sets
   Anastasios Papadopoulos: AUTO-CI, single reference methods and gradients
   Taras Petrenko         : DFT Hessian,TD-DFT gradient, ASA, ECA, R-Raman, ABS, FL, XAS/XES, NRVS
   Peter Pinski           : DLPNO-MP2, DLPNO-MP2 Gradient
   Christoph Reimann      : Effective Core Potentials
   Marius Retegan         : Local ZFS, SOC
   Christoph Riplinger    : Optimizer, TS searches, QM/MM, DLPNO-CCSD(T), (RO)-DLPNO pert. Triples
   Tobias Risthaus        : Range-separated hybrids, TD-DFT gradient, RPA, STAB
   Michael Roemelt        : Original ROCIS implementation
   Masaaki Saitow         : Open-shell DLPNO-CCSD energy and density
   Barbara Sandhoefer     : DKH picture change effects
   Avijit Sen             : IP-ROCIS
   Kantharuban Sivalingam : CASSCF convergence, NEVPT2, FIC-MRCI
   Bernardo de Souza      : ESD, SOC TD-DFT
   Georgi Stoychev        : AutoAux, RI-MP2 NMR, DLPNO-MP2 response
   Willem Van den Heuvel  : Paramagnetic NMR
   Boris Wezisla          : Elementary symmetry handling
   Frank Wennmohs         : Technical directorship


 We gratefully acknowledge several colleagues who have allowed us to
 interface, adapt or use parts of their codes:
   Stefan Grimme, W. Hujo, H. Kruse, P. Pracht,  : VdW corrections, initial TS optimization,
                  C. Bannwarth, S. Ehlert          DFT functionals, gCP, sTDA/sTD-DF
   Ed Valeev, F. Pavosevic, A. Kumar             : LibInt (2-el integral package), F12 methods
   Garnet Chan, S. Sharma, J. Yang, R. Olivares  : DMRG
   Ulf Ekstrom                                   : XCFun DFT Library
   Mihaly Kallay                                 : mrcc  (arbitrary order and MRCC methods)
   Jiri Pittner, Ondrej Demel                    : Mk-CCSD
   Frank Weinhold                                : gennbo (NPA and NBO analysis)
   Christopher J. Cramer and Donald G. Truhlar   : smd solvation model
   Lars Goerigk                                  : TD-DFT with DH, B97 family of functionals
   V. Asgeirsson, H. Jonsson                     : NEB implementation
   FAccTs GmbH                                   : IRC, NEB, NEB-TS, DLPNO-Multilevel, CI-OPT
                                                   MM, QMMM, 2- and 3-layer-ONIOM, Crystal-QMMM,
                                                   LR-CPCM, SF, NACMEs, symmetry and pop. for TD-DFT,
                                                   nearIR, NL-DFT gradient (VV10), updates on ESD,
                                                   ML-optimized integration grids
   S Lehtola, MJT Oliveira, MAL Marques          : LibXC Library
   Liviu Ungur et al                             : ANISO software


 Your calculation uses the libint2 library for the computation of 2-el integrals
 For citations please refer to: http://libint.valeyev.net

 Your ORCA version has been built with support for libXC version: 5.1.0
 For citations please refer to: https://tddft.org/programs/libxc/

 This ORCA versions uses:
   CBLAS   interface :  Fast vector & matrix operations
   LAPACKE interface :  Fast linear algebra routines
   SCALAPACK package :  Parallel linear algebra routines
   Shared memory     :  Shared parallel matrices
   BLAS/LAPACK       :  OpenBLAS 0.3.15  USE64BITINT DYNAMIC_ARCH NO_AFFINITY SkylakeX SINGLE_THREADED
        Core in use  :  SkylakeX
   Copyright (c) 2011-2014, The OpenBLAS Project


================================================================================

----- Orbital basis set information -----
Your calculation utilizes the basis: aug-cc-pVTZ 
    H, B-Ne : Obtained from the ccRepo (grant-hill.group.shef.ac.uk/ccrepo) Feb. 2017
              R. A. Kendall, T. H. Dunning, Jr., R. J. Harrison, J. Chem. Phys. 96, 6796 (1992)
         He : Obtained from the ccRepo (grant-hill.group.shef.ac.uk/ccrepo) Feb. 2017
              D. E. Woon, T. H. Dunning, Jr., J. Chem. Phys. 100, 2975 (1994)
  Li-Be, Na : Obtained from the ccRepo (grant-hill.group.shef.ac.uk/ccrepo) Feb. 2017
              B. P. Prascher, D. E. Woon, K. A. Peterson, T. H. Dunning, Jr., A. K. Wilson, Theor. Chem. Acc. 128, 69 (2011)
         Mg : Obtained from the Peterson Research Group Website (tyr0.chem.wsu.edu/~kipeters) Feb. 2017
              B. P. Prascher, D. E. Woon, K. A. Peterson, T. H. Dunning, Jr., A. K. Wilson, Theor. Chem. Acc. 128, 69 (2011)
      Al-Ar : Obtained from the ccRepo (grant-hill.group.shef.ac.uk/ccrepo) Feb. 2017
              D. E. Woon, T. H. Dunning, Jr., J. Chem. Phys. 98, 1358 (1993)
      Sc-Zn : Obtained from the ccRepo (grant-hill.group.shef.ac.uk/ccrepo) Feb. 2017
              N. B. Balabanov, K. A. Peterson, J. Chem. Phys. 123, 064107 (2005)
              N. B. Balabanov, K. A. Peterson, J. Chem. Phys. 125, 074110 (2006)
      Ga-Kr : Obtained from the ccRepo (grant-hill.group.shef.ac.uk/ccrepo) Feb. 2017
              A. K. Wilson, D. E. Woon, K. A. Peterson, T. H. Dunning, Jr., J. Chem. Phys. 110, 7667 (1999)
     Ag, Au : Obtained from the Peterson Research Group Website (tyr0.chem.wsu.edu/~kipeters) Feb. 2017
              K. A. Peterson, C. Puzzarini, Theor. Chem. Acc. 114, 283 (2005)

----- AuxC basis set information -----
Your calculation utilizes the auxiliary basis: aug-cc-pVTZ/C 
  H-He, B-F, Al-Ar, Ga-Kr : Obtained from the EMSL Basis Set Exchange (bse.pnl.gov) Feb. 2017
                            F. Weigend, A. Kohn, C. Hattig, J. Chem. Phys. 116, 3175 (2002)
                   Be, Mg : Obtained from the TURBOMOLE 7.0 basis set library
                            C. Haettig, Phys. Chem. Chem. Phys. 7, 59 (2005)
                       Ne : Obtained from the EMSL Basis Set Exchange (bse.pnl.gov) Feb. 2017
                            C. Haettig, Phys. Chem. Chem. Phys. 7, 59 (2005)
                            F. Weigend, A. Kohn, C. Hattig, J. Chem. Phys. 116, 3175 (2002)
                    Sc-Zn : Obtained from the EMSL Basis Set Exchange (bse.pnl.gov) Feb. 2017
                            J. G. Hill, J. A. Platts, J. Chem. Phys. 128, 044104 (2008)

================================================================================
                                        WARNINGS
                       Please study these warnings very carefully!
================================================================================


WARNING: No MP2 level density has been requested!
         To caclulate MP2 level properties use
         %mp2 Density relaxed end
         or
         %mp2 Density unrelaxed end

WARNING: Post HF methods need fully converged wavefunctions
  ===> : Setting SCFConvForced true
         You can overwrite this default with %scf ConvForced false 


INFO   : the flag for use of the SHARK integral package has been found!

================================================================================
                                       INPUT FILE
================================================================================
NAME = TZ_1,3,4-triazole.inp
|  1> !ri-mp2 aug-cc-pvtz aug-cc-pvtz/c tightscf
|  2> %pal nprocs 16 end
|  3> 
|  4> * xyz 0 1
|  5> N      0.000000    0.691069   -0.992631
|  6> N      0.000000   -0.691069   -0.992631
|  7> C      0.000000   -1.080094    0.251566
|  8> N      0.000000    0.000000    1.085367
|  9> C      0.000000    1.080094    0.251566
| 10> H      0.000000   -2.100069    0.594993
| 11> H      0.000000    0.000000    2.090477
| 12> H      0.000000    2.100069    0.594993
| 13> *
| 14> 
| 15>                          ****END OF INPUT****
================================================================================

                       ****************************
                       * Single Point Calculation *
                       ****************************

---------------------------------
CARTESIAN COORDINATES (ANGSTROEM)
---------------------------------
  N      0.000000    0.691069   -0.992631
  N      0.000000   -0.691069   -0.992631
  C      0.000000   -1.080094    0.251566
  N      0.000000    0.000000    1.085367
  C      0.000000    1.080094    0.251566
  H      0.000000   -2.100069    0.594993
  H      0.000000    0.000000    2.090477
  H      0.000000    2.100069    0.594993

----------------------------
CARTESIAN COORDINATES (A.U.)
----------------------------
  NO LB      ZA    FRAG     MASS         X           Y           Z
   0 N     7.0000    0    14.007    0.000000    1.305931   -1.875801
   1 N     7.0000    0    14.007    0.000000   -1.305931   -1.875801
   2 C     6.0000    0    12.011    0.000000   -2.041082    0.475391
   3 N     7.0000    0    14.007    0.000000    0.000000    2.051046
   4 C     6.0000    0    12.011    0.000000    2.041082    0.475391
   5 H     1.0000    0     1.008    0.000000   -3.968555    1.124374
   6 H     1.0000    0     1.008    0.000000    0.000000    3.950429
   7 H     1.0000    0     1.008    0.000000    3.968555    1.124374

--------------------------------
INTERNAL COORDINATES (ANGSTROEM)
--------------------------------
 N      0   0   0     0.000000000000     0.00000000     0.00000000
 N      1   0   0     1.382138000000     0.00000000     0.00000000
 C      2   1   0     1.303597570354   107.36297863     0.00000000
 N      3   2   1     1.364487873320   110.30411269     0.00000000
 C      1   2   3     1.303597570354   107.36297863     0.00000000
 H      3   2   1     1.076239334421   125.97142949   180.00000085
 H      4   3   2     1.005110000000   127.66709131   180.00000000
 H      5   1   2     1.076239334421   125.97142949   180.00000085

---------------------------
INTERNAL COORDINATES (A.U.)
---------------------------
 N      0   0   0     0.000000000000     0.00000000     0.00000000
 N      1   0   0     2.611862299286     0.00000000     0.00000000
 C      2   1   0     2.463442396815   107.36297863     0.00000000
 N      3   2   1     2.578508393631   110.30411269     0.00000000
 C      1   2   3     2.463442396815   107.36297863     0.00000000
 H      3   2   1     2.033797596609   125.97142949   180.00000085
 H      4   3   2     1.899382634466   127.66709131   180.00000000
 H      5   1   2     2.033797596609   125.97142949   180.00000085

---------------------
BASIS SET INFORMATION
---------------------
There are 3 groups of distinct atoms

 Group   1 Type N   : 19s6p3d2f contracted to 5s4p3d2f pattern {88111/3111/111/11}
 Group   2 Type C   : 19s6p3d2f contracted to 5s4p3d2f pattern {88111/3111/111/11}
 Group   3 Type H   : 6s3p2d contracted to 4s3p2d pattern {3111/111/11}

Atom   0N    basis set group =>   1
Atom   1N    basis set group =>   1
Atom   2C    basis set group =>   2
Atom   3N    basis set group =>   1
Atom   4C    basis set group =>   2
Atom   5H    basis set group =>   3
Atom   6H    basis set group =>   3
Atom   7H    basis set group =>   3
---------------------------------
AUXILIARY/C BASIS SET INFORMATION
---------------------------------
There are 3 groups of distinct atoms

 Group   1 Type N   : 9s7p6d4f2g contracted to 9s7p6d4f2g pattern {111111111/1111111/111111/1111/11}
 Group   2 Type C   : 9s7p6d4f2g contracted to 9s7p6d4f2g pattern {111111111/1111111/111111/1111/11}
 Group   3 Type H   : 5s4p3d2f contracted to 5s4p3d2f pattern {11111/1111/111/11}

Atom   0N    basis set group =>   1
Atom   1N    basis set group =>   1
Atom   2C    basis set group =>   2
Atom   3N    basis set group =>   1
Atom   4C    basis set group =>   2
Atom   5H    basis set group =>   3
Atom   6H    basis set group =>   3
Atom   7H    basis set group =>   3


           ************************************************************
           *        Program running with 16 parallel MPI-processes    *
           *              working on a common directory               *
           ************************************************************
------------------------------------------------------------------------------
                           ORCA GTO INTEGRAL CALCULATION
------------------------------------------------------------------------------
------------------------------------------------------------------------------
                   ___                                                        
                  /   \      - P O W E R E D   B Y -                         
                 /     \                                                     
                 |  |  |   _    _      __       _____    __    __             
                 |  |  |  | |  | |    /  \     |  _  \  |  |  /  |          
                  \  \/   | |  | |   /    \    | | | |  |  | /  /          
                 / \  \   | |__| |  /  /\  \   | |_| |  |  |/  /          
                |  |  |   |  __  | /  /__\  \  |    /   |      \           
                |  |  |   | |  | | |   __   |  |    \   |  |\   \          
                \     /   | |  | | |  |  |  |  | |\  \  |  | \   \       
                 \___/    |_|  |_| |__|  |__|  |_| \__\ |__|  \__/        
                                                                              
                      - O R C A' S   B I G   F R I E N D -                    
                                      &                                       
                       - I N T E G R A L  F E E D E R -                       
                                                                              
 v1 FN, 2020, v2 2021                                                         
------------------------------------------------------------------------------


Reading SHARK input file TZ_1,3,4-triazole.SHARKINP.tmp ... ok
----------------------
SHARK INTEGRAL PACKAGE
----------------------

Number of atoms                             ...      8
Number of basis functions                   ...    329
Number of shells                            ...    127
Maximum angular momentum                    ...      3
Integral batch strategy                     ... SHARK/LIBINT Hybrid
RI-J (if used) integral strategy            ... SPLIT-RIJ (Revised 2003 algorithm where possible)
Printlevel                                  ...      1
Contraction scheme used                     ... PARTIAL GENERAL contraction
Coulomb Range Separation                    ... NOT USED
Exchange Range Separation                   ... NOT USED
Finite Nucleus Model                        ... NOT USED
Auxiliary Coulomb fitting basis             ... NOT available
Auxiliary J/K fitting basis                 ... NOT available
Auxiliary Correlation fitting basis         ... AVAILABLE
   # of basis functions in Aux-C            ...    668
   # of shells in Aux-C                     ...    182
   Maximum angular momentum in Aux-C        ...      4
Auxiliary 'external' fitting basis          ... NOT available
Integral threshold                          ...     2.500000e-11
Primitive cut-off                           ...     2.500000e-12
Primitive pair pre-selection threshold      ...     2.500000e-12

Calculating pre-screening integrals         ... done (  0.0 sec) Dimension = 127
Calculating pre-screening integrals (ORCA)  ... done (  0.1 sec) Dimension = 97
Organizing shell pair data                  ... done (  0.1 sec)
Shell pair information
Total number of shell pairs                 ...      8128
Shell pairs after pre-screening             ...      7511
Total number of primitive shell pairs       ...     10320
Primitive shell pairs kept                  ...      9108
          la=0 lb=0:   1784 shell pairs
          la=1 lb=0:   1871 shell pairs
          la=1 lb=1:    434 shell pairs
          la=2 lb=0:   1359 shell pairs
          la=2 lb=1:    607 shell pairs
          la=2 lb=2:    231 shell pairs
          la=3 lb=0:    670 shell pairs
          la=3 lb=1:    290 shell pairs
          la=3 lb=2:    210 shell pairs
          la=3 lb=3:     55 shell pairs

Calculating one electron integrals          ... done (  0.0 sec)
Calculating RI/C V-Matrix + Cholesky decomp.... done (  0.0 sec)
Calculating Nuclear repulsion               ... done (  0.0 sec) ENN=    165.134950158093 Eh

SHARK setup successfully completed in   0.5 seconds

Maximum memory used throughout the entire GTOINT-calculation: 23.1 MB


           ************************************************************
           *        Program running with 16 parallel MPI-processes    *
           *              working on a common directory               *
           ************************************************************
-------------------------------------------------------------------------------
                                 ORCA SCF
-------------------------------------------------------------------------------

------------
SCF SETTINGS
------------
Hamiltonian:
 Ab initio Hamiltonian  Method          .... Hartree-Fock(GTOs)


General Settings:
 Integral files         IntName         .... TZ_1,3,4-triazole
 Hartree-Fock type      HFTyp           .... RHF
 Total Charge           Charge          ....    0
 Multiplicity           Mult            ....    1
 Number of Electrons    NEL             ....   36
 Basis Dimension        Dim             ....  299
 Nuclear Repulsion      ENuc            ....    165.1349501581 Eh

Convergence Acceleration:
 DIIS                   CNVDIIS         .... on
   Start iteration      DIISMaxIt       ....    12
   Startup error        DIISStart       ....  0.200000
   # of expansion vecs  DIISMaxEq       ....     5
   Bias factor          DIISBfac        ....   1.050
   Max. coefficient     DIISMaxC        ....  10.000
 Trust-Rad. Augm. Hess. CNVTRAH         .... auto
   Auto Start mean grad. ratio tolernc. ....  1.125000
   Auto Start start iteration           ....    20
   Auto Start num. interpolation iter.  ....    10
   Max. Number of Micro iterations      ....    16
   Max. Number of Macro iterations      .... Maxiter - #DIIS iter
   Number of Davidson start vectors     ....     2
   Converg. threshold I  (grad. norm)   ....   1.000e-05
   Converg. threshold II (energy diff.) ....   1.000e-08
   Grad. Scal. Fac. for Micro threshold ....   0.100
   Minimum threshold for Micro iter.    ....   0.010
   NR start threshold (gradient norm)   ....   0.001
   Initial trust radius                 ....   0.400
   Minimum AH scaling param. (alpha)    ....   1.000
   Maximum AH scaling param. (alpha)    .... 1000.000
   Orbital update algorithm             .... Taylor
   White noise on init. David. guess    .... on
   Maximum white noise                  ....   0.010
   Quad. conv. algorithm                .... NR
 SOSCF                  CNVSOSCF        .... on
   Start iteration      SOSCFMaxIt      ....   150
   Startup grad/error   SOSCFStart      ....  0.003300
 Level Shifting         CNVShift        .... on
   Level shift para.    LevelShift      ....    0.2500
   Turn off err/grad.   ShiftErr        ....    0.0010
 Zerner damping         CNVZerner       .... off
 Static damping         CNVDamp         .... on
   Fraction old density DampFac         ....    0.7000
   Max. Damping (<1)    DampMax         ....    0.9800
   Min. Damping (>=0)   DampMin         ....    0.0000
   Turn off err/grad.   DampErr         ....    0.1000
 Fernandez-Rico         CNVRico         .... off

SCF Procedure:
 Maximum # iterations   MaxIter         ....   125
 SCF integral mode      SCFMode         .... Direct
   Integral package                     .... SHARK and LIBINT hybrid scheme
 Reset frequency        DirectResetFreq ....    20
 Integral Threshold     Thresh          ....  2.500e-11 Eh
 Primitive CutOff       TCut            ....  2.500e-12 Eh

Convergence Tolerance:
 Convergence Check Mode ConvCheckMode   .... Total+1el-Energy
 Convergence forced     ConvForced      .... 1
 Energy Change          TolE            ....  1.000e-08 Eh
 1-El. energy change                    ....  1.000e-05 Eh
 Orbital Gradient       TolG            ....  1.000e-05
 Orbital Rotation angle TolX            ....  1.000e-05
 DIIS Error             TolErr          ....  5.000e-07


Diagonalization of the overlap matrix:
Smallest eigenvalue                        ... 1.668e-05
Time for diagonalization                   ...    0.013 sec
Threshold for overlap eigenvalues          ... 1.000e-08
Number of eigenvalues below threshold      ... 0
Time for construction of square roots      ...    0.010 sec
Total time needed                          ...    0.023 sec

Time for model grid setup =    5.131 sec

------------------------------
INITIAL GUESS: MODEL POTENTIAL
------------------------------
Loading Hartree-Fock densities                     ... done
Calculating cut-offs                               ... done
Initializing the effective Hamiltonian             ... done
Setting up the integral package (SHARK)            ... done
Starting the Coulomb interaction                   ... done (   0.1 sec)
Reading the grid                                   ... done
Mapping shells                                     ... done
Starting the XC term evaluation                    ... done (   0.0 sec)
Transforming the Hamiltonian                       ... done (   0.0 sec)
Diagonalizing the Hamiltonian                      ... done (   0.0 sec)
Back transforming the eigenvectors                 ... done (   0.0 sec)
Now organizing SCF variables                       ... done
                      ------------------
                      INITIAL GUESS DONE (   5.2 sec)
                      ------------------
--------------
SCF ITERATIONS
--------------
ITER       Energy         Delta-E        Max-DP      RMS-DP      [F,P]     Damp
               ***  Starting incremental Fock matrix formation  ***
  0   -240.6829719299   0.000000000000 0.04827610  0.00071795  0.2315910 0.7000
  1   -240.7512210602  -0.068249130335 0.03413731  0.00054049  0.1482852 0.7000
                               ***Turning on DIIS***
  2   -240.7927607849  -0.041539724633 0.02401280  0.00035728  0.1009811 0.7000
  3   -241.2902101837  -0.497449398882 0.05705305  0.00090470  0.0751780 0.0000
  4   -240.8642771943   0.425932989477 0.01321959  0.00019021  0.0076237 0.0000
                      *** Initiating the SOSCF procedure ***
                           *** Shutting down DIIS ***
                      *** Re-Reading the Fockian *** 
                      *** Removing any level shift *** 
ITER      Energy       Delta-E        Grad      Rot      Max-DP    RMS-DP
  5   -240.88160607  -0.0173288757  0.002458  0.002458  0.005297  0.000074
               *** Restarting incremental Fock matrix formation ***
  6   -240.88179753  -0.0001914579  0.001812  0.003084  0.002302  0.000031
  7   -240.88182692  -0.0000293894  0.000444  0.002332  0.001744  0.000033
  8   -240.88183760  -0.0000106832  0.000140  0.000176  0.000522  0.000009
  9   -240.88183844  -0.0000008358  0.000039  0.000070  0.000183  0.000003
 10   -240.88183853  -0.0000000964  0.000020  0.000051  0.000037  0.000001
 11   -240.88183855  -0.0000000138  0.000008  0.000017  0.000014  0.000000
                  ***Gradient check signals convergence***
              ***Rediagonalizing the Fockian in SOSCF/NRSCF***

               *****************************************************
               *                     SUCCESS                       *
               *           SCF CONVERGED AFTER  12 CYCLES          *
               *****************************************************


----------------
TOTAL SCF ENERGY
----------------

Total Energy       :         -240.88183855 Eh           -6554.72806 eV

Components:
Nuclear Repulsion  :          165.13495016 Eh            4493.55044 eV
Electronic Energy  :         -406.01678871 Eh          -11048.27850 eV
One Electron Energy:         -653.48111048 Eh          -17782.12504 eV
Two Electron Energy:          247.46432177 Eh            6733.84654 eV

Virial components:
Potential Energy   :         -481.29684200 Eh          -13096.75290 eV
Kinetic Energy     :          240.41500345 Eh            6542.02483 eV
Virial Ratio       :            2.00194179


---------------
SCF CONVERGENCE
---------------

  Last Energy change         ...   -1.3097e-09  Tolerance :   1.0000e-08
  Last MAX-Density change    ...    4.8836e-06  Tolerance :   1.0000e-07
  Last RMS-Density change    ...    1.1562e-07  Tolerance :   5.0000e-09
  Last Orbital Gradient      ...    1.9075e-06  Tolerance :   1.0000e-05
  Last Orbital Rotation      ...    8.0738e-06  Tolerance :   1.0000e-05

             **** THE GBW FILE WAS UPDATED (TZ_1,3,4-triazole.gbw) ****
             **** DENSITY TZ_1,3,4-triazole.scfp WAS UPDATED ****
             **** ENERGY FILE WAS UPDATED (TZ_1,3,4-triazole.en.tmp) ****
             **** THE GBW FILE WAS UPDATED (TZ_1,3,4-triazole.gbw) ****
             **** DENSITY TZ_1,3,4-triazole.scfp WAS UPDATED ****
----------------
ORBITAL ENERGIES
----------------

  NO   OCC          E(Eh)            E(eV) 
   0   2.0000     -15.642502      -425.6541 
   1   2.0000     -15.584485      -424.0754 
   2   2.0000     -15.583834      -424.0577 
   3   2.0000     -11.310362      -307.7706 
   4   2.0000     -11.310321      -307.7695 
   5   2.0000      -1.402283       -38.1581 
   6   2.0000      -1.220391       -33.2085 
   7   2.0000      -1.100417       -29.9439 
   8   2.0000      -0.858355       -23.3570 
   9   2.0000      -0.844889       -22.9906 
  10   2.0000      -0.785876       -21.3848 
  11   2.0000      -0.647993       -17.6328 
  12   2.0000      -0.633057       -17.2263 
  13   2.0000      -0.627332       -17.0706 
  14   2.0000      -0.484678       -13.1888 
  15   2.0000      -0.435315       -11.8455 
  16   2.0000      -0.433654       -11.8003 
  17   2.0000      -0.370526       -10.0825 
  18   0.0000       0.015001         0.4082 
  19   0.0000       0.031183         0.8485 
  20   0.0000       0.043523         1.1843 
  21   0.0000       0.067396         1.8339 
  22   0.0000       0.078809         2.1445 
  23   0.0000       0.093814         2.5528 
  24   0.0000       0.097892         2.6638 
  25   0.0000       0.101477         2.7613 
  26   0.0000       0.118914         3.2358 
  27   0.0000       0.121208         3.2982 
  28   0.0000       0.144280         3.9261 
  29   0.0000       0.146942         3.9985 
  30   0.0000       0.152585         4.1520 
  31   0.0000       0.153821         4.1857 
  32   0.0000       0.172839         4.7032 
  33   0.0000       0.179701         4.8899 
  34   0.0000       0.182898         4.9769 
  35   0.0000       0.197615         5.3774 
  36   0.0000       0.201786         5.4909 
  37   0.0000       0.215058         5.8520 
  38   0.0000       0.223571         6.0837 
  39   0.0000       0.230077         6.2607 
  40   0.0000       0.250483         6.8160 
  41   0.0000       0.270437         7.3590 
  42   0.0000       0.278657         7.5826 
  43   0.0000       0.286807         7.8044 
  44   0.0000       0.301315         8.1992 
  45   0.0000       0.305265         8.3067 
  46   0.0000       0.317519         8.6401 
  47   0.0000       0.330037         8.9808 
  48   0.0000       0.330357         8.9895 
  49   0.0000       0.337250         9.1770 
  50   0.0000       0.356318         9.6959 
  51   0.0000       0.382932        10.4201 
  52   0.0000       0.388775        10.5791 
  53   0.0000       0.399878        10.8812 
  54   0.0000       0.403092        10.9687 
  55   0.0000       0.409791        11.1510 
  56   0.0000       0.418612        11.3910 
  57   0.0000       0.422014        11.4836 
  58   0.0000       0.457324        12.4444 
  59   0.0000       0.462117        12.5748 
  60   0.0000       0.473486        12.8842 
  61   0.0000       0.483056        13.1446 
  62   0.0000       0.485129        13.2010 
  63   0.0000       0.504125        13.7180 
  64   0.0000       0.529876        14.4187 
  65   0.0000       0.530458        14.4345 
  66   0.0000       0.548275        14.9193 
  67   0.0000       0.563950        15.3459 
  68   0.0000       0.579123        15.7587 
  69   0.0000       0.597453        16.2575 
  70   0.0000       0.618993        16.8436 
  71   0.0000       0.626937        17.0598 
  72   0.0000       0.628252        17.0956 
  73   0.0000       0.643216        17.5028 
  74   0.0000       0.654515        17.8103 
  75   0.0000       0.667612        18.1667 
  76   0.0000       0.674561        18.3557 
  77   0.0000       0.701829        19.0977 
  78   0.0000       0.716502        19.4970 
  79   0.0000       0.723872        19.6976 
  80   0.0000       0.731291        19.8994 
  81   0.0000       0.747149        20.3310 
  82   0.0000       0.750680        20.4270 
  83   0.0000       0.766212        20.8497 
  84   0.0000       0.804904        21.9026 
  85   0.0000       0.808914        22.0117 
  86   0.0000       0.848824        23.0977 
  87   0.0000       0.851802        23.1787 
  88   0.0000       0.858782        23.3686 
  89   0.0000       0.863823        23.5058 
  90   0.0000       0.869464        23.6593 
  91   0.0000       0.893424        24.3113 
  92   0.0000       0.915188        24.9035 
  93   0.0000       0.924206        25.1489 
  94   0.0000       0.930394        25.3173 
  95   0.0000       0.933902        25.4128 
  96   0.0000       0.957876        26.0651 
  97   0.0000       0.972413        26.4607 
  98   0.0000       0.989324        26.9209 
  99   0.0000       0.991588        26.9825 
 100   0.0000       1.016633        27.6640 
 101   0.0000       1.017627        27.6910 
 102   0.0000       1.030473        28.0406 
 103   0.0000       1.035769        28.1847 
 104   0.0000       1.038063        28.2471 
 105   0.0000       1.070830        29.1388 
 106   0.0000       1.078642        29.3513 
 107   0.0000       1.097497        29.8644 
 108   0.0000       1.124037        30.5866 
 109   0.0000       1.139590        31.0098 
 110   0.0000       1.152466        31.3602 
 111   0.0000       1.183292        32.1990 
 112   0.0000       1.191402        32.4197 
 113   0.0000       1.213066        33.0092 
 114   0.0000       1.229373        33.4529 
 115   0.0000       1.249320        33.9957 
 116   0.0000       1.259891        34.2834 
 117   0.0000       1.264334        34.4043 
 118   0.0000       1.292546        35.1720 
 119   0.0000       1.302310        35.4377 
 120   0.0000       1.314537        35.7704 
 121   0.0000       1.314980        35.7824 
 122   0.0000       1.319209        35.8975 
 123   0.0000       1.365494        37.1570 
 124   0.0000       1.366464        37.1834 
 125   0.0000       1.382022        37.6067 
 126   0.0000       1.453886        39.5622 
 127   0.0000       1.454888        39.5895 
 128   0.0000       1.477150        40.1953 
 129   0.0000       1.489384        40.5282 
 130   0.0000       1.497970        40.7618 
 131   0.0000       1.500440        40.8290 
 132   0.0000       1.506464        40.9930 
 133   0.0000       1.577652        42.9301 
 134   0.0000       1.581643        43.0387 
 135   0.0000       1.607955        43.7547 
 136   0.0000       1.616058        43.9752 
 137   0.0000       1.668872        45.4123 
 138   0.0000       1.679267        45.6952 
 139   0.0000       1.704101        46.3710 
 140   0.0000       1.712151        46.5900 
 141   0.0000       1.750874        47.6437 
 142   0.0000       1.789812        48.7033 
 143   0.0000       1.809466        49.2381 
 144   0.0000       1.816830        49.4385 
 145   0.0000       1.830087        49.7992 
 146   0.0000       1.857552        50.5465 
 147   0.0000       1.862313        50.6761 
 148   0.0000       1.867877        50.8275 
 149   0.0000       1.972663        53.6789 
 150   0.0000       1.975407        53.7536 
 151   0.0000       2.018221        54.9186 
 152   0.0000       2.018904        54.9372 
 153   0.0000       2.020417        54.9784 
 154   0.0000       2.061432        56.0944 
 155   0.0000       2.087813        56.8123 
 156   0.0000       2.094062        56.9823 
 157   0.0000       2.105818        57.3022 
 158   0.0000       2.121467        57.7280 
 159   0.0000       2.124264        57.8042 
 160   0.0000       2.144205        58.3468 
 161   0.0000       2.182016        59.3757 
 162   0.0000       2.197133        59.7870 
 163   0.0000       2.219797        60.4037 
 164   0.0000       2.262961        61.5783 
 165   0.0000       2.270511        61.7837 
 166   0.0000       2.275260        61.9130 
 167   0.0000       2.301813        62.6355 
 168   0.0000       2.335790        63.5601 
 169   0.0000       2.364791        64.3492 
 170   0.0000       2.369105        64.4666 
 171   0.0000       2.401312        65.3430 
 172   0.0000       2.406889        65.4948 
 173   0.0000       2.487613        67.6914 
 174   0.0000       2.498530        67.9885 
 175   0.0000       2.517447        68.5032 
 176   0.0000       2.531935        68.8974 
 177   0.0000       2.543559        69.2138 
 178   0.0000       2.582691        70.2786 
 179   0.0000       2.634688        71.6935 
 180   0.0000       2.643423        71.9312 
 181   0.0000       2.698448        73.4285 
 182   0.0000       2.722705        74.0886 
 183   0.0000       2.737799        74.4993 
 184   0.0000       2.867644        78.0326 
 185   0.0000       2.900977        78.9396 
 186   0.0000       2.912340        79.2488 
 187   0.0000       2.942396        80.0667 
 188   0.0000       3.003759        81.7364 
 189   0.0000       3.081343        83.8476 
 190   0.0000       3.116452        84.8030 
 191   0.0000       3.133106        85.2562 
 192   0.0000       3.257191        88.6327 
 193   0.0000       3.304269        89.9137 
 194   0.0000       3.353334        91.2489 
 195   0.0000       3.395568        92.3981 
 196   0.0000       3.468755        94.3896 
 197   0.0000       3.471371        94.4608 
 198   0.0000       3.482356        94.7597 
 199   0.0000       3.497635        95.1755 
 200   0.0000       3.533905        96.1625 
 201   0.0000       3.596864        97.8757 
 202   0.0000       3.647262        99.2470 
 203   0.0000       3.672716        99.9397 
 204   0.0000       3.688532       100.3701 
 205   0.0000       3.728099       101.4467 
 206   0.0000       3.754827       102.1740 
 207   0.0000       3.790037       103.1321 
 208   0.0000       3.808079       103.6231 
 209   0.0000       3.845038       104.6288 
 210   0.0000       3.858065       104.9833 
 211   0.0000       3.879573       105.5686 
 212   0.0000       3.920204       106.6742 
 213   0.0000       4.019541       109.3773 
 214   0.0000       4.032409       109.7274 
 215   0.0000       4.053051       110.2891 
 216   0.0000       4.056812       110.3915 
 217   0.0000       4.073942       110.8576 
 218   0.0000       4.099838       111.5623 
 219   0.0000       4.130080       112.3852 
 220   0.0000       4.150667       112.9454 
 221   0.0000       4.189325       113.9973 
 222   0.0000       4.194008       114.1247 
 223   0.0000       4.213412       114.6528 
 224   0.0000       4.261162       115.9521 
 225   0.0000       4.299253       116.9886 
 226   0.0000       4.311565       117.3236 
 227   0.0000       4.313968       117.3890 
 228   0.0000       4.396201       119.6267 
 229   0.0000       4.466927       121.5513 
 230   0.0000       4.483444       122.0007 
 231   0.0000       4.496388       122.3529 
 232   0.0000       4.546506       123.7167 
 233   0.0000       4.578104       124.5765 
 234   0.0000       4.603652       125.2717 
 235   0.0000       4.667843       127.0185 
 236   0.0000       4.685172       127.4900 
 237   0.0000       4.687756       127.5603 
 238   0.0000       4.740180       128.9869 
 239   0.0000       4.827826       131.3718 
 240   0.0000       4.830484       131.4441 
 241   0.0000       4.876096       132.6853 
 242   0.0000       4.959989       134.9682 
 243   0.0000       4.974967       135.3757 
 244   0.0000       4.980495       135.5262 
 245   0.0000       5.021205       136.6339 
 246   0.0000       5.113824       139.1542 
 247   0.0000       5.118818       139.2901 
 248   0.0000       5.163246       140.4991 
 249   0.0000       5.163730       140.5122 
 250   0.0000       5.171898       140.7345 
 251   0.0000       5.295166       144.0888 
 252   0.0000       5.329591       145.0255 
 253   0.0000       5.349641       145.5711 
 254   0.0000       5.398691       146.9059 
 255   0.0000       5.445346       148.1754 
 256   0.0000       5.474439       148.9671 
 257   0.0000       5.489717       149.3828 
 258   0.0000       5.510385       149.9452 
 259   0.0000       5.542777       150.8266 
 260   0.0000       5.551850       151.0735 
 261   0.0000       5.626762       153.1120 
 262   0.0000       5.646739       153.6556 
 263   0.0000       5.668236       154.2405 
 264   0.0000       5.734011       156.0304 
 265   0.0000       5.742649       156.2654 
 266   0.0000       5.744515       156.3162 
 267   0.0000       5.772825       157.0866 
 268   0.0000       5.773818       157.1136 
 269   0.0000       5.811896       158.1497 
 270   0.0000       5.845530       159.0650 
 271   0.0000       5.894053       160.3853 
 272   0.0000       5.914236       160.9345 
 273   0.0000       5.979466       162.7095 
 274   0.0000       5.986881       162.9113 
 275   0.0000       6.053159       164.7148 
 276   0.0000       6.062217       164.9613 
 277   0.0000       6.201441       168.7498 
 278   0.0000       6.215661       169.1367 
 279   0.0000       6.240430       169.8107 
 280   0.0000       6.258870       170.3125 
 281   0.0000       6.415874       174.5848 
 282   0.0000       6.443949       175.3488 
 283   0.0000       6.455220       175.6555 
 284   0.0000       6.591508       179.3641 
 285   0.0000       6.610689       179.8860 
 286   0.0000       6.666152       181.3952 
 287   0.0000       6.822213       185.6419 
 288   0.0000       6.929566       188.5631 
 289   0.0000       6.962045       189.4469 
 290   0.0000       7.091647       192.9735 
 291   0.0000       7.441287       202.4877 
 292   0.0000       7.744138       210.7287 
 293   0.0000       7.755175       211.0290 
 294   0.0000      15.677301       426.6010 
 295   0.0000      15.897380       432.5897 
 296   0.0000      16.249414       442.1690 
 297   0.0000      17.553203       477.6469 
 298   0.0000      18.948175       515.6061 

                    ********************************
                    * MULLIKEN POPULATION ANALYSIS *
                    ********************************

-----------------------
MULLIKEN ATOMIC CHARGES
-----------------------
   0 N :   -0.390375
   1 N :   -0.390375
   2 C :   -0.325300
   3 N :    0.081004
   4 C :   -0.325300
   5 H :    0.602389
   6 H :    0.145568
   7 H :    0.602389
Sum of atomic charges:    0.0000000

--------------------------------
MULLIKEN REDUCED ORBITAL CHARGES
--------------------------------
  0 N s       :     3.858615  s :     3.858615
      pz      :     1.307267  p :     3.434123
      px      :     1.185083
      py      :     0.941773
      dz2     :     0.014869  d :     0.084668
      dxz     :     0.028501
      dyz     :     0.022696
      dx2y2   :     0.002825
      dxy     :     0.015778
      f0      :     0.001554  f :     0.012969
      f+1     :     0.003050
      f-1     :     0.002434
      f+2     :     0.002402
      f-2     :     0.000296
      f+3     :     0.003305
      f-3     :    -0.000071
  1 N s       :     3.858615  s :     3.858615
      pz      :     1.307267  p :     3.434123
      px      :     1.185083
      py      :     0.941773
      dz2     :     0.014869  d :     0.084668
      dxz     :     0.028501
      dyz     :     0.022696
      dx2y2   :     0.002825
      dxy     :     0.015778
      f0      :     0.001554  f :     0.012969
      f+1     :     0.003050
      f-1     :     0.002434
      f+2     :     0.002402
      f-2     :     0.000296
      f+3     :     0.003305
      f-3     :    -0.000071
  2 C s       :     3.641001  s :     3.641001
      pz      :     0.748666  p :     2.564970
      px      :     0.868643
      py      :     0.947661
      dz2     :    -0.025246  d :     0.086012
      dxz     :     0.055155
      dyz     :     0.036370
      dx2y2   :     0.002379
      dxy     :     0.017355
      f0      :     0.009415  f :     0.033317
      f+1     :     0.004196
      f-1     :     0.008270
      f+2     :     0.002651
      f-2     :     0.008112
      f+3     :     0.001851
      f-3     :    -0.001178
  3 N s       :     3.336202  s :     3.336202
      pz      :     1.023035  p :     3.502040
      px      :     1.497870
      py      :     0.981135
      dz2     :     0.002171  d :     0.074244
      dxz     :     0.010977
      dyz     :    -0.001096
      dx2y2   :     0.019040
      dxy     :     0.043151
      f0      :     0.006387  f :     0.006510
      f+1     :     0.002031
      f-1     :    -0.003579
      f+2     :    -0.000404
      f-2     :     0.001144
      f+3     :     0.000618
      f-3     :     0.000313
  4 C s       :     3.641001  s :     3.641001
      pz      :     0.748666  p :     2.564970
      px      :     0.868643
      py      :     0.947661
      dz2     :    -0.025246  d :     0.086012
      dxz     :     0.055155
      dyz     :     0.036370
      dx2y2   :     0.002379
      dxy     :     0.017355
      f0      :     0.009415  f :     0.033317
      f+1     :     0.004196
      f-1     :     0.008270
      f+2     :     0.002651
      f-2     :     0.008112
      f+3     :     0.001851
      f-3     :    -0.001178
  5 H s       :     0.413632  s :     0.413632
      pz      :    -0.008330  p :    -0.009599
      px      :    -0.001829
      py      :     0.000560
      dz2     :    -0.000193  d :    -0.006422
      dxz     :     0.000247
      dyz     :    -0.003570
      dx2y2   :    -0.004095
      dxy     :     0.001189
  6 H s       :     0.749184  s :     0.749184
      pz      :     0.017422  p :     0.079181
      px      :     0.049035
      py      :     0.012724
      dz2     :     0.004877  d :     0.026067
      dxz     :     0.013974
      dyz     :     0.007837
      dx2y2   :     0.000045
      dxy     :    -0.000666
  7 H s       :     0.413632  s :     0.413632
      pz      :    -0.008330  p :    -0.009599
      px      :    -0.001829
      py      :     0.000560
      dz2     :    -0.000193  d :    -0.006422
      dxz     :     0.000247
      dyz     :    -0.003570
      dx2y2   :    -0.004095
      dxy     :     0.001189


                     *******************************
                     * LOEWDIN POPULATION ANALYSIS *
                     *******************************

----------------------
LOEWDIN ATOMIC CHARGES
----------------------
   0 N :    0.168247
   1 N :    0.168247
   2 C :   -0.108480
   3 N :    0.498171
   4 C :   -0.108480
   5 H :   -0.183024
   6 H :   -0.251658
   7 H :   -0.183024

-------------------------------
LOEWDIN REDUCED ORBITAL CHARGES
-------------------------------
  0 N s       :     2.857349  s :     2.857349
      pz      :     1.199524  p :     3.049002
      px      :     0.859864
      py      :     0.989614
      dz2     :     0.128555  d :     0.639806
      dxz     :     0.057756
      dyz     :     0.220634
      dx2y2   :     0.116138
      dxy     :     0.116724
      f0      :     0.065798  f :     0.285596
      f+1     :     0.032832
      f-1     :     0.054365
      f+2     :     0.053533
      f-2     :     0.009275
      f+3     :     0.041025
      f-3     :     0.028767
  1 N s       :     2.857349  s :     2.857349
      pz      :     1.199524  p :     3.049002
      px      :     0.859864
      py      :     0.989614
      dz2     :     0.128555  d :     0.639806
      dxz     :     0.057756
      dyz     :     0.220634
      dx2y2   :     0.116138
      dxy     :     0.116724
      f0      :     0.065798  f :     0.285596
      f+1     :     0.032832
      f-1     :     0.054365
      f+2     :     0.053533
      f-2     :     0.009275
      f+3     :     0.041025
      f-3     :     0.028767
  2 C s       :     2.497454  s :     2.497454
      pz      :     0.807164  p :     2.204083
      px      :     0.584540
      py      :     0.812380
      dz2     :     0.265866  d :     0.907275
      dxz     :     0.177326
      dyz     :     0.268034
      dx2y2   :     0.116642
      dxy     :     0.079408
      f0      :     0.114975  f :     0.499668
      f+1     :     0.042581
      f-1     :     0.127766
      f+2     :     0.067801
      f-2     :     0.078767
      f+3     :     0.035718
      f-3     :     0.032060
  3 N s       :     2.636381  s :     2.636381
      pz      :     0.994888  p :     2.978370
      px      :     1.004342
      py      :     0.979139
      dz2     :     0.184301  d :     0.633759
      dxz     :     0.055910
      dyz     :     0.156306
      dx2y2   :     0.118438
      dxy     :     0.118804
      f0      :     0.030888  f :     0.253319
      f+1     :     0.007991
      f-1     :     0.090499
      f+2     :     0.032530
      f-2     :     0.060273
      f+3     :     0.008160
      f-3     :     0.022978
  4 C s       :     2.497454  s :     2.497454
      pz      :     0.807164  p :     2.204083
      px      :     0.584540
      py      :     0.812380
      dz2     :     0.265866  d :     0.907275
      dxz     :     0.177326
      dyz     :     0.268034
      dx2y2   :     0.116642
      dxy     :     0.079408
      f0      :     0.114975  f :     0.499668
      f+1     :     0.042581
      f-1     :     0.127766
      f+2     :     0.067801
      f-2     :     0.078767
      f+3     :     0.035718
      f-3     :     0.032060
  5 H s       :     0.703153  s :     0.703153
      pz      :     0.072963  p :     0.279786
      px      :     0.079273
      py      :     0.127551
      dz2     :     0.026104  d :     0.200085
      dxz     :     0.015348
      dyz     :     0.061095
      dx2y2   :     0.046356
      dxy     :     0.051182
  6 H s       :     0.605356  s :     0.605356
      pz      :     0.175657  p :     0.377814
      px      :     0.124814
      py      :     0.077343
      dz2     :     0.079898  d :     0.268489
      dxz     :     0.092924
      dyz     :     0.088930
      dx2y2   :     0.003192
      dxy     :     0.003544
  7 H s       :     0.703153  s :     0.703153
      pz      :     0.072963  p :     0.279786
      px      :     0.079273
      py      :     0.127551
      dz2     :     0.026104  d :     0.200085
      dxz     :     0.015348
      dyz     :     0.061095
      dx2y2   :     0.046356
      dxy     :     0.051182


                      *****************************
                      * MAYER POPULATION ANALYSIS *
                      *****************************

  NA   - Mulliken gross atomic population
  ZA   - Total nuclear charge
  QA   - Mulliken gross atomic charge
  VA   - Mayer's total valence
  BVA  - Mayer's bonded valence
  FA   - Mayer's free valence

  ATOM       NA         ZA         QA         VA         BVA        FA
  0 N      7.3904     7.0000    -0.3904     1.9517     1.9517     0.0000
  1 N      7.3904     7.0000    -0.3904     1.9517     1.9517     0.0000
  2 C      6.3253     6.0000    -0.3253     3.0429     3.0429     0.0000
  3 N      6.9190     7.0000     0.0810     3.3466     3.3466     0.0000
  4 C      6.3253     6.0000    -0.3253     3.0429     3.0429    -0.0000
  5 H      0.3976     1.0000     0.6024     0.6107     0.6107     0.0000
  6 H      0.8544     1.0000     0.1456     1.0674     1.0674     0.0000
  7 H      0.3976     1.0000     0.6024     0.6107     0.6107    -0.0000

  Mayer bond orders larger than 0.100000
B(  0-N ,  1-N ) :   0.4326 B(  0-N ,  4-C ) :   1.5198 B(  1-N ,  2-C ) :   1.5198 
B(  2-C ,  3-N ) :   1.1483 B(  2-C ,  4-C ) :  -0.2502 B(  2-C ,  5-H ) :   0.5930 
B(  3-N ,  4-C ) :   1.1483 B(  3-N ,  6-H ) :   1.0363 B(  4-C ,  7-H ) :   0.5930 


-------
TIMINGS
-------

Total SCF time: 0 days 0 hours 0 min 52 sec 

Total time                  ....      52.958 sec
Sum of individual times     ....      47.072 sec  ( 88.9%)

Fock matrix formation       ....      41.289 sec  ( 78.0%)
Diagonalization             ....       0.173 sec  (  0.3%)
Density matrix formation    ....       0.009 sec  (  0.0%)
Population analysis         ....       0.083 sec  (  0.2%)
Initial guess               ....       0.114 sec  (  0.2%)
Orbital Transformation      ....       0.000 sec  (  0.0%)
Orbital Orthonormalization  ....       0.000 sec  (  0.0%)
DIIS solution               ....       0.121 sec  (  0.2%)
SOSCF solution              ....       0.152 sec  (  0.3%)

Maximum memory used throughout the entire SCF-calculation: 235.4 MB


           ************************************************************
           *        Program running with 16 parallel MPI-processes    *
           *              working on a common directory               *
           ************************************************************

------------------------------------------------------------------------------
                                ORCA  MP2 
------------------------------------------------------------------------------

Freezing NCore=10 chemical core electrons

-------------
RI-MP2 ENERGY
-------------
Dimension of the basis                    ...  299
Memory devoted to MP2                     ...  256 MB   
Data format for buffers                   ... DOUBLE
Compression type for matrix containers    ... UNCOMPRESSED
Overall scaling of the MP2 energy         ...   1.000e+00
Calculating two index integrals           ... done (    0.004 sec)
Cholesky decomposition of V**-1           ... done (    0.062 sec)

-----------------
RI-TRANSFORMATION (AUX index driven)
-----------------

Dimension of the orbital-basis         ... 299
Dimension of the aux-basis             ... 668
Transformation of internal/external MOs...    5-  17 to   18- 298
Number Format for Storage              ... Double (8 Byte)
Integral mode                          ... Direct

First Phase: integral generation and transformation of MO indices
  Aux angular momentum 0               ... done (    0.015 sec)
  Aux angular momentum 1               ... done (    0.018 sec)
  Aux angular momentum 2               ... done (    0.030 sec)
  Aux angular momentum 3               ... done (    0.029 sec)
  Aux angular momentum 4               ... done (    0.018 sec)
Closing buffer VIA ( 0.02 GB; CompressionRatio= 1.00)
  Phase 1 completed in     0.223 sec
Second Phase: sorting and transformation of aux index

IA-Transformation
Memory available                       ... 210 MB 
Max. # MO pairs treated in a batch     ... 1    
# of internal orbitals                 ... 13
# batches for internal orbitals        ... 1
Closing buffer IAV ( 0.02 GB; CompressionRatio= 1.00)
(ia|v) transformation done in     0.022 sec

  Phase 2 completed in     0.054 sec
RI-Integral transformation completed in     0.282 sec
Opening buffers                              ... done

Starting loop over batches of integrals:

Operator 0  - window                       ... (  5- 17)x( 18-298)
Operator 0  - Memory available             ...   256 MB
Operator 0  - Memory needed per MO         ...   1.4 MB
Operator 0  - Number of orbitals per batch ... 1
Operator 0  - Number of batches            ... 1

OPERATOR  0   PASS   0:  MOs     5 ...    5 +    6 ...    6 +    7 ...    7 +    8 ...    8
                            +    9 ...    9 +   10 ...   10 +   11 ...   11 +   12 ...   12
                            +   13 ...   13 +   14 ...   14 +   15 ...   15 +   16 ...   16
                            +   17 ...   17
  Reading integrals       ... ok
Time spent in pair loops =     0.007 sec
Deleting buffer (Ka|jb)[aa] ...done

-----------------------------------------------
 RI-MP2 CORRELATION ENERGY:     -0.932626539 Eh
-----------------------------------------------


-------
TIMINGS
-------

Total time                :    0.433 sec
Integral trafo            :    0.291 sec ( 67.1%)
I/O of integrals          :    0.001 sec (  0.1%)
K(i,j) Operators          :    0.003 sec (  0.7%)
T(i,j) pair energies      :    0.001 sec (  0.1%)
V-calculation             :    0.004 sec (  0.9%)
V**(-1/2)                 :    0.062 sec ( 14.3%)
Gamma(ia|P)               :    0.000 sec (  0.0%)
Gamma-Trafo               :    0.000 sec (  0.0%)
D(virtual)                :    0.000 sec (  0.0%)
D(internal)               :    0.000 sec (  0.0%)
W(virtual)                :    0.000 sec (  0.0%)
W(internal)               :    0.000 sec (  0.0%)
L(virtual)                :    0.000 sec (  0.0%)
L(internal)               :    0.000 sec (  0.0%)
G(D)                      :    0.000 sec (  0.0%)
G(Z)                      :    0.000 sec (  0.0%)
Z-Vector Solution         :    0.000 sec (  0.0%)
3-Index Derivative        :    0.000 sec (  0.0%)
2-Index Derivative        :    0.000 sec (  0.0%)
Separable Gradient        :    0.000 sec (  0.0%)


---------------------------------------
MP2 TOTAL ENERGY:     -241.814465087 Eh
---------------------------------------

Maximum memory used throughout the entire MP2-calculation: 94.6 MB

-------------------------   --------------------
FINAL SINGLE POINT ENERGY      -241.814465086953
-------------------------   --------------------


                            ***************************************
                            *     ORCA property calculations      *
                            ***************************************


  WARNING: The energy has been calculated at the MP2 level but the densities
           used in the property calculations are still SCF densities
           MP2 response densities have not been calculated 
           use %mp2 Density relaxed end
           or  %mp2 Density unrelaxed end

                                    ---------------------
                                    Active property flags
                                    ---------------------
   (+) Dipole Moment


------------------------------------------------------------------------------
                       ORCA ELECTRIC PROPERTIES CALCULATION
------------------------------------------------------------------------------

Dipole Moment Calculation                       ... on
Quadrupole Moment Calculation                   ... off
Polarizability Calculation                      ... off
GBWName                                         ... TZ_1,3,4-triazole.gbw
Electron density                                ... TZ_1,3,4-triazole.scfp
The origin for moment calculation is the CENTER OF MASS  = ( 0.000000,  0.000000 -0.089059)

-------------
DIPOLE MOMENT
-------------
                                X             Y             Z
Electronic contribution:      0.00000      -0.00000      -0.85734
Nuclear contribution   :      0.00000       0.00000       3.20612
                        -----------------------------------------
Total Dipole Moment    :      0.00000      -0.00000       2.34878
                        -----------------------------------------
Magnitude (a.u.)       :      2.34878
Magnitude (Debye)      :      5.97012



--------------------
Rotational spectrum 
--------------------
 
Rotational constants in cm-1:     0.335181     0.333229     0.167101 
Rotational constants in MHz : 10048.483028  9989.949655  5009.565426 

 Dipole components along the rotational axes: 
x,y,z [a.u.] :     2.348779    -0.000000     0.000000 
x,y,z [Debye]:     5.970122    -0.000000     0.000000 

 

Timings for individual modules:

Sum of individual times         ...      105.508 sec (=   1.758 min)
GTO integral calculation        ...       33.014 sec (=   0.550 min)  31.3 %
SCF iterations                  ...       69.113 sec (=   1.152 min)  65.5 %
MP2 module                      ...        3.381 sec (=   0.056 min)   3.2 %
                             ****ORCA TERMINATED NORMALLY****
TOTAL RUN TIME: 0 days 0 hours 1 minutes 48 seconds 697 msec
