
                                 *****************
                                 * O   R   C   A *
                                 *****************

                                            #,                                       
                                            ###                                      
                                            ####                                     
                                            #####                                    
                                            ######                                   
                                           ########,                                 
                                     ,,################,,,,,                         
                               ,,#################################,,                 
                          ,,##########################################,,             
                       ,#########################################, ''#####,          
                    ,#############################################,,   '####,        
                  ,##################################################,,,,####,       
                ,###########''''           ''''###############################       
              ,#####''   ,,,,##########,,,,          '''####'''          '####       
            ,##' ,,,,###########################,,,                        '##       
           ' ,,###''''                  '''############,,,                           
         ,,##''                                '''############,,,,        ,,,,,,###''
      ,#''                                            '''#######################'''  
     '                                                          ''''####''''         
             ,#######,   #######,   ,#######,      ##                                
            ,#'     '#,  ##    ##  ,#'     '#,    #''#        ######   ,####,        
            ##       ##  ##   ,#'  ##            #'  '#       #        #'  '#        
            ##       ##  #######   ##           ,######,      #####,   #    #        
            '#,     ,#'  ##    ##  '#,     ,#' ,#      #,         ##   #,  ,#        
             '#######'   ##     ##  '#######'  #'      '#     #####' # '####'        



                  #######################################################
                  #                        -***-                        #
                  #          Department of theory and spectroscopy      #
                  #    Directorship and core code : Frank Neese         #
                  #        Max Planck Institute fuer Kohlenforschung    #
                  #                Kaiser Wilhelm Platz 1               #
                  #                 D-45470 Muelheim/Ruhr               #
                  #                      Germany                        #
                  #                                                     #
                  #                  All rights reserved                #
                  #                        -***-                        #
                  #######################################################


                         Program Version 5.0.3 -  RELEASE  -


 With contributions from (in alphabetic order):
   Daniel Aravena         : Magnetic Suceptibility
   Michael Atanasov       : Ab Initio Ligand Field Theory (pilot matlab implementation)
   Alexander A. Auer      : GIAO ZORA, VPT2 properties, NMR spectrum
   Ute Becker             : Parallelization
   Giovanni Bistoni       : ED, misc. LED, open-shell LED, HFLD
   Martin Brehm           : Molecular dynamics
   Dmytro Bykov           : SCF Hessian
   Vijay G. Chilkuri      : MRCI spin determinant printing, contributions to CSF-ICE
   Dipayan Datta          : RHF DLPNO-CCSD density
   Achintya Kumar Dutta   : EOM-CC, STEOM-CC
   Dmitry Ganyushin       : Spin-Orbit,Spin-Spin,Magnetic field MRCI
   Miquel Garcia          : C-PCM and meta-GGA Hessian, CC/C-PCM, Gaussian charge scheme
   Yang Guo               : DLPNO-NEVPT2, F12-NEVPT2, CIM, IAO-localization
   Andreas Hansen         : Spin unrestricted coupled pair/coupled cluster methods
   Benjamin Helmich-Paris : MC-RPA, TRAH-SCF, COSX integrals
   Lee Huntington         : MR-EOM, pCC
   Robert Izsak           : Overlap fitted RIJCOSX, COSX-SCS-MP3, EOM
   Marcus Kettner         : VPT2
   Christian Kollmar      : KDIIS, OOCD, Brueckner-CCSD(T), CCSD density, CASPT2, CASPT2-K
   Simone Kossmann        : Meta GGA functionals, TD-DFT gradient, OOMP2, MP2 Hessian
   Martin Krupicka        : Initial AUTO-CI
   Lucas Lang             : DCDCAS
   Marvin Lechner         : AUTO-CI (C++ implementation), FIC-MRCC
   Dagmar Lenk            : GEPOL surface, SMD
   Dimitrios Liakos       : Extrapolation schemes; Compound Job, initial MDCI parallelization
   Dimitrios Manganas     : Further ROCIS development; embedding schemes
   Dimitrios Pantazis     : SARC Basis sets
   Anastasios Papadopoulos: AUTO-CI, single reference methods and gradients
   Taras Petrenko         : DFT Hessian,TD-DFT gradient, ASA, ECA, R-Raman, ABS, FL, XAS/XES, NRVS
   Peter Pinski           : DLPNO-MP2, DLPNO-MP2 Gradient
   Christoph Reimann      : Effective Core Potentials
   Marius Retegan         : Local ZFS, SOC
   Christoph Riplinger    : Optimizer, TS searches, QM/MM, DLPNO-CCSD(T), (RO)-DLPNO pert. Triples
   Tobias Risthaus        : Range-separated hybrids, TD-DFT gradient, RPA, STAB
   Michael Roemelt        : Original ROCIS implementation
   Masaaki Saitow         : Open-shell DLPNO-CCSD energy and density
   Barbara Sandhoefer     : DKH picture change effects
   Avijit Sen             : IP-ROCIS
   Kantharuban Sivalingam : CASSCF convergence, NEVPT2, FIC-MRCI
   Bernardo de Souza      : ESD, SOC TD-DFT
   Georgi Stoychev        : AutoAux, RI-MP2 NMR, DLPNO-MP2 response
   Willem Van den Heuvel  : Paramagnetic NMR
   Boris Wezisla          : Elementary symmetry handling
   Frank Wennmohs         : Technical directorship


 We gratefully acknowledge several colleagues who have allowed us to
 interface, adapt or use parts of their codes:
   Stefan Grimme, W. Hujo, H. Kruse, P. Pracht,  : VdW corrections, initial TS optimization,
                  C. Bannwarth, S. Ehlert          DFT functionals, gCP, sTDA/sTD-DF
   Ed Valeev, F. Pavosevic, A. Kumar             : LibInt (2-el integral package), F12 methods
   Garnet Chan, S. Sharma, J. Yang, R. Olivares  : DMRG
   Ulf Ekstrom                                   : XCFun DFT Library
   Mihaly Kallay                                 : mrcc  (arbitrary order and MRCC methods)
   Jiri Pittner, Ondrej Demel                    : Mk-CCSD
   Frank Weinhold                                : gennbo (NPA and NBO analysis)
   Christopher J. Cramer and Donald G. Truhlar   : smd solvation model
   Lars Goerigk                                  : TD-DFT with DH, B97 family of functionals
   V. Asgeirsson, H. Jonsson                     : NEB implementation
   FAccTs GmbH                                   : IRC, NEB, NEB-TS, DLPNO-Multilevel, CI-OPT
                                                   MM, QMMM, 2- and 3-layer-ONIOM, Crystal-QMMM,
                                                   LR-CPCM, SF, NACMEs, symmetry and pop. for TD-DFT,
                                                   nearIR, NL-DFT gradient (VV10), updates on ESD,
                                                   ML-optimized integration grids
   S Lehtola, MJT Oliveira, MAL Marques          : LibXC Library
   Liviu Ungur et al                             : ANISO software


 Your calculation uses the libint2 library for the computation of 2-el integrals
 For citations please refer to: http://libint.valeyev.net

 Your ORCA version has been built with support for libXC version: 5.1.0
 For citations please refer to: https://tddft.org/programs/libxc/

 This ORCA versions uses:
   CBLAS   interface :  Fast vector & matrix operations
   LAPACKE interface :  Fast linear algebra routines
   SCALAPACK package :  Parallel linear algebra routines
   Shared memory     :  Shared parallel matrices
   BLAS/LAPACK       :  OpenBLAS 0.3.15  USE64BITINT DYNAMIC_ARCH NO_AFFINITY SkylakeX SINGLE_THREADED
        Core in use  :  SkylakeX
   Copyright (c) 2011-2014, The OpenBLAS Project


================================================================================

----- Orbital basis set information -----
Your calculation utilizes the basis: aug-cc-pVTZ 
    H, B-Ne : Obtained from the ccRepo (grant-hill.group.shef.ac.uk/ccrepo) Feb. 2017
              R. A. Kendall, T. H. Dunning, Jr., R. J. Harrison, J. Chem. Phys. 96, 6796 (1992)
         He : Obtained from the ccRepo (grant-hill.group.shef.ac.uk/ccrepo) Feb. 2017
              D. E. Woon, T. H. Dunning, Jr., J. Chem. Phys. 100, 2975 (1994)
  Li-Be, Na : Obtained from the ccRepo (grant-hill.group.shef.ac.uk/ccrepo) Feb. 2017
              B. P. Prascher, D. E. Woon, K. A. Peterson, T. H. Dunning, Jr., A. K. Wilson, Theor. Chem. Acc. 128, 69 (2011)
         Mg : Obtained from the Peterson Research Group Website (tyr0.chem.wsu.edu/~kipeters) Feb. 2017
              B. P. Prascher, D. E. Woon, K. A. Peterson, T. H. Dunning, Jr., A. K. Wilson, Theor. Chem. Acc. 128, 69 (2011)
      Al-Ar : Obtained from the ccRepo (grant-hill.group.shef.ac.uk/ccrepo) Feb. 2017
              D. E. Woon, T. H. Dunning, Jr., J. Chem. Phys. 98, 1358 (1993)
      Sc-Zn : Obtained from the ccRepo (grant-hill.group.shef.ac.uk/ccrepo) Feb. 2017
              N. B. Balabanov, K. A. Peterson, J. Chem. Phys. 123, 064107 (2005)
              N. B. Balabanov, K. A. Peterson, J. Chem. Phys. 125, 074110 (2006)
      Ga-Kr : Obtained from the ccRepo (grant-hill.group.shef.ac.uk/ccrepo) Feb. 2017
              A. K. Wilson, D. E. Woon, K. A. Peterson, T. H. Dunning, Jr., J. Chem. Phys. 110, 7667 (1999)
     Ag, Au : Obtained from the Peterson Research Group Website (tyr0.chem.wsu.edu/~kipeters) Feb. 2017
              K. A. Peterson, C. Puzzarini, Theor. Chem. Acc. 114, 283 (2005)

----- AuxC basis set information -----
Your calculation utilizes the auxiliary basis: aug-cc-pVTZ/C 
  H-He, B-F, Al-Ar, Ga-Kr : Obtained from the EMSL Basis Set Exchange (bse.pnl.gov) Feb. 2017
                            F. Weigend, A. Kohn, C. Hattig, J. Chem. Phys. 116, 3175 (2002)
                   Be, Mg : Obtained from the TURBOMOLE 7.0 basis set library
                            C. Haettig, Phys. Chem. Chem. Phys. 7, 59 (2005)
                       Ne : Obtained from the EMSL Basis Set Exchange (bse.pnl.gov) Feb. 2017
                            C. Haettig, Phys. Chem. Chem. Phys. 7, 59 (2005)
                            F. Weigend, A. Kohn, C. Hattig, J. Chem. Phys. 116, 3175 (2002)
                    Sc-Zn : Obtained from the EMSL Basis Set Exchange (bse.pnl.gov) Feb. 2017
                            J. G. Hill, J. A. Platts, J. Chem. Phys. 128, 044104 (2008)

================================================================================
                                        WARNINGS
                       Please study these warnings very carefully!
================================================================================


WARNING: No MP2 level density has been requested!
         To caclulate MP2 level properties use
         %mp2 Density relaxed end
         or
         %mp2 Density unrelaxed end

WARNING: Post HF methods need fully converged wavefunctions
  ===> : Setting SCFConvForced true
         You can overwrite this default with %scf ConvForced false 


INFO   : the flag for use of the SHARK integral package has been found!

================================================================================
                                       INPUT FILE
================================================================================
NAME = TZ_2-methyl-3-pentanol.inp
|  1> !ri-mp2 aug-cc-pvtz aug-cc-pvtz/c tightscf
|  2> %pal nprocs 16 end
|  3> 
|  4> * xyz 0 1
|  5> C     -2.743598    0.279380    0.263321
|  6> C      1.527637    1.583398    0.042847
|  7> C      2.226050   -0.822775    0.228502
|  8> C     -1.371578    0.649289   -0.298578
|  9> C      1.159473    0.137171   -0.308936
| 10> C     -0.242383   -0.258067    0.197134
| 11> O     -0.529559   -1.629626   -0.112600
| 12> H     -3.515575    0.944672   -0.125339
| 13> H     -2.752787    0.361074    1.352137
| 14> H     -3.015995   -0.743733    0.008715
| 15> H      0.893332    2.312783   -0.458542
| 16> H      1.450647    1.753470    1.119924
| 17> H      2.558304    1.792091   -0.246918
| 18> H      3.203847   -0.588092   -0.194843
| 19> H      1.989120   -1.858593   -0.004759
| 20> H      2.306790   -0.736724    1.315244
| 21> H     -1.393282    0.611750   -1.394424
| 22> H     -1.144600    1.683054   -0.034580
| 23> H      1.140378    0.049342   -1.403355
| 24> H     -0.228904   -0.235027    1.291831
| 25> H     -0.588412   -1.719433   -1.070029
| 26> *
| 27> 
| 28>                          ****END OF INPUT****
================================================================================

                       ****************************
                       * Single Point Calculation *
                       ****************************

---------------------------------
CARTESIAN COORDINATES (ANGSTROEM)
---------------------------------
  C     -2.743598    0.279380    0.263321
  C      1.527637    1.583398    0.042847
  C      2.226050   -0.822775    0.228502
  C     -1.371578    0.649289   -0.298578
  C      1.159473    0.137171   -0.308936
  C     -0.242383   -0.258067    0.197134
  O     -0.529559   -1.629626   -0.112600
  H     -3.515575    0.944672   -0.125339
  H     -2.752787    0.361074    1.352137
  H     -3.015995   -0.743733    0.008715
  H      0.893332    2.312783   -0.458542
  H      1.450647    1.753470    1.119924
  H      2.558304    1.792091   -0.246918
  H      3.203847   -0.588092   -0.194843
  H      1.989120   -1.858593   -0.004759
  H      2.306790   -0.736724    1.315244
  H     -1.393282    0.611750   -1.394424
  H     -1.144600    1.683054   -0.034580
  H      1.140378    0.049342   -1.403355
  H     -0.228904   -0.235027    1.291831
  H     -0.588412   -1.719433   -1.070029

----------------------------
CARTESIAN COORDINATES (A.U.)
----------------------------
  NO LB      ZA    FRAG     MASS         X           Y           Z
   0 C     6.0000    0    12.011   -5.184649    0.527952    0.497605
   1 C     6.0000    0    12.011    2.886816    2.992189    0.080969
   2 C     6.0000    0    12.011    4.206625   -1.554819    0.431806
   3 C     6.0000    0    12.011   -2.591907    1.226978   -0.564231
   4 C     6.0000    0    12.011    2.191086    0.259216   -0.583804
   5 C     6.0000    0    12.011   -0.458037   -0.487676    0.372529
   6 O     8.0000    0    15.999   -1.000721   -3.079547   -0.212783
   7 H     1.0000    0     1.008   -6.643474    1.785171   -0.236856
   8 H     1.0000    0     1.008   -5.202014    0.682331    2.555169
   9 H     1.0000    0     1.008   -5.699405   -1.405452    0.016469
  10 H     1.0000    0     1.008    1.688153    4.370526   -0.866519
  11 H     1.0000    0     1.008    2.741326    3.313578    2.116350
  12 H     1.0000    0     1.008    4.834494    3.386561   -0.466607
  13 H     1.0000    0     1.008    6.054393   -1.111333   -0.368200
  14 H     1.0000    0     1.008    3.758892   -3.512232   -0.008993
  15 H     1.0000    0     1.008    4.359201   -1.392207    2.485451
  16 H     1.0000    0     1.008   -2.632921    1.156040   -2.635079
  17 H     1.0000    0     1.008   -2.162981    3.180511   -0.065347
  18 H     1.0000    0     1.008    2.155002    0.093243   -2.651957
  19 H     1.0000    0     1.008   -0.432566   -0.444137    2.441207
  20 H     1.0000    0     1.008   -1.111938   -3.249257   -2.022062

--------------------------------
INTERNAL COORDINATES (ANGSTROEM)
--------------------------------
 C      0   0   0     0.000000000000     0.00000000     0.00000000
 C      1   0   0     4.471299604614     0.00000000     0.00000000
 C      2   1   0     2.512352881966    89.00261360     0.00000000
 C      1   2   3     1.528071344827    18.83836440   271.25277189
 C      3   2   1     1.532293191164    34.97332700    33.26811981
 C      4   1   2     1.531047564808   113.55891231    62.33062973
 O      6   4   1     1.435123442848   110.42166008    56.74046128
 H      1   2   3     1.090696350683   118.72792473   201.52192422
 H      1   2   3     1.091915119967    92.02799989    90.05295163
 H      1   2   3     1.088937349719   120.09533564   338.39712355
 H      2   1   3     1.088915166839    70.22098843   153.68586990
 H      2   1   3     1.093136226283    85.95791363   264.41871823
 H      2   1   3     1.090775406930   166.29120143    71.11004452
 H      3   2   1     1.091047236706    90.82823064   159.79401576
 H      3   2   1     1.087871981506   146.67007007    33.02447514
 H      3   2   1     1.093129405315    91.06604841   267.43043723
 H      4   1   2     1.096703558786   109.96067294   184.15087253
 H      4   1   2     1.090818056191   109.10198911   300.20484364
 H      5   3   2     1.098103592484   108.15332237   117.72791815
 H      6   4   1     1.095022395593   108.68021639   303.51564554
 H      7   6   4     0.963430985021   108.40853122    61.68558711

---------------------------
INTERNAL COORDINATES (A.U.)
---------------------------
 C      0   0   0     0.000000000000     0.00000000     0.00000000
 C      1   0   0     8.449531715432     0.00000000     0.00000000
 C      2   1   0     4.747658898684    89.00261360     0.00000000
 C      1   2   3     2.887636354816    18.83836440   271.25277189
 C      3   2   1     2.895614488173    34.97332700    33.26811981
 C      4   1   2     2.893260595494   113.55891231    62.33062973
 O      6   4   1     2.711990275354   110.42166008    56.74046128
 H      1   2   3     2.061117398058   118.72792473   201.52192422
 H      1   2   3     2.063420538226    92.02799989    90.05295163
 H      1   2   3     2.057793367968   120.09533564   338.39712355
 H      2   1   3     2.057751448398    70.22098843   153.68586990
 H      2   1   3     2.065728094744    85.95791363   264.41871823
 H      2   1   3     2.061266792714   166.29120143    71.11004452
 H      3   2   1     2.061780476545    90.82823064   159.79401576
 H      3   2   1     2.055780113812   146.67007007    33.02447514
 H      3   2   1     2.065715204982    91.06604841   267.43043723
 H      4   1   2     2.072469376202   109.96067294   184.15087253
 H      4   1   2     2.061347388138   109.10198911   300.20484364
 H      5   3   2     2.075115056470   108.15332237   117.72791815
 H      6   4   1     2.069292438181   108.68021639   303.51564554
 H      7   6   4     1.820620710624   108.40853122    61.68558711

---------------------
BASIS SET INFORMATION
---------------------
There are 3 groups of distinct atoms

 Group   1 Type C   : 19s6p3d2f contracted to 5s4p3d2f pattern {88111/3111/111/11}
 Group   2 Type O   : 19s6p3d2f contracted to 5s4p3d2f pattern {88111/3111/111/11}
 Group   3 Type H   : 6s3p2d contracted to 4s3p2d pattern {3111/111/11}

Atom   0C    basis set group =>   1
Atom   1C    basis set group =>   1
Atom   2C    basis set group =>   1
Atom   3C    basis set group =>   1
Atom   4C    basis set group =>   1
Atom   5C    basis set group =>   1
Atom   6O    basis set group =>   2
Atom   7H    basis set group =>   3
Atom   8H    basis set group =>   3
Atom   9H    basis set group =>   3
Atom  10H    basis set group =>   3
Atom  11H    basis set group =>   3
Atom  12H    basis set group =>   3
Atom  13H    basis set group =>   3
Atom  14H    basis set group =>   3
Atom  15H    basis set group =>   3
Atom  16H    basis set group =>   3
Atom  17H    basis set group =>   3
Atom  18H    basis set group =>   3
Atom  19H    basis set group =>   3
Atom  20H    basis set group =>   3
---------------------------------
AUXILIARY/C BASIS SET INFORMATION
---------------------------------
There are 3 groups of distinct atoms

 Group   1 Type C   : 9s7p6d4f2g contracted to 9s7p6d4f2g pattern {111111111/1111111/111111/1111/11}
 Group   2 Type O   : 9s7p6d4f2g contracted to 9s7p6d4f2g pattern {111111111/1111111/111111/1111/11}
 Group   3 Type H   : 5s4p3d2f contracted to 5s4p3d2f pattern {11111/1111/111/11}

Atom   0C    basis set group =>   1
Atom   1C    basis set group =>   1
Atom   2C    basis set group =>   1
Atom   3C    basis set group =>   1
Atom   4C    basis set group =>   1
Atom   5C    basis set group =>   1
Atom   6O    basis set group =>   2
Atom   7H    basis set group =>   3
Atom   8H    basis set group =>   3
Atom   9H    basis set group =>   3
Atom  10H    basis set group =>   3
Atom  11H    basis set group =>   3
Atom  12H    basis set group =>   3
Atom  13H    basis set group =>   3
Atom  14H    basis set group =>   3
Atom  15H    basis set group =>   3
Atom  16H    basis set group =>   3
Atom  17H    basis set group =>   3
Atom  18H    basis set group =>   3
Atom  19H    basis set group =>   3
Atom  20H    basis set group =>   3


           ************************************************************
           *        Program running with 16 parallel MPI-processes    *
           *              working on a common directory               *
           ************************************************************
------------------------------------------------------------------------------
                           ORCA GTO INTEGRAL CALCULATION
------------------------------------------------------------------------------
------------------------------------------------------------------------------
                   ___                                                        
                  /   \      - P O W E R E D   B Y -                         
                 /     \                                                     
                 |  |  |   _    _      __       _____    __    __             
                 |  |  |  | |  | |    /  \     |  _  \  |  |  /  |          
                  \  \/   | |  | |   /    \    | | | |  |  | /  /          
                 / \  \   | |__| |  /  /\  \   | |_| |  |  |/  /          
                |  |  |   |  __  | /  /__\  \  |    /   |      \           
                |  |  |   | |  | | |   __   |  |    \   |  |\   \          
                \     /   | |  | | |  |  |  |  | |\  \  |  | \   \       
                 \___/    |_|  |_| |__|  |__|  |_| \__\ |__|  \__/        
                                                                              
                      - O R C A' S   B I G   F R I E N D -                    
                                      &                                       
                       - I N T E G R A L  F E E D E R -                       
                                                                              
 v1 FN, 2020, v2 2021                                                         
------------------------------------------------------------------------------


Reading SHARK input file TZ_2-methyl-3-pentanol.SHARKINP.tmp ... ok
----------------------
SHARK INTEGRAL PACKAGE
----------------------

Number of atoms                             ...     21
Number of basis functions                   ...    686
Number of shells                            ...    266
Maximum angular momentum                    ...      3
Integral batch strategy                     ... SHARK/LIBINT Hybrid
RI-J (if used) integral strategy            ... SPLIT-RIJ (Revised 2003 algorithm where possible)
Printlevel                                  ...      1
Contraction scheme used                     ... PARTIAL GENERAL contraction
Coulomb Range Separation                    ... NOT USED
Exchange Range Separation                   ... NOT USED
Finite Nucleus Model                        ... NOT USED
Auxiliary Coulomb fitting basis             ... NOT available
Auxiliary J/K fitting basis                 ... NOT available
Auxiliary Correlation fitting basis         ... AVAILABLE
   # of basis functions in Aux-C            ...   1386
   # of shells in Aux-C                     ...    392
   Maximum angular momentum in Aux-C        ...      4
Auxiliary 'external' fitting basis          ... NOT available
Integral threshold                          ...     2.500000e-11
Primitive cut-off                           ...     2.500000e-12
Primitive pair pre-selection threshold      ...     2.500000e-12

Calculating pre-screening integrals         ... done (  0.0 sec) Dimension = 266
Calculating pre-screening integrals (ORCA)  ... done (  0.1 sec) Dimension = 224
Organizing shell pair data                  ... done (  0.3 sec)
Shell pair information
Total number of shell pairs                 ...     35511
Shell pairs after pre-screening             ...     31680
Total number of primitive shell pairs       ...     47649
Primitive shell pairs kept                  ...     39319
          la=0 lb=0:   7150 shell pairs
          la=1 lb=0:   8371 shell pairs
          la=1 lb=1:   2375 shell pairs
          la=2 lb=0:   5873 shell pairs
          la=2 lb=1:   3264 shell pairs
          la=2 lb=2:   1162 shell pairs
          la=3 lb=0:   1755 shell pairs
          la=3 lb=1:    955 shell pairs
          la=3 lb=2:    670 shell pairs
          la=3 lb=3:    105 shell pairs

Calculating one electron integrals          ... done (  0.0 sec)
Calculating RI/C V-Matrix + Cholesky decomp.... done (  0.1 sec)
Calculating Nuclear repulsion               ... done (  0.0 sec) ENN=    335.603745128581 Eh

SHARK setup successfully completed in   1.0 seconds

Maximum memory used throughout the entire GTOINT-calculation: 41.7 MB


           ************************************************************
           *        Program running with 16 parallel MPI-processes    *
           *              working on a common directory               *
           ************************************************************
-------------------------------------------------------------------------------
                                 ORCA SCF
-------------------------------------------------------------------------------

------------
SCF SETTINGS
------------
Hamiltonian:
 Ab initio Hamiltonian  Method          .... Hartree-Fock(GTOs)


General Settings:
 Integral files         IntName         .... TZ_2-methyl-3-pentanol
 Hartree-Fock type      HFTyp           .... RHF
 Total Charge           Charge          ....    0
 Multiplicity           Mult            ....    1
 Number of Electrons    NEL             ....   58
 Basis Dimension        Dim             ....  644
 Nuclear Repulsion      ENuc            ....    335.6037451286 Eh

Convergence Acceleration:
 DIIS                   CNVDIIS         .... on
   Start iteration      DIISMaxIt       ....    12
   Startup error        DIISStart       ....  0.200000
   # of expansion vecs  DIISMaxEq       ....     5
   Bias factor          DIISBfac        ....   1.050
   Max. coefficient     DIISMaxC        ....  10.000
 Trust-Rad. Augm. Hess. CNVTRAH         .... auto
   Auto Start mean grad. ratio tolernc. ....  1.125000
   Auto Start start iteration           ....    20
   Auto Start num. interpolation iter.  ....    10
   Max. Number of Micro iterations      ....    16
   Max. Number of Macro iterations      .... Maxiter - #DIIS iter
   Number of Davidson start vectors     ....     2
   Converg. threshold I  (grad. norm)   ....   1.000e-05
   Converg. threshold II (energy diff.) ....   1.000e-08
   Grad. Scal. Fac. for Micro threshold ....   0.100
   Minimum threshold for Micro iter.    ....   0.010
   NR start threshold (gradient norm)   ....   0.001
   Initial trust radius                 ....   0.400
   Minimum AH scaling param. (alpha)    ....   1.000
   Maximum AH scaling param. (alpha)    .... 1000.000
   Orbital update algorithm             .... Taylor
   White noise on init. David. guess    .... on
   Maximum white noise                  ....   0.010
   Quad. conv. algorithm                .... NR
 SOSCF                  CNVSOSCF        .... on
   Start iteration      SOSCFMaxIt      ....   150
   Startup grad/error   SOSCFStart      ....  0.003300
 Level Shifting         CNVShift        .... on
   Level shift para.    LevelShift      ....    0.2500
   Turn off err/grad.   ShiftErr        ....    0.0010
 Zerner damping         CNVZerner       .... off
 Static damping         CNVDamp         .... on
   Fraction old density DampFac         ....    0.7000
   Max. Damping (<1)    DampMax         ....    0.9800
   Min. Damping (>=0)   DampMin         ....    0.0000
   Turn off err/grad.   DampErr         ....    0.1000
 Fernandez-Rico         CNVRico         .... off

SCF Procedure:
 Maximum # iterations   MaxIter         ....   125
 SCF integral mode      SCFMode         .... Direct
   Integral package                     .... SHARK and LIBINT hybrid scheme
 Reset frequency        DirectResetFreq ....    20
 Integral Threshold     Thresh          ....  2.500e-11 Eh
 Primitive CutOff       TCut            ....  2.500e-12 Eh

Convergence Tolerance:
 Convergence Check Mode ConvCheckMode   .... Total+1el-Energy
 Convergence forced     ConvForced      .... 1
 Energy Change          TolE            ....  1.000e-08 Eh
 1-El. energy change                    ....  1.000e-05 Eh
 Orbital Gradient       TolG            ....  1.000e-05
 Orbital Rotation angle TolX            ....  1.000e-05
 DIIS Error             TolErr          ....  5.000e-07


Diagonalization of the overlap matrix:
Smallest eigenvalue                        ... 2.540e-06
Time for diagonalization                   ...    0.077 sec
Threshold for overlap eigenvalues          ... 1.000e-08
Number of eigenvalues below threshold      ... 0
Time for construction of square roots      ...    0.042 sec
Total time needed                          ...    0.122 sec

Time for model grid setup =    5.980 sec

------------------------------
INITIAL GUESS: MODEL POTENTIAL
------------------------------
Loading Hartree-Fock densities                     ... done
Calculating cut-offs                               ... done
Initializing the effective Hamiltonian             ... done
Setting up the integral package (SHARK)            ... done
Starting the Coulomb interaction                   ... done (   0.2 sec)
Reading the grid                                   ... done
Mapping shells                                     ... done
Starting the XC term evaluation                    ... done (   0.1 sec)
Transforming the Hamiltonian                       ... done (   0.0 sec)
Diagonalizing the Hamiltonian                      ... done (   0.1 sec)
Back transforming the eigenvectors                 ... done (   0.0 sec)
Now organizing SCF variables                       ... done
                      ------------------
                      INITIAL GUESS DONE (   6.4 sec)
                      ------------------
--------------
SCF ITERATIONS
--------------
ITER       Energy         Delta-E        Max-DP      RMS-DP      [F,P]     Damp
               ***  Starting incremental Fock matrix formation  ***
  0   -309.8993951152   0.000000000000 0.05370533  0.00073656  0.3007132 0.7000
  1   -310.0534722412  -0.154077125991 0.04080546  0.00059773  0.1848930 0.7000
                               ***Turning on DIIS***
  2   -310.1462581012  -0.092785859981 0.02990631  0.00043990  0.1097871 0.7000
  3   -311.1328534431  -0.986595341850 0.07918267  0.00115718  0.0824622 0.0000
  4   -310.2111273703   0.921726072770 0.01603644  0.00014804  0.0082809 0.0000
                      *** Initiating the SOSCF procedure ***
                           *** Shutting down DIIS ***
                      *** Re-Reading the Fockian *** 
                      *** Removing any level shift *** 
ITER      Energy       Delta-E        Grad      Rot      Max-DP    RMS-DP
  5   -310.32178298  -0.1106556059  0.001101  0.001101  0.007082  0.000070
               *** Restarting incremental Fock matrix formation ***
  6   -310.33640000  -0.0146170207  0.000265  0.000387  0.002284  0.000022
  7   -310.33642628  -0.0000262793  0.000129  0.000282  0.001258  0.000014
  8   -310.33643050  -0.0000042285  0.000060  0.000038  0.000195  0.000003
  9   -310.33643091  -0.0000004030  0.000013  0.000007  0.000055  0.000001
 10   -310.33643093  -0.0000000203  0.000003  0.000005  0.000023  0.000000
                  ***Gradient check signals convergence***
              ***Rediagonalizing the Fockian in SOSCF/NRSCF***

               *****************************************************
               *                     SUCCESS                       *
               *           SCF CONVERGED AFTER  11 CYCLES          *
               *****************************************************


----------------
TOTAL SCF ENERGY
----------------

Total Energy       :         -310.33643094 Eh           -8444.68361 eV

Components:
Nuclear Repulsion  :          335.60374513 Eh            9132.24218 eV
Electronic Energy  :         -645.94017607 Eh          -17576.92578 eV
One Electron Energy:        -1086.13144355 Eh          -29555.13913 eV
Two Electron Energy:          440.19126748 Eh           11978.21335 eV

Virial components:
Potential Energy   :         -620.27182732 Eh          -16878.45451 eV
Kinetic Energy     :          309.93539638 Eh            8433.77090 eV
Virial Ratio       :            2.00129393


---------------
SCF CONVERGENCE
---------------

  Last Energy change         ...   -1.1539e-08  Tolerance :   1.0000e-08
  Last MAX-Density change    ...    5.6586e-05  Tolerance :   1.0000e-07
  Last RMS-Density change    ...    4.7310e-07  Tolerance :   5.0000e-09
  Last Orbital Gradient      ...    7.8443e-07  Tolerance :   1.0000e-05
  Last Orbital Rotation      ...    1.9105e-06  Tolerance :   1.0000e-05

             **** THE GBW FILE WAS UPDATED (TZ_2-methyl-3-pentanol.gbw) ****
             **** DENSITY TZ_2-methyl-3-pentanol.scfp WAS UPDATED ****
             **** ENERGY FILE WAS UPDATED (TZ_2-methyl-3-pentanol.en.tmp) ****
             **** THE GBW FILE WAS UPDATED (TZ_2-methyl-3-pentanol.gbw) ****
             **** DENSITY TZ_2-methyl-3-pentanol.scfp WAS UPDATED ****
----------------
ORBITAL ENERGIES
----------------

  NO   OCC          E(Eh)            E(eV) 
   0   2.0000     -20.550082      -559.1962 
   1   2.0000     -11.274203      -306.7867 
   2   2.0000     -11.227704      -305.5214 
   3   2.0000     -11.220214      -305.3175 
   4   2.0000     -11.214483      -305.1616 
   5   2.0000     -11.208710      -305.0045 
   6   2.0000     -11.205411      -304.9147 
   7   2.0000      -1.353415       -36.8283 
   8   2.0000      -1.085193       -29.5296 
   9   2.0000      -1.031944       -28.0806 
  10   2.0000      -0.928238       -25.2586 
  11   2.0000      -0.913644       -24.8615 
  12   2.0000      -0.819037       -22.2871 
  13   2.0000      -0.782914       -21.3042 
  14   2.0000      -0.655472       -17.8363 
  15   2.0000      -0.641887       -17.4666 
  16   2.0000      -0.625778       -17.0283 
  17   2.0000      -0.609399       -16.5826 
  18   2.0000      -0.571422       -15.5492 
  19   2.0000      -0.553743       -15.0681 
  20   2.0000      -0.543904       -14.8004 
  21   2.0000      -0.533517       -14.5177 
  22   2.0000      -0.515908       -14.0386 
  23   2.0000      -0.502885       -13.6842 
  24   2.0000      -0.486774       -13.2458 
  25   2.0000      -0.478224       -13.0131 
  26   2.0000      -0.471338       -12.8258 
  27   2.0000      -0.447854       -12.1867 
  28   2.0000      -0.421152       -11.4601 
  29   0.0000       0.028332         0.7710 
  30   0.0000       0.033409         0.9091 
  31   0.0000       0.035091         0.9549 
  32   0.0000       0.038382         1.0444 
  33   0.0000       0.051233         1.3941 
  34   0.0000       0.052781         1.4362 
  35   0.0000       0.053373         1.4523 
  36   0.0000       0.056061         1.5255 
  37   0.0000       0.059362         1.6153 
  38   0.0000       0.072718         1.9788 
  39   0.0000       0.076543         2.0828 
  40   0.0000       0.078690         2.1413 
  41   0.0000       0.080490         2.1902 
  42   0.0000       0.093547         2.5455 
  43   0.0000       0.111843         3.0434 
  44   0.0000       0.116440         3.1685 
  45   0.0000       0.119862         3.2616 
  46   0.0000       0.123013         3.3474 
  47   0.0000       0.124215         3.3801 
  48   0.0000       0.132212         3.5977 
  49   0.0000       0.134045         3.6475 
  50   0.0000       0.137909         3.7527 
  51   0.0000       0.142351         3.8736 
  52   0.0000       0.150481         4.0948 
  53   0.0000       0.151106         4.1118 
  54   0.0000       0.154778         4.2117 
  55   0.0000       0.156437         4.2569 
  56   0.0000       0.162121         4.4115 
  57   0.0000       0.162779         4.4294 
  58   0.0000       0.167235         4.5507 
  59   0.0000       0.176538         4.8038 
  60   0.0000       0.182389         4.9630 
  61   0.0000       0.195296         5.3143 
  62   0.0000       0.204586         5.5671 
  63   0.0000       0.207445         5.6449 
  64   0.0000       0.216086         5.8800 
  65   0.0000       0.217491         5.9182 
  66   0.0000       0.222470         6.0537 
  67   0.0000       0.245639         6.6842 
  68   0.0000       0.247238         6.7277 
  69   0.0000       0.253275         6.8920 
  70   0.0000       0.263295         7.1646 
  71   0.0000       0.266390         7.2488 
  72   0.0000       0.270104         7.3499 
  73   0.0000       0.276174         7.5151 
  74   0.0000       0.277948         7.5633 
  75   0.0000       0.285364         7.7651 
  76   0.0000       0.294845         8.0232 
  77   0.0000       0.299137         8.1399 
  78   0.0000       0.305447         8.3116 
  79   0.0000       0.314030         8.5452 
  80   0.0000       0.317919         8.6510 
  81   0.0000       0.325392         8.8544 
  82   0.0000       0.330524         8.9940 
  83   0.0000       0.338000         9.1975 
  84   0.0000       0.344336         9.3699 
  85   0.0000       0.349444         9.5088 
  86   0.0000       0.354732         9.6528 
  87   0.0000       0.358158         9.7460 
  88   0.0000       0.362423         9.8620 
  89   0.0000       0.367799        10.0083 
  90   0.0000       0.370356        10.0779 
  91   0.0000       0.374628        10.1942 
  92   0.0000       0.376920        10.2565 
  93   0.0000       0.378909        10.3106 
  94   0.0000       0.380836        10.3631 
  95   0.0000       0.385911        10.5012 
  96   0.0000       0.391448        10.6518 
  97   0.0000       0.399272        10.8647 
  98   0.0000       0.404541        11.0081 
  99   0.0000       0.411882        11.2079 
 100   0.0000       0.414227        11.2717 
 101   0.0000       0.419408        11.4127 
 102   0.0000       0.425529        11.5792 
 103   0.0000       0.427469        11.6320 
 104   0.0000       0.429812        11.6958 
 105   0.0000       0.434831        11.8323 
 106   0.0000       0.442583        12.0433 
 107   0.0000       0.445093        12.1116 
 108   0.0000       0.448416        12.2020 
 109   0.0000       0.454910        12.3787 
 110   0.0000       0.458129        12.4663 
 111   0.0000       0.460521        12.5314 
 112   0.0000       0.469514        12.7761 
 113   0.0000       0.474566        12.9136 
 114   0.0000       0.475456        12.9378 
 115   0.0000       0.482960        13.1420 
 116   0.0000       0.487370        13.2620 
 117   0.0000       0.489261        13.3135 
 118   0.0000       0.493982        13.4419 
 119   0.0000       0.497389        13.5346 
 120   0.0000       0.503786        13.7087 
 121   0.0000       0.506193        13.7742 
 122   0.0000       0.514674        14.0050 
 123   0.0000       0.517030        14.0691 
 124   0.0000       0.519933        14.1481 
 125   0.0000       0.526002        14.3132 
 126   0.0000       0.529431        14.4065 
 127   0.0000       0.530935        14.4475 
 128   0.0000       0.536646        14.6029 
 129   0.0000       0.544374        14.8132 
 130   0.0000       0.547077        14.8867 
 131   0.0000       0.558531        15.1984 
 132   0.0000       0.563392        15.3307 
 133   0.0000       0.569490        15.4966 
 134   0.0000       0.575424        15.6581 
 135   0.0000       0.578447        15.7403 
 136   0.0000       0.580668        15.8008 
 137   0.0000       0.590398        16.0655 
 138   0.0000       0.596213        16.2238 
 139   0.0000       0.602511        16.3952 
 140   0.0000       0.609433        16.5835 
 141   0.0000       0.612806        16.6753 
 142   0.0000       0.614371        16.7179 
 143   0.0000       0.619482        16.8570 
 144   0.0000       0.630728        17.1630 
 145   0.0000       0.633081        17.2270 
 146   0.0000       0.644472        17.5370 
 147   0.0000       0.648440        17.6450 
 148   0.0000       0.658035        17.9060 
 149   0.0000       0.663372        18.0513 
 150   0.0000       0.669438        18.2163 
 151   0.0000       0.676113        18.3980 
 152   0.0000       0.681581        18.5468 
 153   0.0000       0.685739        18.6599 
 154   0.0000       0.699569        19.0362 
 155   0.0000       0.707800        19.2602 
 156   0.0000       0.716284        19.4911 
 157   0.0000       0.723382        19.6842 
 158   0.0000       0.745450        20.2847 
 159   0.0000       0.748016        20.3546 
 160   0.0000       0.756660        20.5898 
 161   0.0000       0.773123        21.0377 
 162   0.0000       0.775777        21.1100 
 163   0.0000       0.779366        21.2076 
 164   0.0000       0.800349        21.7786 
 165   0.0000       0.807843        21.9825 
 166   0.0000       0.810044        22.0424 
 167   0.0000       0.819265        22.2933 
 168   0.0000       0.830977        22.6120 
 169   0.0000       0.838598        22.8194 
 170   0.0000       0.847567        23.0635 
 171   0.0000       0.849275        23.1100 
 172   0.0000       0.855510        23.2796 
 173   0.0000       0.863872        23.5071 
 174   0.0000       0.866258        23.5721 
 175   0.0000       0.872182        23.7333 
 176   0.0000       0.879732        23.9387 
 177   0.0000       0.886336        24.1184 
 178   0.0000       0.896281        24.3890 
 179   0.0000       0.897921        24.4337 
 180   0.0000       0.906291        24.6614 
 181   0.0000       0.915295        24.9064 
 182   0.0000       0.918813        25.0022 
 183   0.0000       0.924720        25.1629 
 184   0.0000       0.930687        25.3253 
 185   0.0000       0.934095        25.4180 
 186   0.0000       0.941171        25.6106 
 187   0.0000       0.950423        25.8623 
 188   0.0000       0.955190        25.9920 
 189   0.0000       0.958551        26.0835 
 190   0.0000       0.962834        26.2000 
 191   0.0000       0.964618        26.2486 
 192   0.0000       0.975208        26.5367 
 193   0.0000       0.979762        26.6607 
 194   0.0000       0.985348        26.8127 
 195   0.0000       0.989265        26.9193 
 196   0.0000       0.996157        27.1068 
 197   0.0000       0.999487        27.1974 
 198   0.0000       1.007258        27.4089 
 199   0.0000       1.018813        27.7233 
 200   0.0000       1.027998        27.9732 
 201   0.0000       1.032401        28.0931 
 202   0.0000       1.035241        28.1703 
 203   0.0000       1.038638        28.2628 
 204   0.0000       1.055074        28.7100 
 205   0.0000       1.061791        28.8928 
 206   0.0000       1.066228        29.0135 
 207   0.0000       1.067681        29.0531 
 208   0.0000       1.073136        29.2015 
 209   0.0000       1.082582        29.4586 
 210   0.0000       1.089096        29.6358 
 211   0.0000       1.099082        29.9075 
 212   0.0000       1.108835        30.1729 
 213   0.0000       1.110722        30.2243 
 214   0.0000       1.117256        30.4021 
 215   0.0000       1.123440        30.5703 
 216   0.0000       1.128468        30.7072 
 217   0.0000       1.140413        31.0322 
 218   0.0000       1.151168        31.3249 
 219   0.0000       1.156665        31.4744 
 220   0.0000       1.161775        31.6135 
 221   0.0000       1.166008        31.7287 
 222   0.0000       1.171441        31.8765 
 223   0.0000       1.177434        32.0396 
 224   0.0000       1.181995        32.1637 
 225   0.0000       1.189039        32.3554 
 226   0.0000       1.192024        32.4366 
 227   0.0000       1.200512        32.6676 
 228   0.0000       1.209646        32.9161 
 229   0.0000       1.214871        33.0583 
 230   0.0000       1.217855        33.1395 
 231   0.0000       1.224978        33.3333 
 232   0.0000       1.232331        33.5334 
 233   0.0000       1.238256        33.6947 
 234   0.0000       1.249469        33.9998 
 235   0.0000       1.259077        34.2612 
 236   0.0000       1.266749        34.4700 
 237   0.0000       1.277740        34.7691 
 238   0.0000       1.284284        34.9471 
 239   0.0000       1.289845        35.0985 
 240   0.0000       1.294149        35.2156 
 241   0.0000       1.307421        35.5767 
 242   0.0000       1.314945        35.7815 
 243   0.0000       1.320868        35.9426 
 244   0.0000       1.322905        35.9981 
 245   0.0000       1.336346        36.3638 
 246   0.0000       1.339549        36.4510 
 247   0.0000       1.343833        36.5676 
 248   0.0000       1.353220        36.8230 
 249   0.0000       1.366849        37.1938 
 250   0.0000       1.377578        37.4858 
 251   0.0000       1.383147        37.6373 
 252   0.0000       1.391745        37.8713 
 253   0.0000       1.402098        38.1530 
 254   0.0000       1.409753        38.3613 
 255   0.0000       1.414969        38.5033 
 256   0.0000       1.423598        38.7381 
 257   0.0000       1.437745        39.1230 
 258   0.0000       1.444445        39.3053 
 259   0.0000       1.451021        39.4843 
 260   0.0000       1.453128        39.5416 
 261   0.0000       1.464287        39.8453 
 262   0.0000       1.473973        40.1088 
 263   0.0000       1.478144        40.2223 
 264   0.0000       1.486135        40.4398 
 265   0.0000       1.503011        40.8990 
 266   0.0000       1.512249        41.1504 
 267   0.0000       1.520935        41.3867 
 268   0.0000       1.530375        41.6436 
 269   0.0000       1.534242        41.7488 
 270   0.0000       1.540460        41.9181 
 271   0.0000       1.548971        42.1497 
 272   0.0000       1.565858        42.6092 
 273   0.0000       1.573573        42.8191 
 274   0.0000       1.580686        43.0127 
 275   0.0000       1.592724        43.3402 
 276   0.0000       1.596966        43.4556 
 277   0.0000       1.603635        43.6371 
 278   0.0000       1.611875        43.8614 
 279   0.0000       1.627145        44.2769 
 280   0.0000       1.632675        44.4274 
 281   0.0000       1.636701        44.5369 
 282   0.0000       1.652745        44.9735 
 283   0.0000       1.656847        45.0851 
 284   0.0000       1.672607        45.5140 
 285   0.0000       1.682366        45.7795 
 286   0.0000       1.690086        45.9896 
 287   0.0000       1.697027        46.1785 
 288   0.0000       1.698295        46.2130 
 289   0.0000       1.701747        46.3069 
 290   0.0000       1.711546        46.5735 
 291   0.0000       1.716377        46.7050 
 292   0.0000       1.724247        46.9191 
 293   0.0000       1.730463        47.0883 
 294   0.0000       1.736708        47.2582 
 295   0.0000       1.740725        47.3675 
 296   0.0000       1.750979        47.6466 
 297   0.0000       1.754154        47.7330 
 298   0.0000       1.764911        48.0257 
 299   0.0000       1.766366        48.0653 
 300   0.0000       1.769770        48.1579 
 301   0.0000       1.778249        48.3886 
 302   0.0000       1.795991        48.8714 
 303   0.0000       1.801755        49.0283 
 304   0.0000       1.803955        49.0881 
 305   0.0000       1.818204        49.4758 
 306   0.0000       1.824138        49.6373 
 307   0.0000       1.830260        49.8039 
 308   0.0000       1.852070        50.3974 
 309   0.0000       1.854859        50.4733 
 310   0.0000       1.863845        50.7178 
 311   0.0000       1.866724        50.7961 
 312   0.0000       1.873716        50.9864 
 313   0.0000       1.878702        51.1221 
 314   0.0000       1.895194        51.5708 
 315   0.0000       1.909115        51.9497 
 316   0.0000       1.914307        52.0909 
 317   0.0000       1.920346        52.2553 
 318   0.0000       1.931613        52.5619 
 319   0.0000       1.939215        52.7687 
 320   0.0000       1.940910        52.8148 
 321   0.0000       1.951706        53.1086 
 322   0.0000       1.958782        53.3012 
 323   0.0000       1.964650        53.4609 
 324   0.0000       1.973235        53.6944 
 325   0.0000       1.989186        54.1285 
 326   0.0000       1.996716        54.3334 
 327   0.0000       2.001971        54.4764 
 328   0.0000       2.011352        54.7317 
 329   0.0000       2.014142        54.8076 
 330   0.0000       2.026251        55.1371 
 331   0.0000       2.037193        55.4348 
 332   0.0000       2.043288        55.6007 
 333   0.0000       2.053636        55.8823 
 334   0.0000       2.064286        56.1721 
 335   0.0000       2.077064        56.5198 
 336   0.0000       2.082260        56.6612 
 337   0.0000       2.092756        56.9468 
 338   0.0000       2.098919        57.1145 
 339   0.0000       2.108699        57.3806 
 340   0.0000       2.133109        58.0448 
 341   0.0000       2.135316        58.1049 
 342   0.0000       2.147037        58.4238 
 343   0.0000       2.153228        58.5923 
 344   0.0000       2.159343        58.7587 
 345   0.0000       2.171568        59.0914 
 346   0.0000       2.187358        59.5210 
 347   0.0000       2.198411        59.8218 
 348   0.0000       2.224311        60.5266 
 349   0.0000       2.230387        60.6919 
 350   0.0000       2.247126        61.1474 
 351   0.0000       2.255687        61.3804 
 352   0.0000       2.264149        61.6106 
 353   0.0000       2.271274        61.8045 
 354   0.0000       2.277091        61.9628 
 355   0.0000       2.291709        62.3606 
 356   0.0000       2.293507        62.4095 
 357   0.0000       2.307706        62.7959 
 358   0.0000       2.311446        62.8976 
 359   0.0000       2.320352        63.1400 
 360   0.0000       2.328644        63.3656 
 361   0.0000       2.346376        63.8481 
 362   0.0000       2.350723        63.9664 
 363   0.0000       2.363764        64.3213 
 364   0.0000       2.366414        64.3934 
 365   0.0000       2.377285        64.6892 
 366   0.0000       2.403839        65.4118 
 367   0.0000       2.409182        65.5572 
 368   0.0000       2.428347        66.0787 
 369   0.0000       2.436315        66.2955 
 370   0.0000       2.458157        66.8898 
 371   0.0000       2.490498        67.7699 
 372   0.0000       2.491251        67.7904 
 373   0.0000       2.501076        68.0577 
 374   0.0000       2.509075        68.2754 
 375   0.0000       2.529035        68.8185 
 376   0.0000       2.531563        68.8873 
 377   0.0000       2.553634        69.4879 
 378   0.0000       2.567105        69.8545 
 379   0.0000       2.594204        70.5919 
 380   0.0000       2.598160        70.6995 
 381   0.0000       2.606135        70.9165 
 382   0.0000       2.635529        71.7164 
 383   0.0000       2.649106        72.0858 
 384   0.0000       2.687014        73.1174 
 385   0.0000       2.715569        73.8944 
 386   0.0000       2.725954        74.1770 
 387   0.0000       2.757446        75.0339 
 388   0.0000       2.821309        76.7717 
 389   0.0000       2.840009        77.2806 
 390   0.0000       2.862186        77.8840 
 391   0.0000       2.884735        78.4976 
 392   0.0000       2.927880        79.6717 
 393   0.0000       2.952359        80.3378 
 394   0.0000       3.010258        81.9133 
 395   0.0000       3.040177        82.7274 
 396   0.0000       3.043692        82.8231 
 397   0.0000       3.074815        83.6700 
 398   0.0000       3.082064        83.8672 
 399   0.0000       3.101148        84.3865 
 400   0.0000       3.162152        86.0465 
 401   0.0000       3.174363        86.3788 
 402   0.0000       3.213238        87.4367 
 403   0.0000       3.231787        87.9414 
 404   0.0000       3.253794        88.5402 
 405   0.0000       3.313704        90.1705 
 406   0.0000       3.356635        91.3387 
 407   0.0000       3.363852        91.5351 
 408   0.0000       3.380511        91.9884 
 409   0.0000       3.427700        93.2725 
 410   0.0000       3.451831        93.9291 
 411   0.0000       3.482739        94.7701 
 412   0.0000       3.491662        95.0130 
 413   0.0000       3.507537        95.4449 
 414   0.0000       3.516188        95.6804 
 415   0.0000       3.533757        96.1584 
 416   0.0000       3.543876        96.4338 
 417   0.0000       3.547703        96.5379 
 418   0.0000       3.565436        97.0205 
 419   0.0000       3.593821        97.7928 
 420   0.0000       3.613614        98.3314 
 421   0.0000       3.625123        98.6446 
 422   0.0000       3.644459        99.1708 
 423   0.0000       3.659719        99.5860 
 424   0.0000       3.677371       100.0664 
 425   0.0000       3.684999       100.2739 
 426   0.0000       3.698709       100.6470 
 427   0.0000       3.702928       100.7618 
 428   0.0000       3.709625       100.9440 
 429   0.0000       3.714396       101.0739 
 430   0.0000       3.742772       101.8460 
 431   0.0000       3.750614       102.0594 
 432   0.0000       3.757365       102.2431 
 433   0.0000       3.769811       102.5818 
 434   0.0000       3.776928       102.7754 
 435   0.0000       3.792724       103.2053 
 436   0.0000       3.799686       103.3947 
 437   0.0000       3.803307       103.4932 
 438   0.0000       3.816664       103.8567 
 439   0.0000       3.824724       104.0760 
 440   0.0000       3.827123       104.1413 
 441   0.0000       3.852913       104.8431 
 442   0.0000       3.865565       105.1874 
 443   0.0000       3.880603       105.5966 
 444   0.0000       3.891191       105.8847 
 445   0.0000       3.900412       106.1356 
 446   0.0000       3.904209       106.2389 
 447   0.0000       3.916288       106.5676 
 448   0.0000       3.933694       107.0413 
 449   0.0000       3.937376       107.1415 
 450   0.0000       3.946508       107.3899 
 451   0.0000       3.960382       107.7675 
 452   0.0000       3.961828       107.8068 
 453   0.0000       3.966765       107.9412 
 454   0.0000       3.978453       108.2592 
 455   0.0000       3.993604       108.6715 
 456   0.0000       4.004597       108.9706 
 457   0.0000       4.010734       109.1376 
 458   0.0000       4.023105       109.4743 
 459   0.0000       4.033160       109.7479 
 460   0.0000       4.039054       109.9082 
 461   0.0000       4.044813       110.0649 
 462   0.0000       4.053182       110.2927 
 463   0.0000       4.066126       110.6449 
 464   0.0000       4.073701       110.8510 
 465   0.0000       4.091301       111.3300 
 466   0.0000       4.097784       111.5064 
 467   0.0000       4.105303       111.7110 
 468   0.0000       4.121709       112.1574 
 469   0.0000       4.130261       112.3901 
 470   0.0000       4.158702       113.1640 
 471   0.0000       4.167213       113.3956 
 472   0.0000       4.177893       113.6863 
 473   0.0000       4.190556       114.0308 
 474   0.0000       4.198357       114.2431 
 475   0.0000       4.219355       114.8145 
 476   0.0000       4.224872       114.9646 
 477   0.0000       4.234166       115.2175 
 478   0.0000       4.243006       115.4581 
 479   0.0000       4.255374       115.7946 
 480   0.0000       4.273194       116.2795 
 481   0.0000       4.283458       116.5588 
 482   0.0000       4.295308       116.8813 
 483   0.0000       4.313580       117.3785 
 484   0.0000       4.320474       117.5661 
 485   0.0000       4.328036       117.7718 
 486   0.0000       4.334412       117.9453 
 487   0.0000       4.361730       118.6887 
 488   0.0000       4.370950       118.9396 
 489   0.0000       4.381473       119.2259 
 490   0.0000       4.394735       119.5868 
 491   0.0000       4.413653       120.1016 
 492   0.0000       4.432942       120.6265 
 493   0.0000       4.436442       120.7217 
 494   0.0000       4.451899       121.1423 
 495   0.0000       4.467733       121.5732 
 496   0.0000       4.475427       121.7826 
 497   0.0000       4.499010       122.4243 
 498   0.0000       4.519719       122.9878 
 499   0.0000       4.526383       123.1691 
 500   0.0000       4.548435       123.7692 
 501   0.0000       4.558284       124.0372 
 502   0.0000       4.579531       124.6154 
 503   0.0000       4.609478       125.4303 
 504   0.0000       4.617565       125.6503 
 505   0.0000       4.635643       126.1423 
 506   0.0000       4.643535       126.3570 
 507   0.0000       4.662128       126.8630 
 508   0.0000       4.674802       127.2078 
 509   0.0000       4.682184       127.4087 
 510   0.0000       4.700143       127.8974 
 511   0.0000       4.711800       128.2146 
 512   0.0000       4.716707       128.3481 
 513   0.0000       4.742551       129.0514 
 514   0.0000       4.750606       129.2706 
 515   0.0000       4.761631       129.5706 
 516   0.0000       4.776438       129.9735 
 517   0.0000       4.788277       130.2957 
 518   0.0000       4.799539       130.6021 
 519   0.0000       4.811191       130.9192 
 520   0.0000       4.825086       131.2973 
 521   0.0000       4.840459       131.7156 
 522   0.0000       4.850322       131.9840 
 523   0.0000       4.858913       132.2177 
 524   0.0000       4.872064       132.5756 
 525   0.0000       4.886320       132.9635 
 526   0.0000       4.896557       133.2421 
 527   0.0000       4.917308       133.8068 
 528   0.0000       4.926514       134.0573 
 529   0.0000       4.940513       134.4382 
 530   0.0000       4.943990       134.5328 
 531   0.0000       4.976768       135.4247 
 532   0.0000       4.991511       135.8259 
 533   0.0000       5.007007       136.2476 
 534   0.0000       5.014095       136.4405 
 535   0.0000       5.031301       136.9087 
 536   0.0000       5.044988       137.2811 
 537   0.0000       5.051231       137.4510 
 538   0.0000       5.061598       137.7331 
 539   0.0000       5.069765       137.9553 
 540   0.0000       5.093171       138.5922 
 541   0.0000       5.120586       139.3382 
 542   0.0000       5.131616       139.6384 
 543   0.0000       5.132230       139.6551 
 544   0.0000       5.168965       140.6547 
 545   0.0000       5.177951       140.8992 
 546   0.0000       5.180723       140.9746 
 547   0.0000       5.203023       141.5815 
 548   0.0000       5.234303       142.4326 
 549   0.0000       5.246474       142.7638 
 550   0.0000       5.258133       143.0811 
 551   0.0000       5.266949       143.3210 
 552   0.0000       5.289751       143.9414 
 553   0.0000       5.301483       144.2607 
 554   0.0000       5.304376       144.3394 
 555   0.0000       5.314871       144.6250 
 556   0.0000       5.327688       144.9738 
 557   0.0000       5.349920       145.5787 
 558   0.0000       5.363875       145.9585 
 559   0.0000       5.374620       146.2508 
 560   0.0000       5.390752       146.6898 
 561   0.0000       5.402032       146.9968 
 562   0.0000       5.413995       147.3223 
 563   0.0000       5.430252       147.7647 
 564   0.0000       5.443583       148.1274 
 565   0.0000       5.452701       148.3755 
 566   0.0000       5.475436       148.9942 
 567   0.0000       5.493189       149.4773 
 568   0.0000       5.500712       149.6820 
 569   0.0000       5.505844       149.8216 
 570   0.0000       5.531826       150.5286 
 571   0.0000       5.544121       150.8632 
 572   0.0000       5.556399       151.1973 
 573   0.0000       5.574578       151.6920 
 574   0.0000       5.600267       152.3910 
 575   0.0000       5.603137       152.4691 
 576   0.0000       5.612289       152.7181 
 577   0.0000       5.646652       153.6532 
 578   0.0000       5.657390       153.9454 
 579   0.0000       5.675742       154.4448 
 580   0.0000       5.677817       154.5013 
 581   0.0000       5.708515       155.3366 
 582   0.0000       5.723259       155.7378 
 583   0.0000       5.743071       156.2769 
 584   0.0000       5.753266       156.5543 
 585   0.0000       5.788431       157.5112 
 586   0.0000       5.810715       158.1176 
 587   0.0000       5.816582       158.2772 
 588   0.0000       5.832702       158.7159 
 589   0.0000       5.866497       159.6355 
 590   0.0000       5.880115       160.0061 
 591   0.0000       5.899249       160.5267 
 592   0.0000       5.937974       161.5805 
 593   0.0000       5.947778       161.8473 
 594   0.0000       5.995337       163.1414 
 595   0.0000       6.006164       163.4360 
 596   0.0000       6.023704       163.9133 
 597   0.0000       6.053023       164.7111 
 598   0.0000       6.073642       165.2722 
 599   0.0000       6.105729       166.1453 
 600   0.0000       6.123501       166.6289 
 601   0.0000       6.180571       168.1819 
 602   0.0000       6.193649       168.5378 
 603   0.0000       6.231278       169.5617 
 604   0.0000       6.244080       169.9100 
 605   0.0000       6.276418       170.7900 
 606   0.0000       6.282163       170.9463 
 607   0.0000       6.301991       171.4859 
 608   0.0000       6.307372       171.6323 
 609   0.0000       6.344341       172.6383 
 610   0.0000       6.387326       173.8080 
 611   0.0000       6.393307       173.9707 
 612   0.0000       6.402281       174.2149 
 613   0.0000       6.440241       175.2479 
 614   0.0000       6.579984       179.0505 
 615   0.0000       6.746304       183.5763 
 616   0.0000       6.795460       184.9139 
 617   0.0000       6.814899       185.4428 
 618   0.0000       6.846219       186.2951 
 619   0.0000       6.863361       186.7615 
 620   0.0000       6.880413       187.2256 
 621   0.0000       6.912236       188.0915 
 622   0.0000       6.948023       189.0653 
 623   0.0000       6.976826       189.8491 
 624   0.0000       7.017307       190.9506 
 625   0.0000       7.075757       192.5411 
 626   0.0000       7.095651       193.0825 
 627   0.0000       7.195835       195.8086 
 628   0.0000       7.427715       202.1184 
 629   0.0000       7.460285       203.0047 
 630   0.0000       7.545877       205.3337 
 631   0.0000       7.610865       207.1022 
 632   0.0000       7.761415       211.1989 
 633   0.0000       7.950085       216.3328 
 634   0.0000       8.042647       218.8516 
 635   0.0000       8.340225       226.9491 
 636   0.0000       8.689431       236.4514 
 637   0.0000      17.167166       467.1423 
 638   0.0000      18.037159       490.8161 
 639   0.0000      18.109731       492.7908 
 640   0.0000      18.399463       500.6748 
 641   0.0000      18.504900       503.5439 
 642   0.0000      18.885997       513.9141 
 643   0.0000      20.045743       545.4724 

                    ********************************
                    * MULLIKEN POPULATION ANALYSIS *
                    ********************************

-----------------------
MULLIKEN ATOMIC CHARGES
-----------------------
   0 C :   -0.981395
   1 C :   -1.101304
   2 C :   -1.164729
   3 C :   -0.673344
   4 C :    0.233070
   5 C :    0.732335
   6 O :   -0.790821
   7 H :    0.285068
   8 H :    0.243067
   9 H :    0.294137
  10 H :    0.281945
  11 H :    0.251967
  12 H :    0.239810
  13 H :    0.257206
  14 H :    0.302560
  15 H :    0.245705
  16 H :    0.199319
  17 H :    0.320807
  18 H :    0.291705
  19 H :    0.402678
  20 H :    0.130214
Sum of atomic charges:    0.0000000

--------------------------------
MULLIKEN REDUCED ORBITAL CHARGES
--------------------------------
  0 C s       :     3.265781  s :     3.265781
      pz      :     1.253983  p :     3.538115
      px      :     1.025342
      py      :     1.258790
      dz2     :     0.064029  d :     0.161750
      dxz     :     0.018240
      dyz     :     0.012102
      dx2y2   :     0.029903
      dxy     :     0.037475
      f0      :     0.003265  f :     0.015749
      f+1     :     0.001699
      f-1     :     0.000558
      f+2     :     0.001497
      f-2     :     0.002215
      f+3     :     0.002971
      f-3     :     0.003544
  1 C s       :     3.324516  s :     3.324516
      pz      :     1.271453  p :     3.610694
      px      :     1.260969
      py      :     1.078271
      dz2     :     0.063516  d :     0.147509
      dxz     :     0.018665
      dyz     :     0.020617
      dx2y2   :     0.020714
      dxy     :     0.023998
      f0      :     0.002959  f :     0.018586
      f+1     :     0.001318
      f-1     :     0.001690
      f+2     :     0.001548
      f-2     :     0.002373
      f+3     :     0.005268
      f-3     :     0.003431
  2 C s       :     3.362452  s :     3.362452
      pz      :     1.263334  p :     3.629707
      px      :     1.136586
      py      :     1.229787
      dz2     :     0.069274  d :     0.153245
      dxz     :     0.021956
      dyz     :     0.010013
      dx2y2   :     0.041988
      dxy     :     0.010014
      f0      :     0.003205  f :     0.019325
      f+1     :     0.002323
      f-1     :     0.001665
      f+2     :     0.002808
      f-2     :     0.000706
      f+3     :     0.005200
      f-3     :     0.003420
  3 C s       :     3.146553  s :     3.146553
      pz      :     1.215783  p :     3.409211
      px      :     0.983462
      py      :     1.209966
      dz2     :     0.066476  d :     0.111637
      dxz     :    -0.005187
      dyz     :     0.012753
      dx2y2   :     0.027607
      dxy     :     0.009988
      f0      :     0.003288  f :     0.005943
      f+1     :    -0.000187
      f-1     :    -0.000117
      f+2     :     0.001200
      f-2     :     0.000714
      f+3     :    -0.001355
      f-3     :     0.002400
  4 C s       :     2.841159  s :     2.841159
      pz      :     1.113921  p :     2.913963
      px      :     0.908984
      py      :     0.891058
      dz2     :     0.072710  d :     0.025973
      dxz     :    -0.035178
      dyz     :    -0.021690
      dx2y2   :     0.003135
      dxy     :     0.006997
      f0      :     0.003082  f :    -0.014165
      f+1     :    -0.003029
      f-1     :    -0.004406
      f+2     :     0.000138
      f-2     :     0.000277
      f+3     :    -0.003239
      f-3     :    -0.006989
  5 C s       :     2.966515  s :     2.966515
      pz      :     1.066584  p :     2.313481
      px      :     0.672169
      py      :     0.574728
      dz2     :     0.062577  d :    -0.020767
      dxz     :    -0.025026
      dyz     :    -0.005707
      dx2y2   :    -0.056020
      dxy     :     0.003409
      f0      :     0.007005  f :     0.008436
      f+1     :     0.000130
      f-1     :    -0.002540
      f+2     :     0.001730
      f-2     :     0.003042
      f+3     :    -0.000685
      f-3     :    -0.000246
  6 O s       :     3.956208  s :     3.956208
      pz      :     1.333409  p :     4.785154
      px      :     1.965488
      py      :     1.486257
      dz2     :     0.012437  d :     0.044645
      dxz     :     0.001549
      dyz     :     0.008291
      dx2y2   :     0.011109
      dxy     :     0.011259
      f0      :     0.000458  f :     0.004813
      f+1     :     0.000397
      f-1     :     0.000796
      f+2     :     0.000569
      f-2     :     0.000203
      f+3     :     0.001253
      f-3     :     0.001137
  7 H s       :     0.637689  s :     0.637689
      pz      :     0.020565  p :     0.068852
      px      :     0.029909
      py      :     0.018378
      dz2     :     0.002099  d :     0.008392
      dxz     :     0.000951
      dyz     :     0.000304
      dx2y2   :     0.005242
      dxy     :    -0.000204
  8 H s       :     0.681524  s :     0.681524
      pz      :     0.035235  p :     0.068822
      px      :     0.013355
      py      :     0.020232
      dz2     :    -0.001684  d :     0.006587
      dxz     :     0.004721
      dyz     :     0.003102
      dx2y2   :     0.000295
      dxy     :     0.000153
  9 H s       :     0.626370  s :     0.626370
      pz      :     0.020095  p :     0.072312
      px      :     0.026182
      py      :     0.026034
      dz2     :     0.001089  d :     0.007181
      dxz     :     0.000412
      dyz     :     0.002249
      dx2y2   :    -0.000474
      dxy     :     0.003905
 10 H s       :     0.648919  s :     0.648919
      pz      :     0.015135  p :     0.061560
      px      :     0.009216
      py      :     0.037208
      dz2     :     0.003642  d :     0.007576
      dxz     :     0.000099
      dyz     :     0.000575
      dx2y2   :     0.004324
      dxy     :    -0.001064
 11 H s       :     0.674371  s :     0.674371
      pz      :     0.026221  p :     0.066749
      px      :     0.021327
      py      :     0.019201
      dz2     :    -0.001414  d :     0.006912
      dxz     :     0.002941
      dyz     :     0.004282
      dx2y2   :     0.000929
      dxy     :     0.000175
 12 H s       :     0.674020  s :     0.674020
      pz      :     0.024392  p :     0.078387
      px      :     0.033074
      py      :     0.020920
      dz2     :     0.001514  d :     0.007783
      dxz     :     0.001783
      dyz     :     0.000069
      dx2y2   :     0.000079
      dxy     :     0.004338
 13 H s       :     0.669723  s :     0.669723
      pz      :     0.018563  p :     0.065025
      px      :     0.033616
      py      :     0.012846
      dz2     :     0.002477  d :     0.008045
      dxz     :     0.001084
      dyz     :    -0.000126
      dx2y2   :     0.001269
      dxy     :     0.003341
 14 H s       :     0.603658  s :     0.603658
      pz      :     0.023004  p :     0.086319
      px      :     0.025461
      py      :     0.037854
      dz2     :     0.001004  d :     0.007463
      dxz     :     0.000270
      dyz     :     0.002620
      dx2y2   :    -0.000317
      dxy     :     0.003885
 15 H s       :     0.679406  s :     0.679406
      pz      :     0.032487  p :     0.068840
      px      :     0.015223
      py      :     0.021130
      dz2     :    -0.001943  d :     0.006049
      dxz     :     0.004400
      dyz     :     0.003472
      dx2y2   :    -0.000084
      dxy     :     0.000203
 16 H s       :     0.698054  s :     0.698054
      pz      :     0.045915  p :     0.093721
      px      :     0.024025
      py      :     0.023781
      dz2     :    -0.000556  d :     0.008906
      dxz     :     0.003785
      dyz     :     0.004197
      dx2y2   :     0.000615
      dxy     :     0.000865
 17 H s       :     0.613019  s :     0.613019
      pz      :     0.026353  p :     0.055077
      px      :     0.003766
      py      :     0.024958
      dz2     :     0.002461  d :     0.011097
      dxz     :     0.000164
      dyz     :     0.002419
      dx2y2   :     0.000828
      dxy     :     0.005224
 18 H s       :     0.623161  s :     0.623161
      pz      :     0.024365  p :     0.072133
      px      :     0.028691
      py      :     0.019077
      dz2     :     0.001958  d :     0.013001
      dxz     :     0.004394
      dyz     :     0.004161
      dx2y2   :     0.001566
      dxy     :     0.000922
 19 H s       :     0.573771  s :     0.573771
      pz      :     0.017616  p :     0.019873
      px      :    -0.006773
      py      :     0.009030
      dz2     :     0.000802  d :     0.003678
      dxz     :     0.002579
      dyz     :    -0.001945
      dx2y2   :     0.000901
      dxy     :     0.001340
 20 H s       :     0.736685  s :     0.736685
      pz      :     0.014136  p :     0.110970
      px      :     0.049503
      py      :     0.047331
      dz2     :     0.001288  d :     0.022131
      dxz     :     0.005081
      dyz     :     0.012204
      dx2y2   :     0.001825
      dxy     :     0.001733


                     *******************************
                     * LOEWDIN POPULATION ANALYSIS *
                     *******************************

----------------------
LOEWDIN ATOMIC CHARGES
----------------------
   0 C :    0.586152
   1 C :    0.587266
   2 C :    0.583829
   3 C :    0.270976
   4 C :   -0.040106
   5 C :   -0.243188
   6 O :    0.835982
   7 H :   -0.172995
   8 H :   -0.167001
   9 H :   -0.177829
  10 H :   -0.179174
  11 H :   -0.153990
  12 H :   -0.164461
  13 H :   -0.168040
  14 H :   -0.177642
  15 H :   -0.158706
  16 H :   -0.140088
  17 H :   -0.168709
  18 H :   -0.133966
  19 H :   -0.139214
  20 H :   -0.479097

-------------------------------
LOEWDIN REDUCED ORBITAL CHARGES
-------------------------------
  0 C s       :     2.441361  s :     2.441361
      pz      :     0.752232  p :     2.245382
      px      :     0.729439
      py      :     0.763712
      dz2     :     0.155578  d :     0.538110
      dxz     :     0.096226
      dyz     :     0.029141
      dx2y2   :     0.107191
      dxy     :     0.149975
      f0      :     0.020832  f :     0.188995
      f+1     :     0.041699
      f-1     :     0.008484
      f+2     :     0.024068
      f-2     :     0.022501
      f+3     :     0.036885
      f-3     :     0.034526
  1 C s       :     2.429829  s :     2.429829
      pz      :     0.750715  p :     2.237212
      px      :     0.753079
      py      :     0.733417
      dz2     :     0.132202  d :     0.551503
      dxz     :     0.037687
      dyz     :     0.117045
      dx2y2   :     0.132118
      dxy     :     0.132452
      f0      :     0.024626  f :     0.194189
      f+1     :     0.007856
      f-1     :     0.033895
      f+2     :     0.027273
      f-2     :     0.022720
      f+3     :     0.044037
      f-3     :     0.033782
  2 C s       :     2.433152  s :     2.433152
      pz      :     0.746600  p :     2.240990
      px      :     0.739278
      py      :     0.755112
      dz2     :     0.152103  d :     0.547636
      dxz     :     0.083212
      dyz     :     0.050371
      dx2y2   :     0.174405
      dxy     :     0.087545
      f0      :     0.021662  f :     0.194393
      f+1     :     0.026343
      f-1     :     0.024465
      f+2     :     0.021988
      f-2     :     0.026512
      f+3     :     0.038062
      f-3     :     0.035361
  3 C s       :     2.419240  s :     2.419240
      pz      :     0.738631  p :     2.204351
      px      :     0.722396
      py      :     0.743324
      dz2     :     0.210577  d :     0.773734
      dxz     :     0.137172
      dyz     :     0.055369
      dx2y2   :     0.199465
      dxy     :     0.171150
      f0      :     0.028561  f :     0.331698
      f+1     :     0.074522
      f-1     :     0.024246
      f+2     :     0.033341
      f-2     :     0.039723
      f+3     :     0.067259
      f-3     :     0.064046
  4 C s       :     2.410859  s :     2.410859
      pz      :     0.737459  p :     2.175965
      px      :     0.723290
      py      :     0.715215
      dz2     :     0.240246  d :     0.977791
      dxz     :     0.136513
      dyz     :     0.132391
      dx2y2   :     0.242566
      dxy     :     0.226074
      f0      :     0.039889  f :     0.475492
      f+1     :     0.074419
      f-1     :     0.058127
      f+2     :     0.056196
      f-2     :     0.044265
      f+3     :     0.108425
      f-3     :     0.094171
  5 C s       :     2.409178  s :     2.409178
      pz      :     0.749822  p :     2.107848
      px      :     0.744920
      py      :     0.613106
      dz2     :     0.259440  d :     1.101107
      dxz     :     0.148609
      dyz     :     0.146535
      dx2y2   :     0.277381
      dxy     :     0.269141
      f0      :     0.052310  f :     0.625056
      f+1     :     0.077356
      f-1     :     0.077313
      f+2     :     0.078287
      f-2     :     0.057821
      f+3     :     0.158894
      f-3     :     0.123075
  6 O s       :     2.971966  s :     2.971966
      pz      :     1.210232  p :     3.871611
      px      :     1.423677
      py      :     1.237701
      dz2     :     0.072600  d :     0.255909
      dxz     :     0.005656
      dyz     :     0.067642
      dx2y2   :     0.052178
      dxy     :     0.057832
      f0      :     0.011766  f :     0.064533
      f+1     :     0.001785
      f-1     :     0.012406
      f+2     :     0.009356
      f-2     :     0.002727
      f+3     :     0.014939
      f-3     :     0.011554
  7 H s       :     0.643793  s :     0.643793
      pz      :     0.093938  p :     0.306222
      px      :     0.102623
      py      :     0.109660
      dz2     :     0.048528  d :     0.222980
      dxz     :     0.036545
      dyz     :     0.024193
      dx2y2   :     0.077632
      dxy     :     0.036082
  8 H s       :     0.636560  s :     0.636560
      pz      :     0.143705  p :     0.305834
      px      :     0.077839
      py      :     0.084290
      dz2     :     0.054360  d :     0.224607
      dxz     :     0.078610
      dyz     :     0.079165
      dx2y2   :     0.007490
      dxy     :     0.004982
  9 H s       :     0.634951  s :     0.634951
      pz      :     0.087658  p :     0.314275
      px      :     0.083716
      py      :     0.142901
      dz2     :     0.036948  d :     0.228603
      dxz     :     0.005527
      dyz     :     0.063067
      dx2y2   :     0.050723
      dxy     :     0.072338
 10 H s       :     0.626723  s :     0.626723
      pz      :     0.098863  p :     0.316524
      px      :     0.120285
      py      :     0.097376
      dz2     :     0.063157  d :     0.235927
      dxz     :     0.026992
      dyz     :     0.030482
      dx2y2   :     0.079584
      dxy     :     0.035712
 11 H s       :     0.626390  s :     0.626390
      pz      :     0.142857  p :     0.302636
      px      :     0.082526
      py      :     0.077253
      dz2     :     0.058399  d :     0.224964
      dxz     :     0.078551
      dyz     :     0.072500
      dx2y2   :     0.010883
      dxy     :     0.004631
 12 H s       :     0.629570  s :     0.629570
      pz      :     0.088646  p :     0.307258
      px      :     0.136971
      py      :     0.081642
      dz2     :     0.038447  d :     0.227632
      dxz     :     0.064296
      dyz     :     0.003809
      dx2y2   :     0.049559
      dxy     :     0.071521
 13 H s       :     0.634657  s :     0.634657
      pz      :     0.093864  p :     0.306837
      px      :     0.122977
      py      :     0.089996
      dz2     :     0.052878  d :     0.226546
      dxz     :     0.051912
      dyz     :     0.007099
      dx2y2   :     0.046979
      dxy     :     0.067679
 14 H s       :     0.630801  s :     0.630801
      pz      :     0.086727  p :     0.314607
      px      :     0.095946
      py      :     0.131934
      dz2     :     0.035910  d :     0.232233
      dxz     :     0.006252
      dyz     :     0.063909
      dx2y2   :     0.051838
      dxy     :     0.074325
 15 H s       :     0.628477  s :     0.628477
      pz      :     0.142051  p :     0.304298
      px      :     0.079644
      py      :     0.082604
      dz2     :     0.055770  d :     0.225930
      dxz     :     0.080234
      dyz     :     0.075456
      dx2y2   :     0.010409
      dxy     :     0.004060
 16 H s       :     0.623974  s :     0.623974
      pz      :     0.135896  p :     0.288796
      px      :     0.074701
      py      :     0.078199
      dz2     :     0.055754  d :     0.227319
      dxz     :     0.076215
      dyz     :     0.077829
      dx2y2   :     0.011319
      dxy     :     0.006202
 17 H s       :     0.616169  s :     0.616169
      pz      :     0.085874  p :     0.309141
      px      :     0.094384
      py      :     0.128884
      dz2     :     0.041953  d :     0.243399
      dxz     :     0.008315
      dyz     :     0.063689
      dx2y2   :     0.054161
      dxy     :     0.075281
 18 H s       :     0.620334  s :     0.620334
      pz      :     0.131759  p :     0.283870
      px      :     0.076589
      py      :     0.075522
      dz2     :     0.057096  d :     0.229762
      dxz     :     0.078161
      dyz     :     0.072458
      dx2y2   :     0.012484
      dxy     :     0.009563
 19 H s       :     0.625902  s :     0.625902
      pz      :     0.133927  p :     0.279285
      px      :     0.080073
      py      :     0.065285
      dz2     :     0.058087  d :     0.234027
      dxz     :     0.078873
      dyz     :     0.069195
      dx2y2   :     0.015126
      dxy     :     0.012746
 20 H s       :     0.575598  s :     0.575598
      pz      :     0.246436  p :     0.529037
      px      :     0.148513
      py      :     0.134088
      dz2     :     0.124907  d :     0.374462
      dxz     :     0.115777
      dyz     :     0.114916
      dx2y2   :     0.008945
      dxy     :     0.009917


                      *****************************
                      * MAYER POPULATION ANALYSIS *
                      *****************************

  NA   - Mulliken gross atomic population
  ZA   - Total nuclear charge
  QA   - Mulliken gross atomic charge
  VA   - Mayer's total valence
  BVA  - Mayer's bonded valence
  FA   - Mayer's free valence

  ATOM       NA         ZA         QA         VA         BVA        FA
  0 C      6.9814     6.0000    -0.9814     3.8494     3.8494     0.0000
  1 C      7.1013     6.0000    -1.1013     3.8649     3.8649    -0.0000
  2 C      7.1647     6.0000    -1.1647     3.8761     3.8761     0.0000
  3 C      6.6733     6.0000    -0.6733     3.7609     3.7609    -0.0000
  4 C      5.7669     6.0000     0.2331     3.0438     3.0438     0.0000
  5 C      5.2677     6.0000     0.7323     3.0893     3.0893    -0.0000
  6 O      8.7908     8.0000    -0.7908     1.5059     1.5059    -0.0000
  7 H      0.7149     1.0000     0.2851     1.0256     1.0256     0.0000
  8 H      0.7569     1.0000     0.2431     1.1022     1.1022     0.0000
  9 H      0.7059     1.0000     0.2941     1.0539     1.0539     0.0000
 10 H      0.7181     1.0000     0.2819     1.0332     1.0332    -0.0000
 11 H      0.7480     1.0000     0.2520     1.0717     1.0717     0.0000
 12 H      0.7602     1.0000     0.2398     1.1097     1.1097    -0.0000
 13 H      0.7428     1.0000     0.2572     1.0563     1.0563     0.0000
 14 H      0.6974     1.0000     0.3026     1.0561     1.0561     0.0000
 15 H      0.7543     1.0000     0.2457     1.0865     1.0865     0.0000
 16 H      0.8007     1.0000     0.1993     1.2074     1.2074    -0.0000
 17 H      0.6792     1.0000     0.3208     0.9793     0.9793    -0.0000
 18 H      0.7083     1.0000     0.2917     0.9956     0.9956     0.0000
 19 H      0.5973     1.0000     0.4027     0.8252     0.8252    -0.0000
 20 H      0.8698     1.0000     0.1302     1.0956     1.0956    -0.0000

  Mayer bond orders larger than 0.100000
B(  0-C ,  3-C ) :   0.8786 B(  0-C ,  7-H ) :   0.9736 B(  0-C ,  8-H ) :   0.9977 
B(  0-C ,  9-H ) :   0.9464 B(  1-C ,  2-C ) :   0.1413 B(  1-C ,  4-C ) :   0.6269 
B(  1-C , 10-H ) :   0.9732 B(  1-C , 11-H ) :   1.0121 B(  1-C , 12-H ) :   1.0408 
B(  2-C ,  4-C ) :   0.7133 B(  2-C , 13-H ) :   1.0093 B(  2-C , 14-H ) :   0.9542 
B(  2-C , 15-H ) :   1.0232 B(  3-C ,  5-C ) :   0.8251 B(  3-C , 16-H ) :   1.0076 
B(  3-C , 17-H ) :   0.9124 B(  4-C ,  5-C ) :   0.9417 B(  4-C , 18-H ) :   0.8446 
B(  5-C ,  6-O ) :   0.2757 B(  5-C , 19-H ) :   0.8960 B(  6-O , 20-H ) :   1.0507 


-------
TIMINGS
-------

Total SCF time: 0 days 0 hours 8 min 41 sec 

Total time                  ....     521.206 sec
Sum of individual times     ....     519.778 sec  ( 99.7%)

Fock matrix formation       ....     511.394 sec  ( 98.1%)
Diagonalization             ....       0.810 sec  (  0.2%)
Density matrix formation    ....       0.039 sec  (  0.0%)
Population analysis         ....       0.151 sec  (  0.0%)
Initial guess               ....       0.412 sec  (  0.1%)
Orbital Transformation      ....       0.000 sec  (  0.0%)
Orbital Orthonormalization  ....       0.000 sec  (  0.0%)
DIIS solution               ....       0.341 sec  (  0.1%)
SOSCF solution              ....       0.651 sec  (  0.1%)

Maximum memory used throughout the entire SCF-calculation: 264.7 MB


           ************************************************************
           *        Program running with 16 parallel MPI-processes    *
           *              working on a common directory               *
           ************************************************************

------------------------------------------------------------------------------
                                ORCA  MP2 
------------------------------------------------------------------------------

Freezing NCore=14 chemical core electrons

-------------
RI-MP2 ENERGY
-------------
Dimension of the basis                    ...  644
Memory devoted to MP2                     ...  256 MB   
Data format for buffers                   ... DOUBLE
Compression type for matrix containers    ... UNCOMPRESSED
Overall scaling of the MP2 energy         ...   1.000e+00
Calculating two index integrals           ... done (    0.010 sec)
Cholesky decomposition of V**-1           ... done (    0.202 sec)

-----------------
RI-TRANSFORMATION (AUX index driven)
-----------------

Dimension of the orbital-basis         ... 644
Dimension of the aux-basis             ... 1386
Transformation of internal/external MOs...    7-  28 to   29- 643
Number Format for Storage              ... Double (8 Byte)
Integral mode                          ... Direct

First Phase: integral generation and transformation of MO indices
  Aux angular momentum 0               ... done (    0.128 sec)
  Aux angular momentum 1               ... done (    0.228 sec)
  Aux angular momentum 2               ... done (    0.341 sec)
  Aux angular momentum 3               ... done (    0.325 sec)
  Aux angular momentum 4               ... done (    0.109 sec)
Closing buffer VIA ( 0.14 GB; CompressionRatio= 1.00)
  Phase 1 completed in     1.251 sec
Second Phase: sorting and transformation of aux index

IA-Transformation
Memory available                       ... 191 MB 
Max. # MO pairs treated in a batch     ... 2    
# of internal orbitals                 ... 22
# batches for internal orbitals        ... 1
Closing buffer IAV ( 0.14 GB; CompressionRatio= 1.00)
(ia|v) transformation done in     0.179 sec

  Phase 2 completed in     0.252 sec
RI-Integral transformation completed in     1.511 sec
Opening buffers                              ... done

Starting loop over batches of integrals:

Operator 0  - window                       ... (  7- 28)x( 29-643)
Operator 0  - Memory available             ...   256 MB
Operator 0  - Memory needed per MO         ...   6.5 MB
Operator 0  - Number of orbitals per batch ... 2
Operator 0  - Number of batches            ... 1

OPERATOR  0   PASS   0:  MOs     7 ...    8 +    9 ...   10 +   11 ...   12 +   13 ...   14
                            +   15 ...   16 +   17 ...   18 +   19 ...   20 +   21 ...   22
                            +   23 ...   24 +   25 ...   26 +   27 ...   28
  Reading integrals       ... ok
Time spent in pair loops =     0.100 sec
Deleting buffer (Ka|jb)[aa] ...done

-----------------------------------------------
 RI-MP2 CORRELATION ENERGY:     -1.328354864 Eh
-----------------------------------------------


-------
TIMINGS
-------

Total time                :    2.936 sec
Integral trafo            :    1.525 sec ( 51.9%)
I/O of integrals          :    0.006 sec (  0.2%)
K(i,j) Operators          :    0.072 sec (  2.5%)
T(i,j) pair energies      :    0.012 sec (  0.4%)
V-calculation             :    0.010 sec (  0.4%)
V**(-1/2)                 :    0.202 sec (  6.9%)
Gamma(ia|P)               :    0.000 sec (  0.0%)
Gamma-Trafo               :    0.000 sec (  0.0%)
D(virtual)                :    0.000 sec (  0.0%)
D(internal)               :    0.000 sec (  0.0%)
W(virtual)                :    0.000 sec (  0.0%)
W(internal)               :    0.000 sec (  0.0%)
L(virtual)                :    0.000 sec (  0.0%)
L(internal)               :    0.000 sec (  0.0%)
G(D)                      :    0.000 sec (  0.0%)
G(Z)                      :    0.000 sec (  0.0%)
Z-Vector Solution         :    0.000 sec (  0.0%)
3-Index Derivative        :    0.000 sec (  0.0%)
2-Index Derivative        :    0.000 sec (  0.0%)
Separable Gradient        :    0.000 sec (  0.0%)


---------------------------------------
MP2 TOTAL ENERGY:     -311.664785804 Eh
---------------------------------------

Maximum memory used throughout the entire MP2-calculation: 148.5 MB

-------------------------   --------------------
FINAL SINGLE POINT ENERGY      -311.664785803788
-------------------------   --------------------


                            ***************************************
                            *     ORCA property calculations      *
                            ***************************************


  WARNING: The energy has been calculated at the MP2 level but the densities
           used in the property calculations are still SCF densities
           MP2 response densities have not been calculated 
           use %mp2 Density relaxed end
           or  %mp2 Density unrelaxed end

                                    ---------------------
                                    Active property flags
                                    ---------------------
   (+) Dipole Moment


------------------------------------------------------------------------------
                       ORCA ELECTRIC PROPERTIES CALCULATION
------------------------------------------------------------------------------

Dipole Moment Calculation                       ... on
Quadrupole Moment Calculation                   ... off
Polarizability Calculation                      ... off
GBWName                                         ... TZ_2-methyl-3-pentanol.gbw
Electron density                                ... TZ_2-methyl-3-pentanol.scfp
The origin for moment calculation is the CENTER OF MASS  = (-0.016442, -0.066187 -0.002817)

-------------
DIPOLE MOMENT
-------------
                                X             Y             Z
Electronic contribution:     -0.86669      -3.31490      -0.59775
Nuclear contribution   :      0.95362       3.83887       0.16341
                        -----------------------------------------
Total Dipole Moment    :      0.08693       0.52397      -0.43433
                        -----------------------------------------
Magnitude (a.u.)       :      0.68611
Magnitude (Debye)      :      1.74395



--------------------
Rotational spectrum 
--------------------
 
Rotational constants in cm-1:     0.131792     0.055874     0.042466 
Rotational constants in MHz :  3951.032334  1675.063165  1273.103875 

 Dipole components along the rotational axes: 
x,y,z [a.u.] :     0.092869     0.525492    -0.431251 
x,y,z [Debye]:     0.236054     1.335694    -1.096152 

 

Timings for individual modules:

Sum of individual times         ...      540.414 sec (=   9.007 min)
GTO integral calculation        ...        7.216 sec (=   0.120 min)   1.3 %
SCF iterations                  ...      526.885 sec (=   8.781 min)  97.5 %
MP2 module                      ...        6.314 sec (=   0.105 min)   1.2 %
                             ****ORCA TERMINATED NORMALLY****
TOTAL RUN TIME: 0 days 0 hours 9 minutes 4 seconds 526 msec
