
                                 *****************
                                 * O   R   C   A *
                                 *****************

                                            #,                                       
                                            ###                                      
                                            ####                                     
                                            #####                                    
                                            ######                                   
                                           ########,                                 
                                     ,,################,,,,,                         
                               ,,#################################,,                 
                          ,,##########################################,,             
                       ,#########################################, ''#####,          
                    ,#############################################,,   '####,        
                  ,##################################################,,,,####,       
                ,###########''''           ''''###############################       
              ,#####''   ,,,,##########,,,,          '''####'''          '####       
            ,##' ,,,,###########################,,,                        '##       
           ' ,,###''''                  '''############,,,                           
         ,,##''                                '''############,,,,        ,,,,,,###''
      ,#''                                            '''#######################'''  
     '                                                          ''''####''''         
             ,#######,   #######,   ,#######,      ##                                
            ,#'     '#,  ##    ##  ,#'     '#,    #''#        ######   ,####,        
            ##       ##  ##   ,#'  ##            #'  '#       #        #'  '#        
            ##       ##  #######   ##           ,######,      #####,   #    #        
            '#,     ,#'  ##    ##  '#,     ,#' ,#      #,         ##   #,  ,#        
             '#######'   ##     ##  '#######'  #'      '#     #####' # '####'        



                  #######################################################
                  #                        -***-                        #
                  #          Department of theory and spectroscopy      #
                  #    Directorship and core code : Frank Neese         #
                  #        Max Planck Institute fuer Kohlenforschung    #
                  #                Kaiser Wilhelm Platz 1               #
                  #                 D-45470 Muelheim/Ruhr               #
                  #                      Germany                        #
                  #                                                     #
                  #                  All rights reserved                #
                  #                        -***-                        #
                  #######################################################


                         Program Version 5.0.3 -  RELEASE  -


 With contributions from (in alphabetic order):
   Daniel Aravena         : Magnetic Suceptibility
   Michael Atanasov       : Ab Initio Ligand Field Theory (pilot matlab implementation)
   Alexander A. Auer      : GIAO ZORA, VPT2 properties, NMR spectrum
   Ute Becker             : Parallelization
   Giovanni Bistoni       : ED, misc. LED, open-shell LED, HFLD
   Martin Brehm           : Molecular dynamics
   Dmytro Bykov           : SCF Hessian
   Vijay G. Chilkuri      : MRCI spin determinant printing, contributions to CSF-ICE
   Dipayan Datta          : RHF DLPNO-CCSD density
   Achintya Kumar Dutta   : EOM-CC, STEOM-CC
   Dmitry Ganyushin       : Spin-Orbit,Spin-Spin,Magnetic field MRCI
   Miquel Garcia          : C-PCM and meta-GGA Hessian, CC/C-PCM, Gaussian charge scheme
   Yang Guo               : DLPNO-NEVPT2, F12-NEVPT2, CIM, IAO-localization
   Andreas Hansen         : Spin unrestricted coupled pair/coupled cluster methods
   Benjamin Helmich-Paris : MC-RPA, TRAH-SCF, COSX integrals
   Lee Huntington         : MR-EOM, pCC
   Robert Izsak           : Overlap fitted RIJCOSX, COSX-SCS-MP3, EOM
   Marcus Kettner         : VPT2
   Christian Kollmar      : KDIIS, OOCD, Brueckner-CCSD(T), CCSD density, CASPT2, CASPT2-K
   Simone Kossmann        : Meta GGA functionals, TD-DFT gradient, OOMP2, MP2 Hessian
   Martin Krupicka        : Initial AUTO-CI
   Lucas Lang             : DCDCAS
   Marvin Lechner         : AUTO-CI (C++ implementation), FIC-MRCC
   Dagmar Lenk            : GEPOL surface, SMD
   Dimitrios Liakos       : Extrapolation schemes; Compound Job, initial MDCI parallelization
   Dimitrios Manganas     : Further ROCIS development; embedding schemes
   Dimitrios Pantazis     : SARC Basis sets
   Anastasios Papadopoulos: AUTO-CI, single reference methods and gradients
   Taras Petrenko         : DFT Hessian,TD-DFT gradient, ASA, ECA, R-Raman, ABS, FL, XAS/XES, NRVS
   Peter Pinski           : DLPNO-MP2, DLPNO-MP2 Gradient
   Christoph Reimann      : Effective Core Potentials
   Marius Retegan         : Local ZFS, SOC
   Christoph Riplinger    : Optimizer, TS searches, QM/MM, DLPNO-CCSD(T), (RO)-DLPNO pert. Triples
   Tobias Risthaus        : Range-separated hybrids, TD-DFT gradient, RPA, STAB
   Michael Roemelt        : Original ROCIS implementation
   Masaaki Saitow         : Open-shell DLPNO-CCSD energy and density
   Barbara Sandhoefer     : DKH picture change effects
   Avijit Sen             : IP-ROCIS
   Kantharuban Sivalingam : CASSCF convergence, NEVPT2, FIC-MRCI
   Bernardo de Souza      : ESD, SOC TD-DFT
   Georgi Stoychev        : AutoAux, RI-MP2 NMR, DLPNO-MP2 response
   Willem Van den Heuvel  : Paramagnetic NMR
   Boris Wezisla          : Elementary symmetry handling
   Frank Wennmohs         : Technical directorship


 We gratefully acknowledge several colleagues who have allowed us to
 interface, adapt or use parts of their codes:
   Stefan Grimme, W. Hujo, H. Kruse, P. Pracht,  : VdW corrections, initial TS optimization,
                  C. Bannwarth, S. Ehlert          DFT functionals, gCP, sTDA/sTD-DF
   Ed Valeev, F. Pavosevic, A. Kumar             : LibInt (2-el integral package), F12 methods
   Garnet Chan, S. Sharma, J. Yang, R. Olivares  : DMRG
   Ulf Ekstrom                                   : XCFun DFT Library
   Mihaly Kallay                                 : mrcc  (arbitrary order and MRCC methods)
   Jiri Pittner, Ondrej Demel                    : Mk-CCSD
   Frank Weinhold                                : gennbo (NPA and NBO analysis)
   Christopher J. Cramer and Donald G. Truhlar   : smd solvation model
   Lars Goerigk                                  : TD-DFT with DH, B97 family of functionals
   V. Asgeirsson, H. Jonsson                     : NEB implementation
   FAccTs GmbH                                   : IRC, NEB, NEB-TS, DLPNO-Multilevel, CI-OPT
                                                   MM, QMMM, 2- and 3-layer-ONIOM, Crystal-QMMM,
                                                   LR-CPCM, SF, NACMEs, symmetry and pop. for TD-DFT,
                                                   nearIR, NL-DFT gradient (VV10), updates on ESD,
                                                   ML-optimized integration grids
   S Lehtola, MJT Oliveira, MAL Marques          : LibXC Library
   Liviu Ungur et al                             : ANISO software


 Your calculation uses the libint2 library for the computation of 2-el integrals
 For citations please refer to: http://libint.valeyev.net

 Your ORCA version has been built with support for libXC version: 5.1.0
 For citations please refer to: https://tddft.org/programs/libxc/

 This ORCA versions uses:
   CBLAS   interface :  Fast vector & matrix operations
   LAPACKE interface :  Fast linear algebra routines
   SCALAPACK package :  Parallel linear algebra routines
   Shared memory     :  Shared parallel matrices
   BLAS/LAPACK       :  OpenBLAS 0.3.15  USE64BITINT DYNAMIC_ARCH NO_AFFINITY SkylakeX SINGLE_THREADED
        Core in use  :  SkylakeX
   Copyright (c) 2011-2014, The OpenBLAS Project


================================================================================

----- Orbital basis set information -----
Your calculation utilizes the basis: aug-cc-pVTZ 
    H, B-Ne : Obtained from the ccRepo (grant-hill.group.shef.ac.uk/ccrepo) Feb. 2017
              R. A. Kendall, T. H. Dunning, Jr., R. J. Harrison, J. Chem. Phys. 96, 6796 (1992)
         He : Obtained from the ccRepo (grant-hill.group.shef.ac.uk/ccrepo) Feb. 2017
              D. E. Woon, T. H. Dunning, Jr., J. Chem. Phys. 100, 2975 (1994)
  Li-Be, Na : Obtained from the ccRepo (grant-hill.group.shef.ac.uk/ccrepo) Feb. 2017
              B. P. Prascher, D. E. Woon, K. A. Peterson, T. H. Dunning, Jr., A. K. Wilson, Theor. Chem. Acc. 128, 69 (2011)
         Mg : Obtained from the Peterson Research Group Website (tyr0.chem.wsu.edu/~kipeters) Feb. 2017
              B. P. Prascher, D. E. Woon, K. A. Peterson, T. H. Dunning, Jr., A. K. Wilson, Theor. Chem. Acc. 128, 69 (2011)
      Al-Ar : Obtained from the ccRepo (grant-hill.group.shef.ac.uk/ccrepo) Feb. 2017
              D. E. Woon, T. H. Dunning, Jr., J. Chem. Phys. 98, 1358 (1993)
      Sc-Zn : Obtained from the ccRepo (grant-hill.group.shef.ac.uk/ccrepo) Feb. 2017
              N. B. Balabanov, K. A. Peterson, J. Chem. Phys. 123, 064107 (2005)
              N. B. Balabanov, K. A. Peterson, J. Chem. Phys. 125, 074110 (2006)
      Ga-Kr : Obtained from the ccRepo (grant-hill.group.shef.ac.uk/ccrepo) Feb. 2017
              A. K. Wilson, D. E. Woon, K. A. Peterson, T. H. Dunning, Jr., J. Chem. Phys. 110, 7667 (1999)
     Ag, Au : Obtained from the Peterson Research Group Website (tyr0.chem.wsu.edu/~kipeters) Feb. 2017
              K. A. Peterson, C. Puzzarini, Theor. Chem. Acc. 114, 283 (2005)

----- AuxC basis set information -----
Your calculation utilizes the auxiliary basis: aug-cc-pVTZ/C 
  H-He, B-F, Al-Ar, Ga-Kr : Obtained from the EMSL Basis Set Exchange (bse.pnl.gov) Feb. 2017
                            F. Weigend, A. Kohn, C. Hattig, J. Chem. Phys. 116, 3175 (2002)
                   Be, Mg : Obtained from the TURBOMOLE 7.0 basis set library
                            C. Haettig, Phys. Chem. Chem. Phys. 7, 59 (2005)
                       Ne : Obtained from the EMSL Basis Set Exchange (bse.pnl.gov) Feb. 2017
                            C. Haettig, Phys. Chem. Chem. Phys. 7, 59 (2005)
                            F. Weigend, A. Kohn, C. Hattig, J. Chem. Phys. 116, 3175 (2002)
                    Sc-Zn : Obtained from the EMSL Basis Set Exchange (bse.pnl.gov) Feb. 2017
                            J. G. Hill, J. A. Platts, J. Chem. Phys. 128, 044104 (2008)

================================================================================
                                        WARNINGS
                       Please study these warnings very carefully!
================================================================================


WARNING: No MP2 level density has been requested!
         To caclulate MP2 level properties use
         %mp2 Density relaxed end
         or
         %mp2 Density unrelaxed end

WARNING: Post HF methods need fully converged wavefunctions
  ===> : Setting SCFConvForced true
         You can overwrite this default with %scf ConvForced false 


INFO   : the flag for use of the SHARK integral package has been found!

================================================================================
                                       INPUT FILE
================================================================================
NAME = TZ_2-phenylethanol.inp
|  1> !ri-mp2 aug-cc-pvtz aug-cc-pvtz/c tightscf
|  2> %pal nprocs 16 end
|  3> 
|  4> * xyz 0 1
|  5> C      2.814804   -0.001719   -0.301389
|  6> C      2.134649   -1.200607   -0.119441
|  7> C      2.136199    1.201043   -0.142617
|  8> C      0.785938   -1.194095    0.216238
|  9> C      0.787279    1.201961    0.193344
| 10> C      0.091182    0.006113    0.377674
| 11> C     -1.382308    0.006570    0.699381
| 12> C     -2.252301   -0.022112   -0.563342
| 13> O     -3.645434   -0.085015   -0.273276
| 14> H      3.864982   -0.004812   -0.560108
| 15> H      2.655224   -2.142017   -0.234918
| 16> H      2.657691    2.139541   -0.276374
| 17> H      0.266470   -2.133322    0.361844
| 18> H      0.269747    2.144962    0.321584
| 19> H     -1.634273    0.897699    1.281212
| 20> H     -1.639570   -0.859511    1.311331
| 21> H     -2.033440   -0.917594   -1.144566
| 22> H     -2.023001    0.842586   -1.195287
| 23> H     -3.913002    0.729665    0.162405
| 24> *
| 25> 
| 26>                          ****END OF INPUT****
================================================================================

                       ****************************
                       * Single Point Calculation *
                       ****************************

---------------------------------
CARTESIAN COORDINATES (ANGSTROEM)
---------------------------------
  C      2.814804   -0.001719   -0.301389
  C      2.134649   -1.200607   -0.119441
  C      2.136199    1.201043   -0.142617
  C      0.785938   -1.194095    0.216238
  C      0.787279    1.201961    0.193344
  C      0.091182    0.006113    0.377674
  C     -1.382308    0.006570    0.699381
  C     -2.252301   -0.022112   -0.563342
  O     -3.645434   -0.085015   -0.273276
  H      3.864982   -0.004812   -0.560108
  H      2.655224   -2.142017   -0.234918
  H      2.657691    2.139541   -0.276374
  H      0.266470   -2.133322    0.361844
  H      0.269747    2.144962    0.321584
  H     -1.634273    0.897699    1.281212
  H     -1.639570   -0.859511    1.311331
  H     -2.033440   -0.917594   -1.144566
  H     -2.023001    0.842586   -1.195287
  H     -3.913002    0.729665    0.162405

----------------------------
CARTESIAN COORDINATES (A.U.)
----------------------------
  NO LB      ZA    FRAG     MASS         X           Y           Z
   0 C     6.0000    0    12.011    5.319209   -0.003248   -0.569543
   1 C     6.0000    0    12.011    4.033902   -2.268818   -0.225711
   2 C     6.0000    0    12.011    4.036831    2.269642   -0.269507
   3 C     6.0000    0    12.011    1.485208   -2.256513    0.408631
   4 C     6.0000    0    12.011    1.487742    2.271377    0.365367
   5 C     6.0000    0    12.011    0.172309    0.011552    0.713700
   6 C     6.0000    0    12.011   -2.612184    0.012416    1.321639
   7 C     6.0000    0    12.011   -4.256232   -0.041786   -1.064562
   8 O     8.0000    0    15.999   -6.888872   -0.160655   -0.516417
   9 H     1.0000    0     1.008    7.303757   -0.009093   -1.058451
  10 H     1.0000    0     1.008    5.017646   -4.047826   -0.443931
  11 H     1.0000    0     1.008    5.022308    4.043147   -0.522271
  12 H     1.0000    0     1.008    0.503555   -4.031394    0.683786
  13 H     1.0000    0     1.008    0.509748    4.053391    0.607706
  14 H     1.0000    0     1.008   -3.088328    1.696405    2.421140
  15 H     1.0000    0     1.008   -3.098338   -1.624240    2.478056
  16 H     1.0000    0     1.008   -3.842645   -1.734001   -2.162916
  17 H     1.0000    0     1.008   -3.822918    1.592257   -2.258765
  18 H     1.0000    0     1.008   -7.394502    1.378867    0.306901

--------------------------------
INTERNAL COORDINATES (ANGSTROEM)
--------------------------------
 C      0   0   0     0.000000000000     0.00000000     0.00000000
 C      1   0   0     1.390341085947     0.00000000     0.00000000
 C      1   2   0     1.390089825390   119.49405906     0.00000000
 C      2   1   3     1.389871993640   120.15087500     0.11540688
 C      3   1   2     1.390127980671   120.12428290   359.89280352
 C      5   3   1     1.395915836078   121.01298120     0.03581340
 C      6   5   3     1.508200378862   121.00397987   181.94787575
 C      7   6   5     1.533681796170   112.24556105    89.65114191
 O      8   7   6     1.424399742858   112.82816599   177.24764217
 H      1   2   3     1.081581674814   120.25397670   179.72515313
 H      2   1   3     1.081936253323   120.06302078   180.36458588
 H      3   1   2     1.081953481956   120.07302705   179.64803303
 H      4   2   1     1.083141480966   119.59032315   180.37747540
 H      5   3   1     1.083298552858   119.52213511   179.56514740
 H      7   6   5     1.093674800124   109.80415636   328.47344171
 H      7   6   5     1.091220801536   110.46958554   210.56856788
 H      8   7   6     1.089774971185   109.91101388    59.69310109
 H      8   7   6     1.095278779229   109.96923235   301.66423256
 H      9   8   7     0.961828503833   109.08187614    65.74515195

---------------------------
INTERNAL COORDINATES (A.U.)
---------------------------
 C      0   0   0     0.000000000000     0.00000000     0.00000000
 C      1   0   0     2.627363885179     0.00000000     0.00000000
 C      1   2   0     2.626889071538   119.49405906     0.00000000
 C      2   1   3     2.626477429188   120.15087500     0.11540688
 C      3   1   2     2.626961174570   120.12428290   359.89280352
 C      5   3   1     2.637898636191   121.01298120     0.03581340
 C      6   5   3     2.850085671125   121.00397987   181.94787575
 C      7   6   5     2.898238571341   112.24556105    89.65114191
 O      8   7   6     2.691725419230   112.82816599   177.24764217
 H      1   2   3     2.043893156867   120.25397670   179.72515313
 H      2   1   3     2.044563213141   120.06302078   180.36458588
 H      3   1   2     2.044595770540   120.07302705   179.64803303
 H      4   2   1     2.046840763315   119.59032315   180.37747540
 H      5   3   1     2.047137586176   119.52213511   179.56514740
 H      7   6   5     2.066745851806   109.80415636   328.47344171
 H      7   6   5     2.062108466541   110.46958554   210.56856788
 H      8   7   6     2.059376243141   109.91101388    59.69310109
 H      8   7   6     2.069776933038   109.96923235   301.66423256
 H      9   8   7     1.817592460043   109.08187614    65.74515195

---------------------
BASIS SET INFORMATION
---------------------
There are 3 groups of distinct atoms

 Group   1 Type C   : 19s6p3d2f contracted to 5s4p3d2f pattern {88111/3111/111/11}
 Group   2 Type O   : 19s6p3d2f contracted to 5s4p3d2f pattern {88111/3111/111/11}
 Group   3 Type H   : 6s3p2d contracted to 4s3p2d pattern {3111/111/11}

Atom   0C    basis set group =>   1
Atom   1C    basis set group =>   1
Atom   2C    basis set group =>   1
Atom   3C    basis set group =>   1
Atom   4C    basis set group =>   1
Atom   5C    basis set group =>   1
Atom   6C    basis set group =>   1
Atom   7C    basis set group =>   1
Atom   8O    basis set group =>   2
Atom   9H    basis set group =>   3
Atom  10H    basis set group =>   3
Atom  11H    basis set group =>   3
Atom  12H    basis set group =>   3
Atom  13H    basis set group =>   3
Atom  14H    basis set group =>   3
Atom  15H    basis set group =>   3
Atom  16H    basis set group =>   3
Atom  17H    basis set group =>   3
Atom  18H    basis set group =>   3
---------------------------------
AUXILIARY/C BASIS SET INFORMATION
---------------------------------
There are 3 groups of distinct atoms

 Group   1 Type C   : 9s7p6d4f2g contracted to 9s7p6d4f2g pattern {111111111/1111111/111111/1111/11}
 Group   2 Type O   : 9s7p6d4f2g contracted to 9s7p6d4f2g pattern {111111111/1111111/111111/1111/11}
 Group   3 Type H   : 5s4p3d2f contracted to 5s4p3d2f pattern {11111/1111/111/11}

Atom   0C    basis set group =>   1
Atom   1C    basis set group =>   1
Atom   2C    basis set group =>   1
Atom   3C    basis set group =>   1
Atom   4C    basis set group =>   1
Atom   5C    basis set group =>   1
Atom   6C    basis set group =>   1
Atom   7C    basis set group =>   1
Atom   8O    basis set group =>   2
Atom   9H    basis set group =>   3
Atom  10H    basis set group =>   3
Atom  11H    basis set group =>   3
Atom  12H    basis set group =>   3
Atom  13H    basis set group =>   3
Atom  14H    basis set group =>   3
Atom  15H    basis set group =>   3
Atom  16H    basis set group =>   3
Atom  17H    basis set group =>   3
Atom  18H    basis set group =>   3


           ************************************************************
           *        Program running with 16 parallel MPI-processes    *
           *              working on a common directory               *
           ************************************************************
------------------------------------------------------------------------------
                           ORCA GTO INTEGRAL CALCULATION
------------------------------------------------------------------------------
------------------------------------------------------------------------------
                   ___                                                        
                  /   \      - P O W E R E D   B Y -                         
                 /     \                                                     
                 |  |  |   _    _      __       _____    __    __             
                 |  |  |  | |  | |    /  \     |  _  \  |  |  /  |          
                  \  \/   | |  | |   /    \    | | | |  |  | /  /          
                 / \  \   | |__| |  /  /\  \   | |_| |  |  |/  /          
                |  |  |   |  __  | /  /__\  \  |    /   |      \           
                |  |  |   | |  | | |   __   |  |    \   |  |\   \          
                \     /   | |  | | |  |  |  |  | |\  \  |  | \   \       
                 \___/    |_|  |_| |__|  |__|  |_| \__\ |__|  \__/        
                                                                              
                      - O R C A' S   B I G   F R I E N D -                    
                                      &                                       
                       - I N T E G R A L  F E E D E R -                       
                                                                              
 v1 FN, 2020, v2 2021                                                         
------------------------------------------------------------------------------


Reading SHARK input file TZ_2-phenylethanol.SHARKINP.tmp ... ok
----------------------
SHARK INTEGRAL PACKAGE
----------------------

Number of atoms                             ...     19
Number of basis functions                   ...    698
Number of shells                            ...    270
Maximum angular momentum                    ...      3
Integral batch strategy                     ... SHARK/LIBINT Hybrid
RI-J (if used) integral strategy            ... SPLIT-RIJ (Revised 2003 algorithm where possible)
Printlevel                                  ...      1
Contraction scheme used                     ... PARTIAL GENERAL contraction
Coulomb Range Separation                    ... NOT USED
Exchange Range Separation                   ... NOT USED
Finite Nucleus Model                        ... NOT USED
Auxiliary Coulomb fitting basis             ... NOT available
Auxiliary J/K fitting basis                 ... NOT available
Auxiliary Correlation fitting basis         ... AVAILABLE
   # of basis functions in Aux-C            ...   1414
   # of shells in Aux-C                     ...    392
   Maximum angular momentum in Aux-C        ...      4
Auxiliary 'external' fitting basis          ... NOT available
Integral threshold                          ...     2.500000e-11
Primitive cut-off                           ...     2.500000e-12
Primitive pair pre-selection threshold      ...     2.500000e-12

Calculating pre-screening integrals         ... done (  0.0 sec) Dimension = 270
Calculating pre-screening integrals (ORCA)  ... done (  0.1 sec) Dimension = 216
Organizing shell pair data                  ... done (  0.3 sec)
Shell pair information
Total number of shell pairs                 ...     36585
Shell pairs after pre-screening             ...     30858
Total number of primitive shell pairs       ...     47643
Primitive shell pairs kept                  ...     37307
          la=0 lb=0:   7014 shell pairs
          la=1 lb=0:   7940 shell pairs
          la=1 lb=1:   2074 shell pairs
          la=2 lb=0:   5601 shell pairs
          la=2 lb=1:   2894 shell pairs
          la=2 lb=2:   1048 shell pairs
          la=3 lb=0:   2202 shell pairs
          la=3 lb=1:   1123 shell pairs
          la=3 lb=2:    799 shell pairs
          la=3 lb=3:    163 shell pairs

Calculating one electron integrals          ... done (  0.0 sec)
Calculating RI/C V-Matrix + Cholesky decomp.... done (  0.1 sec)
Calculating Nuclear repulsion               ... done (  0.0 sec) ENN=    412.262848526792 Eh

SHARK setup successfully completed in   1.1 seconds

Maximum memory used throughout the entire GTOINT-calculation: 41.1 MB


           ************************************************************
           *        Program running with 16 parallel MPI-processes    *
           *              working on a common directory               *
           ************************************************************
-------------------------------------------------------------------------------
                                 ORCA SCF
-------------------------------------------------------------------------------

------------
SCF SETTINGS
------------
Hamiltonian:
 Ab initio Hamiltonian  Method          .... Hartree-Fock(GTOs)


General Settings:
 Integral files         IntName         .... TZ_2-phenylethanol
 Hartree-Fock type      HFTyp           .... RHF
 Total Charge           Charge          ....    0
 Multiplicity           Mult            ....    1
 Number of Electrons    NEL             ....   66
 Basis Dimension        Dim             ....  644
 Nuclear Repulsion      ENuc            ....    412.2628485268 Eh

Convergence Acceleration:
 DIIS                   CNVDIIS         .... on
   Start iteration      DIISMaxIt       ....    12
   Startup error        DIISStart       ....  0.200000
   # of expansion vecs  DIISMaxEq       ....     5
   Bias factor          DIISBfac        ....   1.050
   Max. coefficient     DIISMaxC        ....  10.000
 Trust-Rad. Augm. Hess. CNVTRAH         .... auto
   Auto Start mean grad. ratio tolernc. ....  1.125000
   Auto Start start iteration           ....    20
   Auto Start num. interpolation iter.  ....    10
   Max. Number of Micro iterations      ....    16
   Max. Number of Macro iterations      .... Maxiter - #DIIS iter
   Number of Davidson start vectors     ....     2
   Converg. threshold I  (grad. norm)   ....   1.000e-05
   Converg. threshold II (energy diff.) ....   1.000e-08
   Grad. Scal. Fac. for Micro threshold ....   0.100
   Minimum threshold for Micro iter.    ....   0.010
   NR start threshold (gradient norm)   ....   0.001
   Initial trust radius                 ....   0.400
   Minimum AH scaling param. (alpha)    ....   1.000
   Maximum AH scaling param. (alpha)    .... 1000.000
   Orbital update algorithm             .... Taylor
   White noise on init. David. guess    .... on
   Maximum white noise                  ....   0.010
   Quad. conv. algorithm                .... NR
 SOSCF                  CNVSOSCF        .... on
   Start iteration      SOSCFMaxIt      ....   150
   Startup grad/error   SOSCFStart      ....  0.003300
 Level Shifting         CNVShift        .... on
   Level shift para.    LevelShift      ....    0.2500
   Turn off err/grad.   ShiftErr        ....    0.0010
 Zerner damping         CNVZerner       .... off
 Static damping         CNVDamp         .... on
   Fraction old density DampFac         ....    0.7000
   Max. Damping (<1)    DampMax         ....    0.9800
   Min. Damping (>=0)   DampMin         ....    0.0000
   Turn off err/grad.   DampErr         ....    0.1000
 Fernandez-Rico         CNVRico         .... off

SCF Procedure:
 Maximum # iterations   MaxIter         ....   125
 SCF integral mode      SCFMode         .... Direct
   Integral package                     .... SHARK and LIBINT hybrid scheme
 Reset frequency        DirectResetFreq ....    20
 Integral Threshold     Thresh          ....  2.500e-11 Eh
 Primitive CutOff       TCut            ....  2.500e-12 Eh

Convergence Tolerance:
 Convergence Check Mode ConvCheckMode   .... Total+1el-Energy
 Convergence forced     ConvForced      .... 1
 Energy Change          TolE            ....  1.000e-08 Eh
 1-El. energy change                    ....  1.000e-05 Eh
 Orbital Gradient       TolG            ....  1.000e-05
 Orbital Rotation angle TolX            ....  1.000e-05
 DIIS Error             TolErr          ....  5.000e-07


Diagonalization of the overlap matrix:
Smallest eigenvalue                        ... 5.188e-07
Time for diagonalization                   ...    0.076 sec
Threshold for overlap eigenvalues          ... 1.000e-08
Number of eigenvalues below threshold      ... 0
Time for construction of square roots      ...    0.045 sec
Total time needed                          ...    0.124 sec

Time for model grid setup =    0.101 sec

------------------------------
INITIAL GUESS: MODEL POTENTIAL
------------------------------
Loading Hartree-Fock densities                     ... done
Calculating cut-offs                               ... done
Initializing the effective Hamiltonian             ... done
Setting up the integral package (SHARK)            ... done
Starting the Coulomb interaction                   ... done (   0.2 sec)
Reading the grid                                   ... done
Mapping shells                                     ... done
Starting the XC term evaluation                    ... done (   0.1 sec)
Transforming the Hamiltonian                       ... done (   0.0 sec)
Diagonalizing the Hamiltonian                      ... done (   0.1 sec)
Back transforming the eigenvectors                 ... done (   0.0 sec)
Now organizing SCF variables                       ... done
                      ------------------
                      INITIAL GUESS DONE (   0.6 sec)
                      ------------------
--------------
SCF ITERATIONS
--------------
ITER       Energy         Delta-E        Max-DP      RMS-DP      [F,P]     Damp
               ***  Starting incremental Fock matrix formation  ***
  0   -383.3513044644   0.000000000000 0.07420153  0.00111260  0.2990623 0.7000
  1   -383.4924212656  -0.141116801190 0.05427144  0.00092398  0.1809082 0.7000
                               ***Turning on DIIS***
  2   -383.5797519776  -0.087330711953 0.03792633  0.00068898  0.1100640 0.7000
  3   -384.6746274590  -1.094875481411 0.10079268  0.00181797  0.0827650 0.0000
  4   -383.6633235294   1.011303929548 0.01858567  0.00025083  0.0077288 0.0000
                      *** Initiating the SOSCF procedure ***
                           *** Shutting down DIIS ***
                      *** Re-Reading the Fockian *** 
                      *** Removing any level shift *** 
ITER      Energy       Delta-E        Grad      Rot      Max-DP    RMS-DP
  5   -383.75191582  -0.0885922954  0.000807  0.000807  0.007080  0.000095
               *** Restarting incremental Fock matrix formation ***
  6   -383.76355357  -0.0116377424  0.000312  0.000567  0.001418  0.000023
  7   -383.76357210  -0.0000185281  0.000120  0.000391  0.001013  0.000014
  8   -383.76357514  -0.0000030464  0.000046  0.000072  0.000334  0.000004
  9   -383.76357544  -0.0000003016  0.000015  0.000031  0.000118  0.000001
 10   -383.76357546  -0.0000000184  0.000011  0.000026  0.000075  0.000001
 11   -383.76357547  -0.0000000085  0.000003  0.000014  0.000143  0.000002
                  ***Gradient check signals convergence***
              ***Rediagonalizing the Fockian in SOSCF/NRSCF***

               *****************************************************
               *                     SUCCESS                       *
               *           SCF CONVERGED AFTER  12 CYCLES          *
               *****************************************************


----------------
TOTAL SCF ENERGY
----------------

Total Energy       :         -383.76357548 Eh          -10442.73779 eV

Components:
Nuclear Repulsion  :          412.26284853 Eh           11218.24243 eV
Electronic Energy  :         -796.02642400 Eh          -21660.98022 eV
One Electron Energy:        -1337.60710368 Eh          -36398.13974 eV
Two Electron Energy:          541.58067968 Eh           14737.15952 eV

Virial components:
Potential Energy   :         -767.02422706 Eh          -20871.79032 eV
Kinetic Energy     :          383.26065158 Eh           10429.05253 eV
Virial Ratio       :            2.00131222


---------------
SCF CONVERGENCE
---------------

  Last Energy change         ...   -5.4288e-09  Tolerance :   1.0000e-08
  Last MAX-Density change    ...    5.8438e-05  Tolerance :   1.0000e-07
  Last RMS-Density change    ...    7.2447e-07  Tolerance :   5.0000e-09
  Last Orbital Gradient      ...    1.9251e-06  Tolerance :   1.0000e-05
  Last Orbital Rotation      ...    7.2429e-06  Tolerance :   1.0000e-05

             **** THE GBW FILE WAS UPDATED (TZ_2-phenylethanol.gbw) ****
             **** DENSITY TZ_2-phenylethanol.scfp WAS UPDATED ****
             **** ENERGY FILE WAS UPDATED (TZ_2-phenylethanol.en.tmp) ****
             **** THE GBW FILE WAS UPDATED (TZ_2-phenylethanol.gbw) ****
             **** DENSITY TZ_2-phenylethanol.scfp WAS UPDATED ****
----------------
ORBITAL ENERGIES
----------------

  NO   OCC          E(Eh)            E(eV) 
   0   2.0000     -20.559010      -559.4391 
   1   2.0000     -11.278024      -306.8906 
   2   2.0000     -11.244167      -305.9693 
   3   2.0000     -11.236856      -305.7704 
   4   2.0000     -11.236500      -305.7607 
   5   2.0000     -11.234036      -305.6937 
   6   2.0000     -11.233463      -305.6781 
   7   2.0000     -11.233197      -305.6708 
   8   2.0000     -11.231831      -305.6337 
   9   2.0000      -1.359202       -36.9858 
  10   2.0000      -1.160016       -31.5656 
  11   2.0000      -1.064200       -28.9583 
  12   2.0000      -1.017375       -27.6842 
  13   2.0000      -0.976525       -26.5726 
  14   2.0000      -0.864932       -23.5360 
  15   2.0000      -0.830805       -22.6073 
  16   2.0000      -0.797969       -21.7138 
  17   2.0000      -0.700212       -19.0537 
  18   2.0000      -0.693804       -18.8794 
  19   2.0000      -0.645554       -17.5664 
  20   2.0000      -0.639412       -17.3993 
  21   2.0000      -0.609045       -16.5730 
  22   2.0000      -0.598861       -16.2958 
  23   2.0000      -0.588032       -16.0012 
  24   2.0000      -0.556894       -15.1539 
  25   2.0000      -0.543423       -14.7873 
  26   2.0000      -0.510039       -13.8789 
  27   2.0000      -0.494392       -13.4531 
  28   2.0000      -0.489938       -13.3319 
  29   2.0000      -0.478168       -13.0116 
  30   2.0000      -0.446688       -12.1550 
  31   2.0000      -0.339708        -9.2439 
  32   2.0000      -0.330660        -8.9977 
  33   0.0000       0.026946         0.7332 
  34   0.0000       0.030603         0.8328 
  35   0.0000       0.034346         0.9346 
  36   0.0000       0.042265         1.1501 
  37   0.0000       0.044341         1.2066 
  38   0.0000       0.048410         1.3173 
  39   0.0000       0.059154         1.6097 
  40   0.0000       0.060133         1.6363 
  41   0.0000       0.065596         1.7850 
  42   0.0000       0.074244         2.0203 
  43   0.0000       0.086906         2.3648 
  44   0.0000       0.095538         2.5997 
  45   0.0000       0.103043         2.8039 
  46   0.0000       0.103882         2.8268 
  47   0.0000       0.111302         3.0287 
  48   0.0000       0.116306         3.1649 
  49   0.0000       0.119208         3.2438 
  50   0.0000       0.121119         3.2958 
  51   0.0000       0.124557         3.3894 
  52   0.0000       0.125351         3.4110 
  53   0.0000       0.128496         3.4966 
  54   0.0000       0.131840         3.5875 
  55   0.0000       0.135171         3.6782 
  56   0.0000       0.140768         3.8305 
  57   0.0000       0.141105         3.8396 
  58   0.0000       0.146402         3.9838 
  59   0.0000       0.151225         4.1150 
  60   0.0000       0.157800         4.2940 
  61   0.0000       0.161487         4.3943 
  62   0.0000       0.162740         4.4284 
  63   0.0000       0.167106         4.5472 
  64   0.0000       0.172209         4.6860 
  65   0.0000       0.174685         4.7534 
  66   0.0000       0.183810         5.0017 
  67   0.0000       0.189481         5.1560 
  68   0.0000       0.192074         5.2266 
  69   0.0000       0.207683         5.6513 
  70   0.0000       0.221685         6.0323 
  71   0.0000       0.224340         6.1046 
  72   0.0000       0.236119         6.4251 
  73   0.0000       0.241436         6.5698 
  74   0.0000       0.248381         6.7588 
  75   0.0000       0.254000         6.9117 
  76   0.0000       0.261651         7.1199 
  77   0.0000       0.262221         7.1354 
  78   0.0000       0.272532         7.4160 
  79   0.0000       0.272971         7.4279 
  80   0.0000       0.278007         7.5649 
  81   0.0000       0.279420         7.6034 
  82   0.0000       0.288969         7.8632 
  83   0.0000       0.295579         8.0431 
  84   0.0000       0.301357         8.2003 
  85   0.0000       0.305288         8.3073 
  86   0.0000       0.309103         8.4111 
  87   0.0000       0.314019         8.5449 
  88   0.0000       0.315662         8.5896 
  89   0.0000       0.321177         8.7397 
  90   0.0000       0.324450         8.8287 
  91   0.0000       0.330434         8.9916 
  92   0.0000       0.332478         9.0472 
  93   0.0000       0.333809         9.0834 
  94   0.0000       0.340661         9.2699 
  95   0.0000       0.346994         9.4422 
  96   0.0000       0.351482         9.5643 
  97   0.0000       0.358738         9.7618 
  98   0.0000       0.361025         9.8240 
  99   0.0000       0.367056         9.9881 
 100   0.0000       0.375157        10.2085 
 101   0.0000       0.383382        10.4323 
 102   0.0000       0.388836        10.5808 
 103   0.0000       0.396746        10.7960 
 104   0.0000       0.404588        11.0094 
 105   0.0000       0.414406        11.2766 
 106   0.0000       0.418193        11.3796 
 107   0.0000       0.421566        11.4714 
 108   0.0000       0.424938        11.5631 
 109   0.0000       0.430230        11.7072 
 110   0.0000       0.436419        11.8756 
 111   0.0000       0.439581        11.9616 
 112   0.0000       0.442462        12.0400 
 113   0.0000       0.448376        12.2009 
 114   0.0000       0.453060        12.3284 
 115   0.0000       0.456185        12.4134 
 116   0.0000       0.458940        12.4884 
 117   0.0000       0.465358        12.6630 
 118   0.0000       0.472314        12.8523 
 119   0.0000       0.476310        12.9611 
 120   0.0000       0.478093        13.0096 
 121   0.0000       0.482409        13.1270 
 122   0.0000       0.484109        13.1733 
 123   0.0000       0.487234        13.2583 
 124   0.0000       0.496751        13.5173 
 125   0.0000       0.498961        13.5774 
 126   0.0000       0.504250        13.7213 
 127   0.0000       0.510155        13.8820 
 128   0.0000       0.515581        14.0297 
 129   0.0000       0.516603        14.0575 
 130   0.0000       0.524265        14.2660 
 131   0.0000       0.526498        14.3267 
 132   0.0000       0.527918        14.3654 
 133   0.0000       0.531411        14.4604 
 134   0.0000       0.534489        14.5442 
 135   0.0000       0.536673        14.6036 
 136   0.0000       0.541535        14.7359 
 137   0.0000       0.544944        14.8287 
 138   0.0000       0.550705        14.9854 
 139   0.0000       0.554883        15.0991 
 140   0.0000       0.567921        15.4539 
 141   0.0000       0.571878        15.5616 
 142   0.0000       0.577113        15.7041 
 143   0.0000       0.590492        16.0681 
 144   0.0000       0.595840        16.2136 
 145   0.0000       0.600371        16.3369 
 146   0.0000       0.605824        16.4853 
 147   0.0000       0.616390        16.7728 
 148   0.0000       0.624886        17.0040 
 149   0.0000       0.632209        17.2033 
 150   0.0000       0.637398        17.3445 
 151   0.0000       0.641169        17.4471 
 152   0.0000       0.659324        17.9411 
 153   0.0000       0.660755        17.9801 
 154   0.0000       0.670007        18.2318 
 155   0.0000       0.674907        18.3652 
 156   0.0000       0.678748        18.4697 
 157   0.0000       0.683199        18.5908 
 158   0.0000       0.698352        19.0031 
 159   0.0000       0.703360        19.1394 
 160   0.0000       0.705330        19.1930 
 161   0.0000       0.707822        19.2608 
 162   0.0000       0.715692        19.4750 
 163   0.0000       0.724975        19.7276 
 164   0.0000       0.729646        19.8547 
 165   0.0000       0.736521        20.0417 
 166   0.0000       0.739104        20.1120 
 167   0.0000       0.763427        20.7739 
 168   0.0000       0.766353        20.8535 
 169   0.0000       0.775961        21.1150 
 170   0.0000       0.792763        21.5722 
 171   0.0000       0.803430        21.8624 
 172   0.0000       0.806168        21.9369 
 173   0.0000       0.815493        22.1907 
 174   0.0000       0.818225        22.2650 
 175   0.0000       0.823485        22.4082 
 176   0.0000       0.834133        22.6979 
 177   0.0000       0.838915        22.8280 
 178   0.0000       0.845019        22.9941 
 179   0.0000       0.854253        23.2454 
 180   0.0000       0.857730        23.3400 
 181   0.0000       0.862596        23.4724 
 182   0.0000       0.869415        23.6580 
 183   0.0000       0.873110        23.7585 
 184   0.0000       0.874536        23.7973 
 185   0.0000       0.882642        24.0179 
 186   0.0000       0.889389        24.2015 
 187   0.0000       0.894352        24.3365 
 188   0.0000       0.905710        24.6456 
 189   0.0000       0.907867        24.7043 
 190   0.0000       0.912005        24.8169 
 191   0.0000       0.919144        25.0112 
 192   0.0000       0.920119        25.0377 
 193   0.0000       0.929671        25.2976 
 194   0.0000       0.936943        25.4955 
 195   0.0000       0.946159        25.7463 
 196   0.0000       0.948293        25.8044 
 197   0.0000       0.951581        25.8938 
 198   0.0000       0.959642        26.1132 
 199   0.0000       0.964624        26.2488 
 200   0.0000       0.968485        26.3538 
 201   0.0000       0.977038        26.5866 
 202   0.0000       0.982566        26.7370 
 203   0.0000       0.991701        26.9855 
 204   0.0000       1.002014        27.2662 
 205   0.0000       1.003738        27.3131 
 206   0.0000       1.009853        27.4795 
 207   0.0000       1.020690        27.7744 
 208   0.0000       1.030596        28.0439 
 209   0.0000       1.038444        28.2575 
 210   0.0000       1.038919        28.2704 
 211   0.0000       1.040197        28.3052 
 212   0.0000       1.050939        28.5975 
 213   0.0000       1.053664        28.6716 
 214   0.0000       1.060118        28.8473 
 215   0.0000       1.062672        28.9168 
 216   0.0000       1.068506        29.0755 
 217   0.0000       1.076519        29.2936 
 218   0.0000       1.084725        29.5169 
 219   0.0000       1.088710        29.6253 
 220   0.0000       1.094132        29.7728 
 221   0.0000       1.096226        29.8298 
 222   0.0000       1.104312        30.0499 
 223   0.0000       1.106270        30.1031 
 224   0.0000       1.111979        30.2585 
 225   0.0000       1.120299        30.4849 
 226   0.0000       1.129961        30.7478 
 227   0.0000       1.133073        30.8325 
 228   0.0000       1.138453        30.9789 
 229   0.0000       1.142323        31.0842 
 230   0.0000       1.148091        31.2411 
 231   0.0000       1.156714        31.4758 
 232   0.0000       1.166118        31.7317 
 233   0.0000       1.174931        31.9715 
 234   0.0000       1.175114        31.9765 
 235   0.0000       1.178778        32.0762 
 236   0.0000       1.186171        32.2773 
 237   0.0000       1.190520        32.3957 
 238   0.0000       1.194768        32.5113 
 239   0.0000       1.202394        32.7188 
 240   0.0000       1.207236        32.8506 
 241   0.0000       1.211413        32.9642 
 242   0.0000       1.226215        33.3670 
 243   0.0000       1.236829        33.6558 
 244   0.0000       1.241788        33.7908 
 245   0.0000       1.251036        34.0424 
 246   0.0000       1.252291        34.0766 
 247   0.0000       1.256661        34.1955 
 248   0.0000       1.262526        34.3551 
 249   0.0000       1.270642        34.5759 
 250   0.0000       1.280398        34.8414 
 251   0.0000       1.288236        35.0547 
 252   0.0000       1.293356        35.1940 
 253   0.0000       1.301504        35.4157 
 254   0.0000       1.308493        35.6059 
 255   0.0000       1.322950        35.9993 
 256   0.0000       1.331788        36.2398 
 257   0.0000       1.334349        36.3095 
 258   0.0000       1.339870        36.4597 
 259   0.0000       1.354793        36.8658 
 260   0.0000       1.362425        37.0735 
 261   0.0000       1.369572        37.2679 
 262   0.0000       1.387346        37.7516 
 263   0.0000       1.395489        37.9732 
 264   0.0000       1.404379        38.2151 
 265   0.0000       1.409277        38.3484 
 266   0.0000       1.415352        38.5137 
 267   0.0000       1.418792        38.6073 
 268   0.0000       1.428294        38.8659 
 269   0.0000       1.440710        39.2037 
 270   0.0000       1.445513        39.3344 
 271   0.0000       1.454097        39.5680 
 272   0.0000       1.459089        39.7038 
 273   0.0000       1.475898        40.1612 
 274   0.0000       1.486689        40.4549 
 275   0.0000       1.492444        40.6115 
 276   0.0000       1.505544        40.9679 
 277   0.0000       1.509880        41.0859 
 278   0.0000       1.516585        41.2684 
 279   0.0000       1.521816        41.4107 
 280   0.0000       1.526178        41.5294 
 281   0.0000       1.545654        42.0594 
 282   0.0000       1.558471        42.4081 
 283   0.0000       1.567394        42.6509 
 284   0.0000       1.571748        42.7694 
 285   0.0000       1.583364        43.0855 
 286   0.0000       1.590432        43.2779 
 287   0.0000       1.609145        43.7871 
 288   0.0000       1.618758        44.0486 
 289   0.0000       1.629055        44.3288 
 290   0.0000       1.634679        44.4819 
 291   0.0000       1.639782        44.6207 
 292   0.0000       1.648707        44.8636 
 293   0.0000       1.668750        45.4090 
 294   0.0000       1.671287        45.4780 
 295   0.0000       1.674073        45.5538 
 296   0.0000       1.683779        45.8179 
 297   0.0000       1.689379        45.9704 
 298   0.0000       1.703313        46.3495 
 299   0.0000       1.716779        46.7159 
 300   0.0000       1.722150        46.8621 
 301   0.0000       1.724185        46.9175 
 302   0.0000       1.731917        47.1279 
 303   0.0000       1.735139        47.2155 
 304   0.0000       1.746211        47.5168 
 305   0.0000       1.764961        48.0270 
 306   0.0000       1.770298        48.1722 
 307   0.0000       1.783117        48.5211 
 308   0.0000       1.795555        48.8595 
 309   0.0000       1.803939        49.0877 
 310   0.0000       1.805200        49.1220 
 311   0.0000       1.818886        49.4944 
 312   0.0000       1.833715        49.8979 
 313   0.0000       1.835431        49.9446 
 314   0.0000       1.844833        50.2005 
 315   0.0000       1.858490        50.5721 
 316   0.0000       1.863990        50.7217 
 317   0.0000       1.867492        50.8170 
 318   0.0000       1.885160        51.2978 
 319   0.0000       1.893928        51.5364 
 320   0.0000       1.899580        51.6902 
 321   0.0000       1.905803        51.8595 
 322   0.0000       1.911253        52.0078 
 323   0.0000       1.930102        52.5208 
 324   0.0000       1.939544        52.7777 
 325   0.0000       1.946560        52.9686 
 326   0.0000       1.953831        53.1664 
 327   0.0000       1.967748        53.5451 
 328   0.0000       1.971283        53.6413 
 329   0.0000       1.995748        54.3071 
 330   0.0000       2.001513        54.4639 
 331   0.0000       2.018196        54.9179 
 332   0.0000       2.021030        54.9950 
 333   0.0000       2.025500        55.1167 
 334   0.0000       2.031171        55.2710 
 335   0.0000       2.037793        55.4512 
 336   0.0000       2.057428        55.9855 
 337   0.0000       2.061260        56.0897 
 338   0.0000       2.071142        56.3586 
 339   0.0000       2.083935        56.7068 
 340   0.0000       2.090593        56.8879 
 341   0.0000       2.107378        57.3447 
 342   0.0000       2.111667        57.4614 
 343   0.0000       2.115893        57.5764 
 344   0.0000       2.119420        57.6723 
 345   0.0000       2.123298        57.7779 
 346   0.0000       2.127695        57.8975 
 347   0.0000       2.141122        58.2629 
 348   0.0000       2.148147        58.4540 
 349   0.0000       2.163887        58.8824 
 350   0.0000       2.171524        59.0902 
 351   0.0000       2.173971        59.1568 
 352   0.0000       2.184884        59.4537 
 353   0.0000       2.210338        60.1464 
 354   0.0000       2.225214        60.5512 
 355   0.0000       2.236030        60.8455 
 356   0.0000       2.256200        61.3943 
 357   0.0000       2.261999        61.5521 
 358   0.0000       2.282964        62.1226 
 359   0.0000       2.286860        62.2286 
 360   0.0000       2.300799        62.6079 
 361   0.0000       2.319687        63.1219 
 362   0.0000       2.339003        63.6475 
 363   0.0000       2.355305        64.0911 
 364   0.0000       2.358970        64.1908 
 365   0.0000       2.365877        64.3788 
 366   0.0000       2.380871        64.7868 
 367   0.0000       2.392732        65.1095 
 368   0.0000       2.395826        65.1937 
 369   0.0000       2.418260        65.8042 
 370   0.0000       2.431018        66.1514 
 371   0.0000       2.434937        66.2580 
 372   0.0000       2.449171        66.6453 
 373   0.0000       2.458881        66.9096 
 374   0.0000       2.472195        67.2718 
 375   0.0000       2.493899        67.8624 
 376   0.0000       2.506247        68.1984 
 377   0.0000       2.551271        69.4236 
 378   0.0000       2.566338        69.8336 
 379   0.0000       2.575000        70.0693 
 380   0.0000       2.585946        70.3672 
 381   0.0000       2.599284        70.7301 
 382   0.0000       2.615701        71.1768 
 383   0.0000       2.626542        71.4718 
 384   0.0000       2.631944        71.6188 
 385   0.0000       2.658591        72.3439 
 386   0.0000       2.667075        72.5748 
 387   0.0000       2.697052        73.3905 
 388   0.0000       2.760987        75.1303 
 389   0.0000       2.768039        75.3222 
 390   0.0000       2.777861        75.5895 
 391   0.0000       2.796079        76.0852 
 392   0.0000       2.820780        76.7573 
 393   0.0000       2.825246        76.8789 
 394   0.0000       2.851593        77.5958 
 395   0.0000       2.886940        78.5576 
 396   0.0000       2.888158        78.5908 
 397   0.0000       2.905420        79.0605 
 398   0.0000       2.946630        80.1819 
 399   0.0000       2.959019        80.5190 
 400   0.0000       2.980209        81.0956 
 401   0.0000       2.989573        81.3504 
 402   0.0000       3.009128        81.8825 
 403   0.0000       3.066718        83.4497 
 404   0.0000       3.083522        83.9069 
 405   0.0000       3.102741        84.4299 
 406   0.0000       3.129938        85.1699 
 407   0.0000       3.155272        85.8593 
 408   0.0000       3.194132        86.9167 
 409   0.0000       3.219858        87.6168 
 410   0.0000       3.221479        87.6609 
 411   0.0000       3.246654        88.3459 
 412   0.0000       3.292101        89.5826 
 413   0.0000       3.301677        89.8432 
 414   0.0000       3.313821        90.1736 
 415   0.0000       3.326228        90.5113 
 416   0.0000       3.354466        91.2797 
 417   0.0000       3.361559        91.4727 
 418   0.0000       3.374439        91.8231 
 419   0.0000       3.382792        92.0504 
 420   0.0000       3.403989        92.6273 
 421   0.0000       3.423371        93.1547 
 422   0.0000       3.438160        93.5571 
 423   0.0000       3.441252        93.6412 
 424   0.0000       3.448794        93.8465 
 425   0.0000       3.456037        94.0436 
 426   0.0000       3.473826        94.5276 
 427   0.0000       3.487311        94.8946 
 428   0.0000       3.506654        95.4209 
 429   0.0000       3.522366        95.8484 
 430   0.0000       3.532482        96.1237 
 431   0.0000       3.541356        96.3652 
 432   0.0000       3.561299        96.9079 
 433   0.0000       3.563450        96.9664 
 434   0.0000       3.568623        97.1072 
 435   0.0000       3.574325        97.2623 
 436   0.0000       3.594476        97.8107 
 437   0.0000       3.602751        98.0358 
 438   0.0000       3.613467        98.3274 
 439   0.0000       3.620557        98.5204 
 440   0.0000       3.626239        98.6750 
 441   0.0000       3.634537        98.9008 
 442   0.0000       3.663455        99.6877 
 443   0.0000       3.665873        99.7535 
 444   0.0000       3.673337        99.9566 
 445   0.0000       3.682020       100.1929 
 446   0.0000       3.698329       100.6367 
 447   0.0000       3.717470       101.1575 
 448   0.0000       3.729992       101.4982 
 449   0.0000       3.737867       101.7125 
 450   0.0000       3.771861       102.6376 
 451   0.0000       3.795818       103.2895 
 452   0.0000       3.814576       103.7999 
 453   0.0000       3.822118       104.0051 
 454   0.0000       3.829279       104.2000 
 455   0.0000       3.836511       104.3968 
 456   0.0000       3.850139       104.7676 
 457   0.0000       3.865531       105.1864 
 458   0.0000       3.872382       105.3729 
 459   0.0000       3.885838       105.7390 
 460   0.0000       3.891859       105.9029 
 461   0.0000       3.897460       106.0553 
 462   0.0000       3.923074       106.7523 
 463   0.0000       3.930969       106.9671 
 464   0.0000       3.935929       107.1021 
 465   0.0000       3.940672       107.2311 
 466   0.0000       3.958304       107.7109 
 467   0.0000       3.966616       107.9371 
 468   0.0000       3.973917       108.1358 
 469   0.0000       3.976149       108.1965 
 470   0.0000       3.996327       108.7456 
 471   0.0000       4.006800       109.0306 
 472   0.0000       4.010815       109.1398 
 473   0.0000       4.022209       109.4499 
 474   0.0000       4.029169       109.6393 
 475   0.0000       4.044673       110.0612 
 476   0.0000       4.056576       110.3851 
 477   0.0000       4.068332       110.7049 
 478   0.0000       4.077881       110.9648 
 479   0.0000       4.089150       111.2714 
 480   0.0000       4.092623       111.3659 
 481   0.0000       4.110207       111.8444 
 482   0.0000       4.118808       112.0785 
 483   0.0000       4.123803       112.2144 
 484   0.0000       4.138868       112.6243 
 485   0.0000       4.145120       112.7945 
 486   0.0000       4.156122       113.0938 
 487   0.0000       4.167637       113.4072 
 488   0.0000       4.174433       113.5921 
 489   0.0000       4.209152       114.5369 
 490   0.0000       4.221022       114.8598 
 491   0.0000       4.231478       115.1444 
 492   0.0000       4.248194       115.5992 
 493   0.0000       4.274016       116.3019 
 494   0.0000       4.274788       116.3229 
 495   0.0000       4.288134       116.6861 
 496   0.0000       4.291978       116.7907 
 497   0.0000       4.317018       117.4720 
 498   0.0000       4.327158       117.7479 
 499   0.0000       4.338929       118.0683 
 500   0.0000       4.345664       118.2515 
 501   0.0000       4.357550       118.5750 
 502   0.0000       4.382152       119.2444 
 503   0.0000       4.389859       119.4541 
 504   0.0000       4.402868       119.8081 
 505   0.0000       4.404832       119.8616 
 506   0.0000       4.415963       120.1645 
 507   0.0000       4.428538       120.5066 
 508   0.0000       4.448213       121.0420 
 509   0.0000       4.455651       121.2444 
 510   0.0000       4.459938       121.3611 
 511   0.0000       4.467146       121.5572 
 512   0.0000       4.469888       121.6318 
 513   0.0000       4.482688       121.9801 
 514   0.0000       4.488471       122.1375 
 515   0.0000       4.495700       122.3342 
 516   0.0000       4.522245       123.0565 
 517   0.0000       4.530264       123.2747 
 518   0.0000       4.554607       123.9372 
 519   0.0000       4.583554       124.7249 
 520   0.0000       4.597795       125.1124 
 521   0.0000       4.611246       125.4784 
 522   0.0000       4.634290       126.1055 
 523   0.0000       4.656096       126.6988 
 524   0.0000       4.665400       126.9520 
 525   0.0000       4.684020       127.4587 
 526   0.0000       4.687308       127.5481 
 527   0.0000       4.711648       128.2105 
 528   0.0000       4.720967       128.4641 
 529   0.0000       4.737737       128.9204 
 530   0.0000       4.746039       129.1463 
 531   0.0000       4.754491       129.3763 
 532   0.0000       4.757915       129.4694 
 533   0.0000       4.781747       130.1179 
 534   0.0000       4.786933       130.2591 
 535   0.0000       4.803334       130.7053 
 536   0.0000       4.809127       130.8630 
 537   0.0000       4.830577       131.4467 
 538   0.0000       4.837983       131.6482 
 539   0.0000       4.868397       132.4758 
 540   0.0000       4.906132       133.5026 
 541   0.0000       4.915440       133.7559 
 542   0.0000       4.929467       134.1376 
 543   0.0000       4.940115       134.4274 
 544   0.0000       4.960797       134.9901 
 545   0.0000       4.973746       135.3425 
 546   0.0000       4.995293       135.9288 
 547   0.0000       4.997023       135.9759 
 548   0.0000       5.002950       136.1372 
 549   0.0000       5.040826       137.1679 
 550   0.0000       5.045369       137.2915 
 551   0.0000       5.077016       138.1526 
 552   0.0000       5.090654       138.5237 
 553   0.0000       5.097408       138.7075 
 554   0.0000       5.102015       138.8329 
 555   0.0000       5.125910       139.4831 
 556   0.0000       5.131420       139.6330 
 557   0.0000       5.133315       139.6846 
 558   0.0000       5.147970       140.0834 
 559   0.0000       5.169850       140.6788 
 560   0.0000       5.173150       140.7686 
 561   0.0000       5.189715       141.2193 
 562   0.0000       5.194932       141.3613 
 563   0.0000       5.204946       141.6338 
 564   0.0000       5.215792       141.9289 
 565   0.0000       5.247205       142.7837 
 566   0.0000       5.259853       143.1279 
 567   0.0000       5.275052       143.5415 
 568   0.0000       5.288645       143.9114 
 569   0.0000       5.316237       144.6622 
 570   0.0000       5.348326       145.5353 
 571   0.0000       5.350542       145.5956 
 572   0.0000       5.364704       145.9810 
 573   0.0000       5.378625       146.3598 
 574   0.0000       5.402364       147.0058 
 575   0.0000       5.441876       148.0810 
 576   0.0000       5.446160       148.1975 
 577   0.0000       5.459916       148.5719 
 578   0.0000       5.478106       149.0668 
 579   0.0000       5.483964       149.2262 
 580   0.0000       5.510963       149.9609 
 581   0.0000       5.519907       150.2043 
 582   0.0000       5.536181       150.6471 
 583   0.0000       5.570157       151.5717 
 584   0.0000       5.575496       151.7170 
 585   0.0000       5.606024       152.5477 
 586   0.0000       5.623377       153.0199 
 587   0.0000       5.652140       153.8025 
 588   0.0000       5.686957       154.7500 
 589   0.0000       5.702608       155.1759 
 590   0.0000       5.712579       155.4472 
 591   0.0000       5.771243       157.0435 
 592   0.0000       5.780707       157.3010 
 593   0.0000       5.818377       158.3261 
 594   0.0000       5.836448       158.8178 
 595   0.0000       5.851463       159.2264 
 596   0.0000       5.893648       160.3743 
 597   0.0000       5.936416       161.5381 
 598   0.0000       6.073573       165.2703 
 599   0.0000       6.094936       165.8516 
 600   0.0000       6.104104       166.1011 
 601   0.0000       6.129240       166.7851 
 602   0.0000       6.138692       167.0423 
 603   0.0000       6.183352       168.2576 
 604   0.0000       6.199425       168.6949 
 605   0.0000       6.232207       169.5870 
 606   0.0000       6.285883       171.0476 
 607   0.0000       6.307632       171.6394 
 608   0.0000       6.359791       173.0587 
 609   0.0000       6.393933       173.9878 
 610   0.0000       6.435212       175.1110 
 611   0.0000       6.440298       175.2494 
 612   0.0000       6.551756       178.2823 
 613   0.0000       6.579756       179.0443 
 614   0.0000       6.630249       180.4183 
 615   0.0000       6.717969       182.8052 
 616   0.0000       6.773224       184.3088 
 617   0.0000       6.786736       184.6765 
 618   0.0000       6.901230       187.7920 
 619   0.0000       6.938630       188.8097 
 620   0.0000       6.959057       189.3656 
 621   0.0000       7.002866       190.5577 
 622   0.0000       7.041270       191.6027 
 623   0.0000       7.120727       193.7648 
 624   0.0000       7.159608       194.8228 
 625   0.0000       7.347576       199.9377 
 626   0.0000       7.356889       200.1911 
 627   0.0000       7.371882       200.5991 
 628   0.0000       7.473748       203.3710 
 629   0.0000       7.515224       204.4996 
 630   0.0000       7.633083       207.7068 
 631   0.0000       7.833228       213.1530 
 632   0.0000       7.906113       215.1363 
 633   0.0000       8.225508       223.8275 
 634   0.0000       8.603320       234.1082 
 635   0.0000      15.991123       435.1406 
 636   0.0000      16.411854       446.5892 
 637   0.0000      16.472639       448.2433 
 638   0.0000      17.901785       487.1323 
 639   0.0000      18.622920       506.7554 
 640   0.0000      18.987598       516.6788 
 641   0.0000      19.715236       536.4788 
 642   0.0000      20.090218       546.6826 
 643   0.0000      20.696115       563.1699 

                    ********************************
                    * MULLIKEN POPULATION ANALYSIS *
                    ********************************

-----------------------
MULLIKEN ATOMIC CHARGES
-----------------------
   0 C :   -0.171435
   1 C :   -0.595604
   2 C :   -0.646622
   3 C :   -0.982744
   4 C :   -0.945476
   5 C :    1.515356
   6 C :   -0.303492
   7 C :   -0.130384
   8 O :   -0.640676
   9 H :    0.386985
  10 H :    0.536912
  11 H :    0.535603
  12 H :    0.114327
  13 H :    0.103592
  14 H :    0.260053
  15 H :    0.200315
  16 H :    0.326863
  17 H :    0.269820
  18 H :    0.166608
Sum of atomic charges:   -0.0000000

--------------------------------
MULLIKEN REDUCED ORBITAL CHARGES
--------------------------------
  0 C s       :     3.260197  s :     3.260197
      pz      :     0.984145  p :     2.995674
      px      :     1.055719
      py      :     0.955810
      dz2     :    -0.010740  d :    -0.075768
      dxz     :    -0.014378
      dyz     :     0.036207
      dx2y2   :    -0.089393
      dxy     :     0.002536
      f0      :     0.001617  f :    -0.008668
      f+1     :     0.000232
      f-1     :    -0.000113
      f+2     :     0.001827
      f-2     :    -0.001458
      f+3     :     0.001671
      f-3     :    -0.012443
  1 C s       :     3.339502  s :     3.339502
      pz      :     0.986215  p :     3.108614
      px      :     1.078499
      py      :     1.043900
      dz2     :     0.014350  d :     0.160513
      dxz     :     0.018736
      dyz     :     0.017292
      dx2y2   :    -0.003398
      dxy     :     0.113533
      f0      :     0.001487  f :    -0.013024
      f+1     :     0.001176
      f-1     :     0.000211
      f+2     :     0.000029
      f-2     :    -0.001565
      f+3     :     0.002915
      f-3     :    -0.017278
  2 C s       :     3.405966  s :     3.405966
      pz      :     0.995737  p :     3.103191
      px      :     1.078063
      py      :     1.029391
      dz2     :     0.013207  d :     0.150419
      dxz     :     0.019014
      dyz     :     0.017855
      dx2y2   :    -0.006780
      dxy     :     0.107124
      f0      :     0.001421  f :    -0.012955
      f+1     :     0.001162
      f-1     :     0.000112
      f+2     :     0.000113
      f-2     :    -0.001507
      f+3     :     0.002968
      f-3     :    -0.017223
  3 C s       :     3.810695  s :     3.810695
      pz      :     1.039910  p :     3.118431
      px      :     0.966325
      py      :     1.112197
      dz2     :    -0.020347  d :     0.076792
      dxz     :    -0.006839
      dyz     :     0.017938
      dx2y2   :    -0.025681
      dxy     :     0.111722
      f0      :     0.001649  f :    -0.023175
      f+1     :     0.000918
      f-1     :     0.000008
      f+2     :     0.000716
      f-2     :    -0.003248
      f+3     :     0.002669
      f-3     :    -0.025887
  4 C s       :     3.785096  s :     3.785096
      pz      :     1.052147  p :     3.101026
      px      :     0.925168
      py      :     1.123711
      dz2     :    -0.020108  d :     0.083008
      dxz     :    -0.007862
      dyz     :     0.019191
      dx2y2   :    -0.018212
      dxy     :     0.110000
      f0      :     0.001660  f :    -0.023653
      f+1     :     0.000878
      f-1     :     0.000141
      f+2     :     0.000571
      f-2     :    -0.003394
      f+3     :     0.002489
      f-3     :    -0.025997
  5 C s       :     2.554724  s :     2.554724
      pz      :     0.902855  p :     2.080688
      px      :     0.615598
      py      :     0.562234
      dz2     :    -0.033202  d :    -0.072843
      dxz     :    -0.070227
      dyz     :    -0.028089
      dx2y2   :     0.046134
      dxy     :     0.012541
      f0      :    -0.001038  f :    -0.077925
      f+1     :    -0.001510
      f-1     :    -0.001296
      f+2     :     0.001221
      f-2     :    -0.008801
      f+3     :    -0.008476
      f-3     :    -0.058025
  6 C s       :     2.946346  s :     2.946346
      pz      :     1.073381  p :     3.229858
      px      :     0.865011
      py      :     1.291466
      dz2     :     0.004934  d :     0.132335
      dxz     :    -0.006878
      dyz     :     0.045029
      dx2y2   :     0.039868
      dxy     :     0.049383
      f0      :    -0.001130  f :    -0.005047
      f+1     :    -0.000226
      f-1     :    -0.000435
      f+2     :     0.001250
      f-2     :     0.000785
      f+3     :     0.001772
      f-3     :    -0.007063
  7 C s       :     3.139065  s :     3.139065
      pz      :     0.976775  p :     2.760387
      px      :     0.617092
      py      :     1.166520
      dz2     :     0.002233  d :     0.205871
      dxz     :     0.047961
      dyz     :     0.078343
      dx2y2   :     0.042289
      dxy     :     0.035045
      f0      :     0.000641  f :     0.025060
      f+1     :     0.006048
      f-1     :    -0.000898
      f+2     :     0.009985
      f-2     :     0.001339
      f+3     :     0.001904
      f-3     :     0.006040
  8 O s       :     3.905113  s :     3.905113
      pz      :     1.792363  p :     4.689039
      px      :     1.399340
      py      :     1.497335
      dz2     :     0.004772  d :     0.042652
      dxz     :     0.008771
      dyz     :     0.003378
      dx2y2   :     0.015927
      dxy     :     0.009804
      f0      :     0.000762  f :     0.003872
      f+1     :     0.000631
      f-1     :     0.000156
      f+2     :     0.000961
      f-2     :    -0.000014
      f+3     :     0.000577
      f-3     :     0.000799
  9 H s       :     0.588138  s :     0.588138
      pz      :     0.015819  p :     0.021120
      px      :     0.001585
      py      :     0.003716
      dz2     :    -0.000699  d :     0.003756
      dxz     :     0.002580
      dyz     :    -0.000229
      dx2y2   :     0.002008
      dxy     :     0.000096
 10 H s       :     0.451376  s :     0.451376
      pz      :     0.018280  p :     0.006994
      px      :     0.001194
      py      :    -0.012481
      dz2     :    -0.001219  d :     0.004719
      dxz     :     0.000452
      dyz     :     0.003138
      dx2y2   :     0.000427
      dxy     :     0.001921
 11 H s       :     0.455377  s :     0.455377
      pz      :     0.017469  p :     0.004244
      px      :    -0.001036
      py      :    -0.012190
      dz2     :    -0.001115  d :     0.004776
      dxz     :     0.000475
      dyz     :     0.003116
      dx2y2   :     0.000358
      dxy     :     0.001942
 12 H s       :     0.811598  s :     0.811598
      pz      :     0.028506  p :     0.072266
      px      :     0.008017
      py      :     0.035743
      dz2     :    -0.000581  d :     0.001808
      dxz     :     0.001056
      dyz     :     0.001521
      dx2y2   :     0.000016
      dxy     :    -0.000204
 13 H s       :     0.819919  s :     0.819919
      pz      :     0.029749  p :     0.074653
      px      :     0.004844
      py      :     0.040060
      dz2     :    -0.000767  d :     0.001835
      dxz     :     0.001127
      dyz     :     0.001599
      dx2y2   :     0.000111
      dxy     :    -0.000234
 14 H s       :     0.678414  s :     0.678414
      pz      :     0.018263  p :     0.049260
      px      :     0.013285
      py      :     0.017712
      dz2     :     0.003243  d :     0.012273
      dxz     :     0.002321
      dyz     :     0.001614
      dx2y2   :     0.002573
      dxy     :     0.002521
 15 H s       :     0.717271  s :     0.717271
      pz      :     0.024923  p :     0.070781
      px      :     0.022004
      py      :     0.023854
      dz2     :     0.003427  d :     0.011633
      dxz     :     0.002624
      dyz     :     0.000901
      dx2y2   :     0.002768
      dxy     :     0.001913
 16 H s       :     0.638697  s :     0.638697
      pz      :     0.018839  p :     0.030837
      px      :     0.004439
      py      :     0.007560
      dz2     :     0.002729  d :     0.003602
      dxz     :    -0.000555
      dyz     :     0.000595
      dx2y2   :     0.000510
      dxy     :     0.000324
 17 H s       :     0.680177  s :     0.680177
      pz      :     0.021574  p :     0.045219
      px      :     0.015767
      py      :     0.007878
      dz2     :     0.003616  d :     0.004784
      dxz     :    -0.000649
      dyz     :     0.000359
      dx2y2   :     0.001590
      dxy     :    -0.000132
 18 H s       :     0.701534  s :     0.701534
      pz      :     0.039695  p :     0.108498
      px      :     0.050649
      py      :     0.018154
      dz2     :     0.004339  d :     0.023360
      dxz     :     0.003463
      dyz     :     0.003651
      dx2y2   :     0.005355
      dxy     :     0.006553


                     *******************************
                     * LOEWDIN POPULATION ANALYSIS *
                     *******************************

----------------------
LOEWDIN ATOMIC CHARGES
----------------------
   0 C :    0.193240
   1 C :    0.198850
   2 C :    0.197760
   3 C :    0.217145
   4 C :    0.215178
   5 C :   -0.120168
   6 C :    0.269579
   7 C :    0.046363
   8 O :    0.807941
   9 H :   -0.187416
  10 H :   -0.184406
  11 H :   -0.184800
  12 H :   -0.175062
  13 H :   -0.176938
  14 H :   -0.155395
  15 H :   -0.152163
  16 H :   -0.160981
  17 H :   -0.151522
  18 H :   -0.497203

-------------------------------
LOEWDIN REDUCED ORBITAL CHARGES
-------------------------------
  0 C s       :     2.482730  s :     2.482730
      pz      :     0.607468  p :     2.278484
      px      :     0.814247
      py      :     0.856768
      dz2     :     0.068175  d :     0.708907
      dxz     :     0.053153
      dyz     :     0.132729
      dx2y2   :     0.282695
      dxy     :     0.172155
      f0      :     0.021401  f :     0.336640
      f+1     :     0.016380
      f-1     :     0.037418
      f+2     :     0.015695
      f-2     :     0.058247
      f+3     :     0.053321
      f-3     :     0.134177
  1 C s       :     2.482033  s :     2.482033
      pz      :     0.599199  p :     2.269354
      px      :     0.833226
      py      :     0.836929
      dz2     :     0.075857  d :     0.711531
      dxz     :     0.112688
      dyz     :     0.075252
      dx2y2   :     0.196421
      dxy     :     0.251313
      f0      :     0.021384  f :     0.338232
      f+1     :     0.029664
      f-1     :     0.023158
      f+2     :     0.046316
      f-2     :     0.035255
      f+3     :     0.054965
      f-3     :     0.127490
  2 C s       :     2.482109  s :     2.482109
      pz      :     0.599577  p :     2.269795
      px      :     0.833024
      py      :     0.837195
      dz2     :     0.075210  d :     0.712067
      dxz     :     0.112383
      dyz     :     0.076222
      dx2y2   :     0.196335
      dxy     :     0.251918
      f0      :     0.021530  f :     0.338269
      f+1     :     0.030110
      f-1     :     0.022673
      f+2     :     0.046276
      f-2     :     0.034819
      f+3     :     0.054933
      f-3     :     0.127928
  3 C s       :     2.470856  s :     2.470856
      pz      :     0.604601  p :     2.263411
      px      :     0.830639
      py      :     0.828171
      dz2     :     0.073844  d :     0.707902
      dxz     :     0.113883
      dyz     :     0.072941
      dx2y2   :     0.207000
      dxy     :     0.240234
      f0      :     0.021681  f :     0.340686
      f+1     :     0.030443
      f-1     :     0.022688
      f+2     :     0.047762
      f-2     :     0.034445
      f+3     :     0.058353
      f-3     :     0.125314
  4 C s       :     2.470976  s :     2.470976
      pz      :     0.606129  p :     2.264428
      px      :     0.830658
      py      :     0.827640
      dz2     :     0.074660  d :     0.708724
      dxz     :     0.114688
      dyz     :     0.072169
      dx2y2   :     0.207366
      dxy     :     0.239841
      f0      :     0.021519  f :     0.340694
      f+1     :     0.030094
      f-1     :     0.023178
      f+2     :     0.047882
      f-2     :     0.034792
      f+3     :     0.058496
      f-3     :     0.124732
  5 C s       :     2.449409  s :     2.449409
      pz      :     0.584372  p :     2.228462
      px      :     0.787911
      py      :     0.856179
      dz2     :     0.084397  d :     0.934834
      dxz     :     0.150385
      dyz     :     0.145136
      dx2y2   :     0.299363
      dxy     :     0.255553
      f0      :     0.034758  f :     0.507464
      f+1     :     0.031419
      f-1     :     0.038585
      f+2     :     0.053065
      f-2     :     0.083057
      f+3     :     0.071975
      f-3     :     0.194605
  6 C s       :     2.425620  s :     2.425620
      pz      :     0.735236  p :     2.221059
      px      :     0.728316
      py      :     0.757508
      dz2     :     0.113697  d :     0.758175
      dxz     :     0.172666
      dyz     :     0.188779
      dx2y2   :     0.157738
      dxy     :     0.125296
      f0      :     0.044463  f :     0.325566
      f+1     :     0.053311
      f-1     :     0.038028
      f+2     :     0.051247
      f-2     :     0.043674
      f+3     :     0.034636
      f-3     :     0.060207
  7 C s       :     2.434774  s :     2.434774
      pz      :     0.742444  p :     2.135759
      px      :     0.605965
      py      :     0.787350
      dz2     :     0.126879  d :     0.913937
      dxz     :     0.220081
      dyz     :     0.203197
      dx2y2   :     0.214631
      dxy     :     0.149148
      f0      :     0.067086  f :     0.469167
      f+1     :     0.078416
      f-1     :     0.038628
      f+2     :     0.087522
      f-2     :     0.041433
      f+3     :     0.057647
      f-3     :     0.098435
  8 O s       :     2.995320  s :     2.995320
      pz      :     1.379075  p :     3.878785
      px      :     1.200483
      py      :     1.299227
      dz2     :     0.015782  d :     0.254041
      dxz     :     0.070748
      dyz     :     0.028442
      dx2y2   :     0.062113
      dxy     :     0.076956
      f0      :     0.008086  f :     0.063913
      f+1     :     0.007010
      f-1     :     0.000594
      f+2     :     0.013700
      f-2     :     0.005687
      f+3     :     0.010096
      f-3     :     0.018739
  9 H s       :     0.674738  s :     0.674738
      pz      :     0.089972  p :     0.299740
      px      :     0.135525
      py      :     0.074243
      dz2     :     0.026545  d :     0.212938
      dxz     :     0.057863
      dyz     :     0.008261
      dx2y2   :     0.042344
      dxy     :     0.077924
 10 H s       :     0.673146  s :     0.673146
      pz      :     0.085218  p :     0.298247
      px      :     0.089818
      py      :     0.123210
      dz2     :     0.023224  d :     0.213013
      dxz     :     0.018817
      dyz     :     0.045994
      dx2y2   :     0.071094
      dxy     :     0.053884
 11 H s       :     0.673318  s :     0.673318
      pz      :     0.085653  p :     0.298431
      px      :     0.089895
      py      :     0.122883
      dz2     :     0.023515  d :     0.213051
      dxz     :     0.019158
      dyz     :     0.045767
      dx2y2   :     0.071100
      dxy     :     0.053511
 12 H s       :     0.659263  s :     0.659263
      pz      :     0.084900  p :     0.298660
      px      :     0.093120
      py      :     0.120640
      dz2     :     0.024163  d :     0.217140
      dxz     :     0.020961
      dyz     :     0.045883
      dx2y2   :     0.071974
      dxy     :     0.054159
 13 H s       :     0.660272  s :     0.660272
      pz      :     0.085304  p :     0.299325
      px      :     0.093133
      py      :     0.120888
      dz2     :     0.023831  d :     0.217342
      dxz     :     0.020625
      dyz     :     0.046332
      dx2y2   :     0.072039
      dxy     :     0.054515
 14 H s       :     0.624913  s :     0.624913
      pz      :     0.090996  p :     0.297642
      px      :     0.081770
      py      :     0.124876
      dz2     :     0.049924  d :     0.232840
      dxz     :     0.030162
      dyz     :     0.048760
      dx2y2   :     0.061052
      dxy     :     0.042941
 15 H s       :     0.623365  s :     0.623365
      pz      :     0.093242  p :     0.296171
      px      :     0.080477
      py      :     0.122453
      dz2     :     0.052995  d :     0.232626
      dxz     :     0.032090
      dyz     :     0.046583
      dx2y2   :     0.060331
      dxy     :     0.040628
 16 H s       :     0.645610  s :     0.645610
      pz      :     0.090784  p :     0.286641
      px      :     0.068266
      py      :     0.127591
      dz2     :     0.048860  d :     0.228731
      dxz     :     0.030837
      dyz     :     0.049646
      dx2y2   :     0.062581
      dxy     :     0.036807
 17 H s       :     0.649153  s :     0.649153
      pz      :     0.093073  p :     0.282909
      px      :     0.064447
      py      :     0.125389
      dz2     :     0.052856  d :     0.219460
      dxz     :     0.029778
      dyz     :     0.045448
      dx2y2   :     0.059410
      dxy     :     0.031968
 18 H s       :     0.588711  s :     0.588711
      pz      :     0.174359  p :     0.536850
      px      :     0.132517
      py      :     0.229974
      dz2     :     0.064482  d :     0.371642
      dxz     :     0.037296
      dyz     :     0.095407
      dx2y2   :     0.098674
      dxy     :     0.075782


                      *****************************
                      * MAYER POPULATION ANALYSIS *
                      *****************************

  NA   - Mulliken gross atomic population
  ZA   - Total nuclear charge
  QA   - Mulliken gross atomic charge
  VA   - Mayer's total valence
  BVA  - Mayer's bonded valence
  FA   - Mayer's free valence

  ATOM       NA         ZA         QA         VA         BVA        FA
  0 C      6.1714     6.0000    -0.1714     2.9448     2.9448    -0.0000
  1 C      6.5956     6.0000    -0.5956     3.1223     3.1223     0.0000
  2 C      6.6466     6.0000    -0.6466     3.1198     3.1198    -0.0000
  3 C      6.9827     6.0000    -0.9827     3.2505     3.2505    -0.0000
  4 C      6.9455     6.0000    -0.9455     3.1669     3.1669     0.0000
  5 C      4.4846     6.0000     1.5154     1.3351     1.3351     0.0000
  6 C      6.3035     6.0000    -0.3035     3.5753     3.5753     0.0000
  7 C      6.1304     6.0000    -0.1304     3.7331     3.7331    -0.0000
  8 O      8.6407     8.0000    -0.6407     1.7647     1.7647    -0.0000
  9 H      0.6130     1.0000     0.3870     0.8596     0.8596    -0.0000
 10 H      0.4631     1.0000     0.5369     0.5936     0.5936     0.0000
 11 H      0.4644     1.0000     0.5356     0.5870     0.5870    -0.0000
 12 H      0.8857     1.0000     0.1143     1.2230     1.2230    -0.0000
 13 H      0.8964     1.0000     0.1036     1.2405     1.2405     0.0000
 14 H      0.7399     1.0000     0.2601     0.9864     0.9864    -0.0000
 15 H      0.7997     1.0000     0.2003     1.0965     1.0965     0.0000
 16 H      0.6731     1.0000     0.3269     0.9528     0.9528    -0.0000
 17 H      0.7302     1.0000     0.2698     1.0241     1.0241     0.0000
 18 H      0.8334     1.0000     0.1666     1.0850     1.0850    -0.0000

  Mayer bond orders larger than 0.100000
B(  0-C ,  1-C ) :   1.1065 B(  0-C ,  2-C ) :   1.1046 B(  0-C ,  3-C ) :  -0.1592 
B(  0-C ,  4-C ) :  -0.1825 B(  0-C ,  9-H ) :   0.9257 B(  1-C ,  2-C ) :   0.1474 
B(  1-C ,  3-C ) :   1.3036 B(  1-C ,  5-C ) :   0.1051 B(  1-C ,  9-H ) :  -0.1631 
B(  1-C , 10-H ) :   0.7020 B(  2-C ,  4-C ) :   1.2820 B(  2-C ,  9-H ) :  -0.1560 
B(  2-C , 11-H ) :   0.6875 B(  3-C ,  4-C ) :  -0.1426 B(  3-C ,  5-C ) :   0.5601 
B(  3-C ,  9-H ) :   0.1087 B(  3-C , 12-H ) :   1.3977 B(  3-C , 13-H ) :   0.1490 
B(  4-C ,  5-C ) :   0.4880 B(  4-C ,  9-H ) :   0.1156 B(  4-C , 12-H ) :   0.1494 
B(  4-C , 13-H ) :   1.4303 B(  5-C ,  6-C ) :   0.5636 B(  5-C , 12-H ) :  -0.1878 
B(  5-C , 13-H ) :  -0.1837 B(  6-C ,  7-C ) :   0.8683 B(  6-C , 14-H ) :   0.9856 
B(  6-C , 15-H ) :   1.0150 B(  7-C ,  8-O ) :   0.6863 B(  7-C , 16-H ) :   0.9277 
B(  7-C , 17-H ) :   0.9740 B(  8-O , 18-H ) :   1.0023 

-------
TIMINGS
-------

Total SCF time: 0 days 0 hours 9 min 1 sec 

Total time                  ....     541.265 sec
Sum of individual times     ....     539.517 sec  ( 99.7%)

Fock matrix formation       ....     536.794 sec  ( 99.2%)
Diagonalization             ....       0.757 sec  (  0.1%)
Density matrix formation    ....       0.044 sec  (  0.0%)
Population analysis         ....       0.196 sec  (  0.0%)
Initial guess               ....       0.499 sec  (  0.1%)
Orbital Transformation      ....       0.000 sec  (  0.0%)
Orbital Orthonormalization  ....       0.000 sec  (  0.0%)
DIIS solution               ....       0.327 sec  (  0.1%)
SOSCF solution              ....       0.800 sec  (  0.1%)

Maximum memory used throughout the entire SCF-calculation: 264.3 MB


           ************************************************************
           *        Program running with 16 parallel MPI-processes    *
           *              working on a common directory               *
           ************************************************************

------------------------------------------------------------------------------
                                ORCA  MP2 
------------------------------------------------------------------------------

Freezing NCore=18 chemical core electrons

-------------
RI-MP2 ENERGY
-------------
Dimension of the basis                    ...  644
Memory devoted to MP2                     ...  256 MB   
Data format for buffers                   ... DOUBLE
Compression type for matrix containers    ... UNCOMPRESSED
Overall scaling of the MP2 energy         ...   1.000e+00
Calculating two index integrals           ... done (    0.013 sec)
Cholesky decomposition of V**-1           ... done (    0.184 sec)

-----------------
RI-TRANSFORMATION (AUX index driven)
-----------------

Dimension of the orbital-basis         ... 644
Dimension of the aux-basis             ... 1414
Transformation of internal/external MOs...    9-  32 to   33- 643
Number Format for Storage              ... Double (8 Byte)
Integral mode                          ... Direct

First Phase: integral generation and transformation of MO indices
  Aux angular momentum 0               ... done (    0.123 sec)
  Aux angular momentum 1               ... done (    0.212 sec)
  Aux angular momentum 2               ... done (    0.313 sec)
  Aux angular momentum 3               ... done (    0.291 sec)
  Aux angular momentum 4               ... done (    0.173 sec)
Closing buffer VIA ( 0.15 GB; CompressionRatio= 1.00)
  Phase 1 completed in     1.248 sec
Second Phase: sorting and transformation of aux index

IA-Transformation
Memory available                       ... 190 MB 
Max. # MO pairs treated in a batch     ... 2    
# of internal orbitals                 ... 24
# batches for internal orbitals        ... 1
Closing buffer IAV ( 0.15 GB; CompressionRatio= 1.00)
(ia|v) transformation done in     0.174 sec

  Phase 2 completed in     0.251 sec
RI-Integral transformation completed in     1.505 sec
Opening buffers                              ... done

Starting loop over batches of integrals:

Operator 0  - window                       ... (  9- 32)x( 33-643)
Operator 0  - Memory available             ...   256 MB
Operator 0  - Memory needed per MO         ...   6.6 MB
Operator 0  - Number of orbitals per batch ... 2
Operator 0  - Number of batches            ... 1

OPERATOR  0   PASS   0:  MOs     9 ...   10 +   11 ...   12 +   13 ...   14 +   15 ...   16
                            +   17 ...   18 +   19 ...   20 +   21 ...   22 +   23 ...   24
                            +   25 ...   26 +   27 ...   28 +   29 ...   30 +   31 ...   32
  Reading integrals       ... ok
Time spent in pair loops =     0.103 sec
Deleting buffer (Ka|jb)[aa] ...done

-----------------------------------------------
 RI-MP2 CORRELATION ENERGY:     -1.559537865 Eh
-----------------------------------------------


-------
TIMINGS
-------

Total time                :    3.133 sec
Integral trafo            :    1.522 sec ( 48.6%)
I/O of integrals          :    0.006 sec (  0.2%)
K(i,j) Operators          :    0.073 sec (  2.3%)
T(i,j) pair energies      :    0.014 sec (  0.4%)
V-calculation             :    0.013 sec (  0.4%)
V**(-1/2)                 :    0.184 sec (  5.9%)
Gamma(ia|P)               :    0.000 sec (  0.0%)
Gamma-Trafo               :    0.000 sec (  0.0%)
D(virtual)                :    0.000 sec (  0.0%)
D(internal)               :    0.000 sec (  0.0%)
W(virtual)                :    0.000 sec (  0.0%)
W(internal)               :    0.000 sec (  0.0%)
L(virtual)                :    0.000 sec (  0.0%)
L(internal)               :    0.000 sec (  0.0%)
G(D)                      :    0.000 sec (  0.0%)
G(Z)                      :    0.000 sec (  0.0%)
Z-Vector Solution         :    0.000 sec (  0.0%)
3-Index Derivative        :    0.000 sec (  0.0%)
2-Index Derivative        :    0.000 sec (  0.0%)
Separable Gradient        :    0.000 sec (  0.0%)


---------------------------------------
MP2 TOTAL ENERGY:     -385.323113341 Eh
---------------------------------------

Maximum memory used throughout the entire MP2-calculation: 149.6 MB

-------------------------   --------------------
FINAL SINGLE POINT ENERGY      -385.323113340765
-------------------------   --------------------


                            ***************************************
                            *     ORCA property calculations      *
                            ***************************************


  WARNING: The energy has been calculated at the MP2 level but the densities
           used in the property calculations are still SCF densities
           MP2 response densities have not been calculated 
           use %mp2 Density relaxed end
           or  %mp2 Density unrelaxed end

                                    ---------------------
                                    Active property flags
                                    ---------------------
   (+) Dipole Moment


------------------------------------------------------------------------------
                       ORCA ELECTRIC PROPERTIES CALCULATION
------------------------------------------------------------------------------

Dipole Moment Calculation                       ... on
Quadrupole Moment Calculation                   ... off
Polarizability Calculation                      ... off
GBWName                                         ... TZ_2-phenylethanol.gbw
Electron density                                ... TZ_2-phenylethanol.scfp
The origin for moment calculation is the CENTER OF MASS  = ( 0.024392, -0.010697 -0.000351)

-------------
DIPOLE MOMENT
-------------
                                X             Y             Z
Electronic contribution:      1.99894      -0.21906       0.15109
Nuclear contribution   :     -1.60983       0.70603       0.02315
                        -----------------------------------------
Total Dipole Moment    :      0.38911       0.48696       0.17424
                        -----------------------------------------
Magnitude (a.u.)       :      0.64723
Magnitude (Debye)      :      1.64512



--------------------
Rotational spectrum 
--------------------
 
Rotational constants in cm-1:     0.148796     0.028252     0.025309 
Rotational constants in MHz :  4460.778956   846.972594   758.735299 

 Dipole components along the rotational axes: 
x,y,z [a.u.] :    -0.392949     0.484653     0.172059 
x,y,z [Debye]:    -0.998796     1.231889     0.437339 

 

Timings for individual modules:

Sum of individual times         ...      568.842 sec (=   9.481 min)
GTO integral calculation        ...        6.933 sec (=   0.116 min)   1.2 %
SCF iterations                  ...      548.117 sec (=   9.135 min)  96.4 %
MP2 module                      ...       13.792 sec (=   0.230 min)   2.4 %
                             ****ORCA TERMINATED NORMALLY****
TOTAL RUN TIME: 0 days 0 hours 9 minutes 35 seconds 554 msec
