
                                 *****************
                                 * O   R   C   A *
                                 *****************

                                            #,                                       
                                            ###                                      
                                            ####                                     
                                            #####                                    
                                            ######                                   
                                           ########,                                 
                                     ,,################,,,,,                         
                               ,,#################################,,                 
                          ,,##########################################,,             
                       ,#########################################, ''#####,          
                    ,#############################################,,   '####,        
                  ,##################################################,,,,####,       
                ,###########''''           ''''###############################       
              ,#####''   ,,,,##########,,,,          '''####'''          '####       
            ,##' ,,,,###########################,,,                        '##       
           ' ,,###''''                  '''############,,,                           
         ,,##''                                '''############,,,,        ,,,,,,###''
      ,#''                                            '''#######################'''  
     '                                                          ''''####''''         
             ,#######,   #######,   ,#######,      ##                                
            ,#'     '#,  ##    ##  ,#'     '#,    #''#        ######   ,####,        
            ##       ##  ##   ,#'  ##            #'  '#       #        #'  '#        
            ##       ##  #######   ##           ,######,      #####,   #    #        
            '#,     ,#'  ##    ##  '#,     ,#' ,#      #,         ##   #,  ,#        
             '#######'   ##     ##  '#######'  #'      '#     #####' # '####'        



                  #######################################################
                  #                        -***-                        #
                  #          Department of theory and spectroscopy      #
                  #    Directorship and core code : Frank Neese         #
                  #        Max Planck Institute fuer Kohlenforschung    #
                  #                Kaiser Wilhelm Platz 1               #
                  #                 D-45470 Muelheim/Ruhr               #
                  #                      Germany                        #
                  #                                                     #
                  #                  All rights reserved                #
                  #                        -***-                        #
                  #######################################################


                         Program Version 5.0.3 -  RELEASE  -


 With contributions from (in alphabetic order):
   Daniel Aravena         : Magnetic Suceptibility
   Michael Atanasov       : Ab Initio Ligand Field Theory (pilot matlab implementation)
   Alexander A. Auer      : GIAO ZORA, VPT2 properties, NMR spectrum
   Ute Becker             : Parallelization
   Giovanni Bistoni       : ED, misc. LED, open-shell LED, HFLD
   Martin Brehm           : Molecular dynamics
   Dmytro Bykov           : SCF Hessian
   Vijay G. Chilkuri      : MRCI spin determinant printing, contributions to CSF-ICE
   Dipayan Datta          : RHF DLPNO-CCSD density
   Achintya Kumar Dutta   : EOM-CC, STEOM-CC
   Dmitry Ganyushin       : Spin-Orbit,Spin-Spin,Magnetic field MRCI
   Miquel Garcia          : C-PCM and meta-GGA Hessian, CC/C-PCM, Gaussian charge scheme
   Yang Guo               : DLPNO-NEVPT2, F12-NEVPT2, CIM, IAO-localization
   Andreas Hansen         : Spin unrestricted coupled pair/coupled cluster methods
   Benjamin Helmich-Paris : MC-RPA, TRAH-SCF, COSX integrals
   Lee Huntington         : MR-EOM, pCC
   Robert Izsak           : Overlap fitted RIJCOSX, COSX-SCS-MP3, EOM
   Marcus Kettner         : VPT2
   Christian Kollmar      : KDIIS, OOCD, Brueckner-CCSD(T), CCSD density, CASPT2, CASPT2-K
   Simone Kossmann        : Meta GGA functionals, TD-DFT gradient, OOMP2, MP2 Hessian
   Martin Krupicka        : Initial AUTO-CI
   Lucas Lang             : DCDCAS
   Marvin Lechner         : AUTO-CI (C++ implementation), FIC-MRCC
   Dagmar Lenk            : GEPOL surface, SMD
   Dimitrios Liakos       : Extrapolation schemes; Compound Job, initial MDCI parallelization
   Dimitrios Manganas     : Further ROCIS development; embedding schemes
   Dimitrios Pantazis     : SARC Basis sets
   Anastasios Papadopoulos: AUTO-CI, single reference methods and gradients
   Taras Petrenko         : DFT Hessian,TD-DFT gradient, ASA, ECA, R-Raman, ABS, FL, XAS/XES, NRVS
   Peter Pinski           : DLPNO-MP2, DLPNO-MP2 Gradient
   Christoph Reimann      : Effective Core Potentials
   Marius Retegan         : Local ZFS, SOC
   Christoph Riplinger    : Optimizer, TS searches, QM/MM, DLPNO-CCSD(T), (RO)-DLPNO pert. Triples
   Tobias Risthaus        : Range-separated hybrids, TD-DFT gradient, RPA, STAB
   Michael Roemelt        : Original ROCIS implementation
   Masaaki Saitow         : Open-shell DLPNO-CCSD energy and density
   Barbara Sandhoefer     : DKH picture change effects
   Avijit Sen             : IP-ROCIS
   Kantharuban Sivalingam : CASSCF convergence, NEVPT2, FIC-MRCI
   Bernardo de Souza      : ESD, SOC TD-DFT
   Georgi Stoychev        : AutoAux, RI-MP2 NMR, DLPNO-MP2 response
   Willem Van den Heuvel  : Paramagnetic NMR
   Boris Wezisla          : Elementary symmetry handling
   Frank Wennmohs         : Technical directorship


 We gratefully acknowledge several colleagues who have allowed us to
 interface, adapt or use parts of their codes:
   Stefan Grimme, W. Hujo, H. Kruse, P. Pracht,  : VdW corrections, initial TS optimization,
                  C. Bannwarth, S. Ehlert          DFT functionals, gCP, sTDA/sTD-DF
   Ed Valeev, F. Pavosevic, A. Kumar             : LibInt (2-el integral package), F12 methods
   Garnet Chan, S. Sharma, J. Yang, R. Olivares  : DMRG
   Ulf Ekstrom                                   : XCFun DFT Library
   Mihaly Kallay                                 : mrcc  (arbitrary order and MRCC methods)
   Jiri Pittner, Ondrej Demel                    : Mk-CCSD
   Frank Weinhold                                : gennbo (NPA and NBO analysis)
   Christopher J. Cramer and Donald G. Truhlar   : smd solvation model
   Lars Goerigk                                  : TD-DFT with DH, B97 family of functionals
   V. Asgeirsson, H. Jonsson                     : NEB implementation
   FAccTs GmbH                                   : IRC, NEB, NEB-TS, DLPNO-Multilevel, CI-OPT
                                                   MM, QMMM, 2- and 3-layer-ONIOM, Crystal-QMMM,
                                                   LR-CPCM, SF, NACMEs, symmetry and pop. for TD-DFT,
                                                   nearIR, NL-DFT gradient (VV10), updates on ESD,
                                                   ML-optimized integration grids
   S Lehtola, MJT Oliveira, MAL Marques          : LibXC Library
   Liviu Ungur et al                             : ANISO software


 Your calculation uses the libint2 library for the computation of 2-el integrals
 For citations please refer to: http://libint.valeyev.net

 Your ORCA version has been built with support for libXC version: 5.1.0
 For citations please refer to: https://tddft.org/programs/libxc/

 This ORCA versions uses:
   CBLAS   interface :  Fast vector & matrix operations
   LAPACKE interface :  Fast linear algebra routines
   SCALAPACK package :  Parallel linear algebra routines
   Shared memory     :  Shared parallel matrices
   BLAS/LAPACK       :  OpenBLAS 0.3.15  USE64BITINT DYNAMIC_ARCH NO_AFFINITY SkylakeX SINGLE_THREADED
        Core in use  :  SkylakeX
   Copyright (c) 2011-2014, The OpenBLAS Project


================================================================================

----- Orbital basis set information -----
Your calculation utilizes the basis: aug-cc-pVTZ 
    H, B-Ne : Obtained from the ccRepo (grant-hill.group.shef.ac.uk/ccrepo) Feb. 2017
              R. A. Kendall, T. H. Dunning, Jr., R. J. Harrison, J. Chem. Phys. 96, 6796 (1992)
         He : Obtained from the ccRepo (grant-hill.group.shef.ac.uk/ccrepo) Feb. 2017
              D. E. Woon, T. H. Dunning, Jr., J. Chem. Phys. 100, 2975 (1994)
  Li-Be, Na : Obtained from the ccRepo (grant-hill.group.shef.ac.uk/ccrepo) Feb. 2017
              B. P. Prascher, D. E. Woon, K. A. Peterson, T. H. Dunning, Jr., A. K. Wilson, Theor. Chem. Acc. 128, 69 (2011)
         Mg : Obtained from the Peterson Research Group Website (tyr0.chem.wsu.edu/~kipeters) Feb. 2017
              B. P. Prascher, D. E. Woon, K. A. Peterson, T. H. Dunning, Jr., A. K. Wilson, Theor. Chem. Acc. 128, 69 (2011)
      Al-Ar : Obtained from the ccRepo (grant-hill.group.shef.ac.uk/ccrepo) Feb. 2017
              D. E. Woon, T. H. Dunning, Jr., J. Chem. Phys. 98, 1358 (1993)
      Sc-Zn : Obtained from the ccRepo (grant-hill.group.shef.ac.uk/ccrepo) Feb. 2017
              N. B. Balabanov, K. A. Peterson, J. Chem. Phys. 123, 064107 (2005)
              N. B. Balabanov, K. A. Peterson, J. Chem. Phys. 125, 074110 (2006)
      Ga-Kr : Obtained from the ccRepo (grant-hill.group.shef.ac.uk/ccrepo) Feb. 2017
              A. K. Wilson, D. E. Woon, K. A. Peterson, T. H. Dunning, Jr., J. Chem. Phys. 110, 7667 (1999)
     Ag, Au : Obtained from the Peterson Research Group Website (tyr0.chem.wsu.edu/~kipeters) Feb. 2017
              K. A. Peterson, C. Puzzarini, Theor. Chem. Acc. 114, 283 (2005)

----- AuxC basis set information -----
Your calculation utilizes the auxiliary basis: aug-cc-pVTZ/C 
  H-He, B-F, Al-Ar, Ga-Kr : Obtained from the EMSL Basis Set Exchange (bse.pnl.gov) Feb. 2017
                            F. Weigend, A. Kohn, C. Hattig, J. Chem. Phys. 116, 3175 (2002)
                   Be, Mg : Obtained from the TURBOMOLE 7.0 basis set library
                            C. Haettig, Phys. Chem. Chem. Phys. 7, 59 (2005)
                       Ne : Obtained from the EMSL Basis Set Exchange (bse.pnl.gov) Feb. 2017
                            C. Haettig, Phys. Chem. Chem. Phys. 7, 59 (2005)
                            F. Weigend, A. Kohn, C. Hattig, J. Chem. Phys. 116, 3175 (2002)
                    Sc-Zn : Obtained from the EMSL Basis Set Exchange (bse.pnl.gov) Feb. 2017
                            J. G. Hill, J. A. Platts, J. Chem. Phys. 128, 044104 (2008)

================================================================================
                                        WARNINGS
                       Please study these warnings very carefully!
================================================================================


WARNING: No MP2 level density has been requested!
         To caclulate MP2 level properties use
         %mp2 Density relaxed end
         or
         %mp2 Density unrelaxed end

WARNING: Post HF methods need fully converged wavefunctions
  ===> : Setting SCFConvForced true
         You can overwrite this default with %scf ConvForced false 


INFO   : the flag for use of the SHARK integral package has been found!

================================================================================
                                       INPUT FILE
================================================================================
NAME = TZ_ethene.inp
|  1> !ri-mp2 aug-cc-pvtz aug-cc-pvtz/c tightscf
|  2> %pal nprocs 16 end
|  3> 
|  4> * xyz 0 1
|  5> C      0.000000    0.000000       0.662415
|  6> C      0.000000    0.000000      -0.662415
|  7> H      0.000000    0.920717       1.231649
|  8> H      0.000000   -0.920717       1.231649
|  9> H      0.000000   -0.920717      -1.231649
| 10> H      0.000000    0.920717      -1.231649
| 11> *
| 12> 
| 13>                          ****END OF INPUT****
================================================================================

                       ****************************
                       * Single Point Calculation *
                       ****************************

---------------------------------
CARTESIAN COORDINATES (ANGSTROEM)
---------------------------------
  C      0.000000    0.000000    0.662415
  C      0.000000    0.000000   -0.662415
  H      0.000000    0.920717    1.231649
  H      0.000000   -0.920717    1.231649
  H      0.000000   -0.920717   -1.231649
  H      0.000000    0.920717   -1.231649

----------------------------
CARTESIAN COORDINATES (A.U.)
----------------------------
  NO LB      ZA    FRAG     MASS         X           Y           Z
   0 C     6.0000    0    12.011    0.000000    0.000000    1.251783
   1 C     6.0000    0    12.011    0.000000    0.000000   -1.251783
   2 H     1.0000    0     1.008    0.000000    1.739903    2.327479
   3 H     1.0000    0     1.008    0.000000   -1.739903    2.327479
   4 H     1.0000    0     1.008    0.000000   -1.739903   -2.327479
   5 H     1.0000    0     1.008    0.000000    1.739903   -2.327479

--------------------------------
INTERNAL COORDINATES (ANGSTROEM)
--------------------------------
 C      0   0   0     0.000000000000     0.00000000     0.00000000
 C      1   0   0     1.324830000000     0.00000000     0.00000000
 H      1   2   0     1.082472697506   121.72646147     0.00000000
 H      1   2   3     1.082472697506   121.72646147   180.00000000
 H      2   1   3     1.082472697506   121.72646147   180.00000000
 H      2   1   3     1.082472697506   121.72646147     0.00000000

---------------------------
INTERNAL COORDINATES (A.U.)
---------------------------
 C      0   0   0     0.000000000000     0.00000000     0.00000000
 C      1   0   0     2.503565874003     0.00000000     0.00000000
 H      1   2   0     2.045576945733   121.72646147     0.00000000
 H      1   2   3     2.045576945733   121.72646147   180.00000000
 H      2   1   3     2.045576945733   121.72646147   180.00000000
 H      2   1   3     2.045576945733   121.72646147     0.00000000

---------------------
BASIS SET INFORMATION
---------------------
There are 2 groups of distinct atoms

 Group   1 Type C   : 19s6p3d2f contracted to 5s4p3d2f pattern {88111/3111/111/11}
 Group   2 Type H   : 6s3p2d contracted to 4s3p2d pattern {3111/111/11}

Atom   0C    basis set group =>   1
Atom   1C    basis set group =>   1
Atom   2H    basis set group =>   2
Atom   3H    basis set group =>   2
Atom   4H    basis set group =>   2
Atom   5H    basis set group =>   2
---------------------------------
AUXILIARY/C BASIS SET INFORMATION
---------------------------------
There are 2 groups of distinct atoms

 Group   1 Type C   : 9s7p6d4f2g contracted to 9s7p6d4f2g pattern {111111111/1111111/111111/1111/11}
 Group   2 Type H   : 5s4p3d2f contracted to 5s4p3d2f pattern {11111/1111/111/11}

Atom   0C    basis set group =>   1
Atom   1C    basis set group =>   1
Atom   2H    basis set group =>   2
Atom   3H    basis set group =>   2
Atom   4H    basis set group =>   2
Atom   5H    basis set group =>   2


           ************************************************************
           *        Program running with 16 parallel MPI-processes    *
           *              working on a common directory               *
           ************************************************************
------------------------------------------------------------------------------
                           ORCA GTO INTEGRAL CALCULATION
------------------------------------------------------------------------------
------------------------------------------------------------------------------
                   ___                                                        
                  /   \      - P O W E R E D   B Y -                         
                 /     \                                                     
                 |  |  |   _    _      __       _____    __    __             
                 |  |  |  | |  | |    /  \     |  _  \  |  |  /  |          
                  \  \/   | |  | |   /    \    | | | |  |  | /  /          
                 / \  \   | |__| |  /  /\  \   | |_| |  |  |/  /          
                |  |  |   |  __  | /  /__\  \  |    /   |      \           
                |  |  |   | |  | | |   __   |  |    \   |  |\   \          
                \     /   | |  | | |  |  |  |  | |\  \  |  | \   \       
                 \___/    |_|  |_| |__|  |__|  |_| \__\ |__|  \__/        
                                                                              
                      - O R C A' S   B I G   F R I E N D -                    
                                      &                                       
                       - I N T E G R A L  F E E D E R -                       
                                                                              
 v1 FN, 2020, v2 2021                                                         
------------------------------------------------------------------------------


Reading SHARK input file TZ_ethene.SHARKINP.tmp ... ok
----------------------
SHARK INTEGRAL PACKAGE
----------------------

Number of atoms                             ...      6
Number of basis functions                   ...    196
Number of shells                            ...     76
Maximum angular momentum                    ...      3
Integral batch strategy                     ... SHARK/LIBINT Hybrid
RI-J (if used) integral strategy            ... SPLIT-RIJ (Revised 2003 algorithm where possible)
Printlevel                                  ...      1
Contraction scheme used                     ... PARTIAL GENERAL contraction
Coulomb Range Separation                    ... NOT USED
Exchange Range Separation                   ... NOT USED
Finite Nucleus Model                        ... NOT USED
Auxiliary Coulomb fitting basis             ... NOT available
Auxiliary J/K fitting basis                 ... NOT available
Auxiliary Correlation fitting basis         ... AVAILABLE
   # of basis functions in Aux-C            ...    396
   # of shells in Aux-C                     ...    112
   Maximum angular momentum in Aux-C        ...      4
Auxiliary 'external' fitting basis          ... NOT available
Integral threshold                          ...     2.500000e-11
Primitive cut-off                           ...     2.500000e-12
Primitive pair pre-selection threshold      ...     2.500000e-12

Calculating pre-screening integrals         ... done (  0.0 sec) Dimension = 76
Calculating pre-screening integrals (ORCA)  ... done (  0.1 sec) Dimension = 64
Organizing shell pair data                  ... done (  0.0 sec)
Shell pair information
Total number of shell pairs                 ...      2926
Shell pairs after pre-screening             ...      2890
Total number of primitive shell pairs       ...      3934
Primitive shell pairs kept                  ...      3733
          la=0 lb=0:    705 shell pairs
          la=1 lb=0:    760 shell pairs
          la=1 lb=1:    210 shell pairs
          la=2 lb=0:    532 shell pairs
          la=2 lb=1:    280 shell pairs
          la=2 lb=2:    105 shell pairs
          la=3 lb=0:    152 shell pairs
          la=3 lb=1:     80 shell pairs
          la=3 lb=2:     56 shell pairs
          la=3 lb=3:     10 shell pairs

Calculating one electron integrals          ... done (  0.0 sec)
Calculating RI/C V-Matrix + Cholesky decomp.... done (  0.0 sec)
Calculating Nuclear repulsion               ... done (  0.0 sec) ENN=     33.491174352659 Eh

SHARK setup successfully completed in   0.3 seconds

Maximum memory used throughout the entire GTOINT-calculation: 19.5 MB


           ************************************************************
           *        Program running with 16 parallel MPI-processes    *
           *              working on a common directory               *
           ************************************************************
-------------------------------------------------------------------------------
                                 ORCA SCF
-------------------------------------------------------------------------------

------------
SCF SETTINGS
------------
Hamiltonian:
 Ab initio Hamiltonian  Method          .... Hartree-Fock(GTOs)


General Settings:
 Integral files         IntName         .... TZ_ethene
 Hartree-Fock type      HFTyp           .... RHF
 Total Charge           Charge          ....    0
 Multiplicity           Mult            ....    1
 Number of Electrons    NEL             ....   16
 Basis Dimension        Dim             ....  184
 Nuclear Repulsion      ENuc            ....     33.4911743527 Eh

Convergence Acceleration:
 DIIS                   CNVDIIS         .... on
   Start iteration      DIISMaxIt       ....    12
   Startup error        DIISStart       ....  0.200000
   # of expansion vecs  DIISMaxEq       ....     5
   Bias factor          DIISBfac        ....   1.050
   Max. coefficient     DIISMaxC        ....  10.000
 Trust-Rad. Augm. Hess. CNVTRAH         .... auto
   Auto Start mean grad. ratio tolernc. ....  1.125000
   Auto Start start iteration           ....    20
   Auto Start num. interpolation iter.  ....    10
   Max. Number of Micro iterations      ....    16
   Max. Number of Macro iterations      .... Maxiter - #DIIS iter
   Number of Davidson start vectors     ....     2
   Converg. threshold I  (grad. norm)   ....   1.000e-05
   Converg. threshold II (energy diff.) ....   1.000e-08
   Grad. Scal. Fac. for Micro threshold ....   0.100
   Minimum threshold for Micro iter.    ....   0.010
   NR start threshold (gradient norm)   ....   0.001
   Initial trust radius                 ....   0.400
   Minimum AH scaling param. (alpha)    ....   1.000
   Maximum AH scaling param. (alpha)    .... 1000.000
   Orbital update algorithm             .... Taylor
   White noise on init. David. guess    .... on
   Maximum white noise                  ....   0.010
   Quad. conv. algorithm                .... NR
 SOSCF                  CNVSOSCF        .... on
   Start iteration      SOSCFMaxIt      ....   150
   Startup grad/error   SOSCFStart      ....  0.003300
 Level Shifting         CNVShift        .... on
   Level shift para.    LevelShift      ....    0.2500
   Turn off err/grad.   ShiftErr        ....    0.0010
 Zerner damping         CNVZerner       .... off
 Static damping         CNVDamp         .... on
   Fraction old density DampFac         ....    0.7000
   Max. Damping (<1)    DampMax         ....    0.9800
   Min. Damping (>=0)   DampMin         ....    0.0000
   Turn off err/grad.   DampErr         ....    0.1000
 Fernandez-Rico         CNVRico         .... off

SCF Procedure:
 Maximum # iterations   MaxIter         ....   125
 SCF integral mode      SCFMode         .... Direct
   Integral package                     .... SHARK and LIBINT hybrid scheme
 Reset frequency        DirectResetFreq ....    20
 Integral Threshold     Thresh          ....  2.500e-11 Eh
 Primitive CutOff       TCut            ....  2.500e-12 Eh

Convergence Tolerance:
 Convergence Check Mode ConvCheckMode   .... Total+1el-Energy
 Convergence forced     ConvForced      .... 1
 Energy Change          TolE            ....  1.000e-08 Eh
 1-El. energy change                    ....  1.000e-05 Eh
 Orbital Gradient       TolG            ....  1.000e-05
 Orbital Rotation angle TolX            ....  1.000e-05
 DIIS Error             TolErr          ....  5.000e-07


Diagonalization of the overlap matrix:
Smallest eigenvalue                        ... 4.782e-06
Time for diagonalization                   ...    0.005 sec
Threshold for overlap eigenvalues          ... 1.000e-08
Number of eigenvalues below threshold      ... 0
Time for construction of square roots      ...    0.006 sec
Total time needed                          ...    0.040 sec

Time for model grid setup =    0.025 sec

------------------------------
INITIAL GUESS: MODEL POTENTIAL
------------------------------
Loading Hartree-Fock densities                     ... done
Calculating cut-offs                               ... done
Initializing the effective Hamiltonian             ... done
Setting up the integral package (SHARK)            ... done
Starting the Coulomb interaction                   ... done (   0.0 sec)
Reading the grid                                   ... done
Mapping shells                                     ... done
Starting the XC term evaluation                    ... done (   0.0 sec)
Transforming the Hamiltonian                       ... done (   0.0 sec)
Diagonalizing the Hamiltonian                      ... done (   0.0 sec)
Back transforming the eigenvectors                 ... done (   0.0 sec)
Now organizing SCF variables                       ... done
                      ------------------
                      INITIAL GUESS DONE (   0.1 sec)
                      ------------------
--------------
SCF ITERATIONS
--------------
ITER       Energy         Delta-E        Max-DP      RMS-DP      [F,P]     Damp
               ***  Starting incremental Fock matrix formation  ***
  0    -77.9298579616   0.000000000000 0.02712756  0.00076338  0.2330797 0.7000
  1    -77.9772175104  -0.047359548834 0.02337262  0.00060068  0.1539124 0.7000
                               ***Turning on DIIS***
  2    -78.0062969833  -0.029079472835 0.05986596  0.00147173  0.0936087 0.0000
  3    -77.8624135863   0.143883396921 0.01315408  0.00039062  0.0312182 0.0000
  4    -78.0393319627  -0.176918376340 0.00716613  0.00020672  0.0049543 0.0000
                      *** Initiating the SOSCF procedure ***
                           *** Shutting down DIIS ***
                      *** Re-Reading the Fockian *** 
                      *** Removing any level shift *** 
ITER      Energy       Delta-E        Grad      Rot      Max-DP    RMS-DP
  5    -78.05923493  -0.0199029624  0.001132  0.001132  0.002143  0.000060
               *** Restarting incremental Fock matrix formation ***
  6    -78.06492474  -0.0056898142  0.000316  0.000355  0.000261  0.000009
  7    -78.06492626  -0.0000015233  0.000101  0.000145  0.000115  0.000004
  8    -78.06492644  -0.0000001787  0.000024  0.000020  0.000022  0.000001
                  ***Gradient check signals convergence***
              ***Rediagonalizing the Fockian in SOSCF/NRSCF***

               *****************************************************
               *                     SUCCESS                       *
               *           SCF CONVERGED AFTER   9 CYCLES          *
               *****************************************************


----------------
TOTAL SCF ENERGY
----------------

Total Energy       :          -78.06492645 Eh           -2124.25464 eV

Components:
Nuclear Repulsion  :           33.49117435 Eh             911.34119 eV
Electronic Energy  :         -111.55610080 Eh           -3035.59583 eV
One Electron Energy:         -170.29640190 Eh           -4634.00068 eV
Two Electron Energy:           58.74030110 Eh            1598.40485 eV

Virial components:
Potential Energy   :         -156.01489132 Eh           -4245.38102 eV
Kinetic Energy     :           77.94996487 Eh            2121.12638 eV
Virial Ratio       :            2.00147481


---------------
SCF CONVERGENCE
---------------

  Last Energy change         ...   -6.8450e-09  Tolerance :   1.0000e-08
  Last MAX-Density change    ...    6.2031e-06  Tolerance :   1.0000e-07
  Last RMS-Density change    ...    1.0971e-07  Tolerance :   5.0000e-09
  Last Orbital Gradient      ...    2.3393e-06  Tolerance :   1.0000e-05
  Last Orbital Rotation      ...    3.3840e-06  Tolerance :   1.0000e-05

             **** THE GBW FILE WAS UPDATED (TZ_ethene.gbw) ****
             **** DENSITY TZ_ethene.scfp WAS UPDATED ****
             **** ENERGY FILE WAS UPDATED (TZ_ethene.en.tmp) ****
             **** THE GBW FILE WAS UPDATED (TZ_ethene.gbw) ****
             **** DENSITY TZ_ethene.scfp WAS UPDATED ****
----------------
ORBITAL ENERGIES
----------------

  NO   OCC          E(Eh)            E(eV) 
   0   2.0000     -11.230505      -305.5976 
   1   2.0000     -11.228714      -305.5488 
   2   2.0000      -1.036460       -28.2035 
   3   2.0000      -0.792873       -21.5752 
   4   2.0000      -0.643774       -17.5180 
   5   2.0000      -0.590595       -16.0709 
   6   2.0000      -0.505848       -13.7648 
   7   2.0000      -0.379106       -10.3160 
   8   0.0000       0.032474         0.8837 
   9   0.0000       0.040563         1.1038 
  10   0.0000       0.042401         1.1538 
  11   0.0000       0.060336         1.6418 
  12   0.0000       0.092333         2.5125 
  13   0.0000       0.096486         2.6255 
  14   0.0000       0.104964         2.8562 
  15   0.0000       0.120080         3.2676 
  16   0.0000       0.145930         3.9710 
  17   0.0000       0.146995         3.9999 
  18   0.0000       0.174164         4.7392 
  19   0.0000       0.175717         4.7815 
  20   0.0000       0.186366         5.0713 
  21   0.0000       0.199627         5.4321 
  22   0.0000       0.240151         6.5348 
  23   0.0000       0.241548         6.5729 
  24   0.0000       0.269399         7.3307 
  25   0.0000       0.292461         7.9583 
  26   0.0000       0.300353         8.1730 
  27   0.0000       0.314148         8.5484 
  28   0.0000       0.318933         8.6786 
  29   0.0000       0.336231         9.1493 
  30   0.0000       0.360258         9.8031 
  31   0.0000       0.372757        10.1432 
  32   0.0000       0.389650        10.6029 
  33   0.0000       0.399931        10.8827 
  34   0.0000       0.401392        10.9224 
  35   0.0000       0.402406        10.9500 
  36   0.0000       0.410721        11.1763 
  37   0.0000       0.439367        11.9558 
  38   0.0000       0.445870        12.1328 
  39   0.0000       0.450201        12.2506 
  40   0.0000       0.451555        12.2874 
  41   0.0000       0.451619        12.2892 
  42   0.0000       0.451726        12.2921 
  43   0.0000       0.501156        13.6371 
  44   0.0000       0.531193        14.4545 
  45   0.0000       0.594454        16.1759 
  46   0.0000       0.599413        16.3108 
  47   0.0000       0.617921        16.8145 
  48   0.0000       0.654645        17.8138 
  49   0.0000       0.699707        19.0400 
  50   0.0000       0.756484        20.5850 
  51   0.0000       0.792261        21.5585 
  52   0.0000       0.801226        21.8025 
  53   0.0000       0.822695        22.3867 
  54   0.0000       0.825809        22.4714 
  55   0.0000       0.862173        23.4609 
  56   0.0000       0.891722        24.2650 
  57   0.0000       0.902991        24.5716 
  58   0.0000       0.910728        24.7822 
  59   0.0000       0.927203        25.2305 
  60   0.0000       0.929541        25.2941 
  61   0.0000       0.934287        25.4232 
  62   0.0000       0.938784        25.5456 
  63   0.0000       0.939238        25.5580 
  64   0.0000       0.960820        26.1452 
  65   0.0000       0.966019        26.2867 
  66   0.0000       1.008214        27.4349 
  67   0.0000       1.011680        27.5292 
  68   0.0000       1.024664        27.8825 
  69   0.0000       1.054238        28.6873 
  70   0.0000       1.071061        29.1450 
  71   0.0000       1.071690        29.1622 
  72   0.0000       1.092978        29.7415 
  73   0.0000       1.093028        29.7428 
  74   0.0000       1.101522        29.9739 
  75   0.0000       1.118867        30.4459 
  76   0.0000       1.130549        30.7638 
  77   0.0000       1.140130        31.0245 
  78   0.0000       1.155709        31.4484 
  79   0.0000       1.173980        31.9456 
  80   0.0000       1.272700        34.6319 
  81   0.0000       1.297451        35.3054 
  82   0.0000       1.315197        35.7883 
  83   0.0000       1.358492        36.9664 
  84   0.0000       1.400652        38.1137 
  85   0.0000       1.456824        39.6422 
  86   0.0000       1.474070        40.1115 
  87   0.0000       1.491213        40.5780 
  88   0.0000       1.574768        42.8516 
  89   0.0000       1.598322        43.4926 
  90   0.0000       1.609042        43.7843 
  91   0.0000       1.622923        44.1620 
  92   0.0000       1.670131        45.4466 
  93   0.0000       1.693117        46.0721 
  94   0.0000       1.730137        47.0794 
  95   0.0000       1.764123        48.0042 
  96   0.0000       1.778090        48.3843 
  97   0.0000       1.786005        48.5997 
  98   0.0000       1.817096        49.4457 
  99   0.0000       1.822033        49.5800 
 100   0.0000       1.853019        50.4232 
 101   0.0000       1.932986        52.5992 
 102   0.0000       1.964032        53.4440 
 103   0.0000       2.040605        55.5277 
 104   0.0000       2.066646        56.2363 
 105   0.0000       2.074156        56.4406 
 106   0.0000       2.098813        57.1116 
 107   0.0000       2.115732        57.5720 
 108   0.0000       2.119129        57.6644 
 109   0.0000       2.219514        60.3960 
 110   0.0000       2.258269        61.4506 
 111   0.0000       2.304212        62.7008 
 112   0.0000       2.342450        63.7413 
 113   0.0000       2.432548        66.1930 
 114   0.0000       2.550835        69.4118 
 115   0.0000       2.639941        71.8364 
 116   0.0000       2.870196        78.1020 
 117   0.0000       3.012587        81.9767 
 118   0.0000       3.028534        82.4106 
 119   0.0000       3.241920        88.2171 
 120   0.0000       3.245401        88.3118 
 121   0.0000       3.264162        88.8224 
 122   0.0000       3.283587        89.3510 
 123   0.0000       3.290103        89.5282 
 124   0.0000       3.330560        90.6291 
 125   0.0000       3.427744        93.2737 
 126   0.0000       3.456959        94.0686 
 127   0.0000       3.474563        94.5477 
 128   0.0000       3.486698        94.8779 
 129   0.0000       3.569352        97.1270 
 130   0.0000       3.605945        98.1228 
 131   0.0000       3.616385        98.4068 
 132   0.0000       3.703885       100.7878 
 133   0.0000       3.715734       101.1103 
 134   0.0000       3.729432       101.4830 
 135   0.0000       3.753108       102.1273 
 136   0.0000       3.787942       103.0751 
 137   0.0000       3.841203       104.5244 
 138   0.0000       3.852354       104.8279 
 139   0.0000       3.881899       105.6318 
 140   0.0000       3.978512       108.2608 
 141   0.0000       4.012613       109.1888 
 142   0.0000       4.095445       111.4427 
 143   0.0000       4.097582       111.5009 
 144   0.0000       4.111968       111.8923 
 145   0.0000       4.161168       113.2311 
 146   0.0000       4.240106       115.3791 
 147   0.0000       4.289026       116.7103 
 148   0.0000       4.336386       117.9991 
 149   0.0000       4.383753       119.2880 
 150   0.0000       4.385890       119.3461 
 151   0.0000       4.514137       122.8359 
 152   0.0000       4.562706       124.1575 
 153   0.0000       4.586215       124.7973 
 154   0.0000       4.590551       124.9152 
 155   0.0000       4.696676       127.8030 
 156   0.0000       4.702210       127.9537 
 157   0.0000       4.834959       131.5659 
 158   0.0000       4.907355       133.5359 
 159   0.0000       4.937805       134.3645 
 160   0.0000       4.965854       135.1278 
 161   0.0000       4.966801       135.1535 
 162   0.0000       4.967566       135.1743 
 163   0.0000       5.058178       137.6400 
 164   0.0000       5.163206       140.4980 
 165   0.0000       5.265302       143.2761 
 166   0.0000       5.268183       143.3545 
 167   0.0000       5.294449       144.0693 
 168   0.0000       5.294687       144.0757 
 169   0.0000       5.335867       145.1963 
 170   0.0000       5.496427       149.5654 
 171   0.0000       5.581736       151.8868 
 172   0.0000       5.590074       152.1136 
 173   0.0000       5.606924       152.5722 
 174   0.0000       5.629258       153.1799 
 175   0.0000       5.991429       163.0351 
 176   0.0000       6.093657       165.8168 
 177   0.0000       6.452180       175.5727 
 178   0.0000       6.577845       178.9923 
 179   0.0000       6.681439       181.8112 
 180   0.0000       6.737204       183.3286 
 181   0.0000       6.992224       190.2681 
 182   0.0000      16.838095       458.1879 
 183   0.0000      17.358046       472.3365 

                    ********************************
                    * MULLIKEN POPULATION ANALYSIS *
                    ********************************

-----------------------
MULLIKEN ATOMIC CHARGES
-----------------------
   0 C :   -0.898121
   1 C :   -0.898121
   2 H :    0.449060
   3 H :    0.449060
   4 H :    0.449060
   5 H :    0.449060
Sum of atomic charges:   -0.0000000

--------------------------------
MULLIKEN REDUCED ORBITAL CHARGES
--------------------------------
  0 C s       :     3.536835  s :     3.536835
      pz      :     1.020954  p :     3.236815
      px      :     0.928879
      py      :     1.286981
      dz2     :    -0.002506  d :     0.110706
      dxz     :     0.025865
      dyz     :     0.068284
      dx2y2   :     0.019062
      dxy     :     0.000000
      f0      :     0.000430  f :     0.013765
      f+1     :     0.001672
      f-1     :     0.004851
      f+2     :     0.004549
      f-2     :     0.000000
      f+3     :     0.000055
      f-3     :     0.002209
  1 C s       :     3.536835  s :     3.536835
      pz      :     1.020954  p :     3.236815
      px      :     0.928879
      py      :     1.286981
      dz2     :    -0.002506  d :     0.110706
      dxz     :     0.025865
      dyz     :     0.068284
      dx2y2   :     0.019062
      dxy     :    -0.000000
      f0      :     0.000430  f :     0.013765
      f+1     :     0.001672
      f-1     :     0.004851
      f+2     :     0.004549
      f-2     :     0.000000
      f+3     :     0.000055
      f-3     :     0.002209
  2 H s       :     0.506759  s :     0.506759
      pz      :     0.008199  p :     0.041012
      px      :     0.018590
      py      :     0.014222
      dz2     :     0.000552  d :     0.003169
      dxz     :     0.000940
      dyz     :    -0.002063
      dx2y2   :     0.001505
      dxy     :     0.002234
  3 H s       :     0.506759  s :     0.506759
      pz      :     0.008199  p :     0.041012
      px      :     0.018590
      py      :     0.014222
      dz2     :     0.000552  d :     0.003169
      dxz     :     0.000940
      dyz     :    -0.002063
      dx2y2   :     0.001505
      dxy     :     0.002234
  4 H s       :     0.506759  s :     0.506759
      pz      :     0.008199  p :     0.041012
      px      :     0.018590
      py      :     0.014222
      dz2     :     0.000552  d :     0.003169
      dxz     :     0.000940
      dyz     :    -0.002063
      dx2y2   :     0.001505
      dxy     :     0.002234
  5 H s       :     0.506759  s :     0.506759
      pz      :     0.008199  p :     0.041012
      px      :     0.018590
      py      :     0.014222
      dz2     :     0.000552  d :     0.003169
      dxz     :     0.000940
      dyz     :    -0.002063
      dx2y2   :     0.001505
      dxy     :     0.002234


                     *******************************
                     * LOEWDIN POPULATION ANALYSIS *
                     *******************************

----------------------
LOEWDIN ATOMIC CHARGES
----------------------
   0 C :    0.471959
   1 C :    0.471959
   2 H :   -0.235980
   3 H :   -0.235980
   4 H :   -0.235980
   5 H :   -0.235980

-------------------------------
LOEWDIN REDUCED ORBITAL CHARGES
-------------------------------
  0 C s       :     2.545776  s :     2.545776
      pz      :     0.896748  p :     2.334559
      px      :     0.607439
      py      :     0.830372
      dz2     :     0.130705  d :     0.478946
      dxz     :     0.064517
      dyz     :     0.250796
      dx2y2   :     0.032928
      dxy     :    -0.000000
      f0      :     0.041761  f :     0.168761
      f+1     :     0.027923
      f-1     :     0.077509
      f+2     :     0.013764
      f-2     :     0.000000
      f+3     :     0.000231
      f-3     :     0.007573
  1 C s       :     2.545776  s :     2.545776
      pz      :     0.896748  p :     2.334559
      px      :     0.607439
      py      :     0.830372
      dz2     :     0.130705  d :     0.478946
      dxz     :     0.064517
      dyz     :     0.250796
      dx2y2   :     0.032928
      dxy     :     0.000000
      f0      :     0.041761  f :     0.168761
      f+1     :     0.027923
      f-1     :     0.077509
      f+2     :     0.013764
      f-2     :     0.000000
      f+3     :     0.000231
      f-3     :     0.007573
  2 H s       :     0.697739  s :     0.697739
      pz      :     0.092819  p :     0.325067
      px      :     0.089787
      py      :     0.142461
      dz2     :     0.051802  d :     0.213173
      dxz     :     0.027428
      dyz     :     0.051509
      dx2y2   :     0.049705
      dxy     :     0.032730
  3 H s       :     0.697739  s :     0.697739
      pz      :     0.092819  p :     0.325067
      px      :     0.089787
      py      :     0.142461
      dz2     :     0.051802  d :     0.213173
      dxz     :     0.027428
      dyz     :     0.051509
      dx2y2   :     0.049705
      dxy     :     0.032730
  4 H s       :     0.697739  s :     0.697739
      pz      :     0.092819  p :     0.325067
      px      :     0.089787
      py      :     0.142461
      dz2     :     0.051802  d :     0.213173
      dxz     :     0.027428
      dyz     :     0.051509
      dx2y2   :     0.049705
      dxy     :     0.032730
  5 H s       :     0.697739  s :     0.697739
      pz      :     0.092819  p :     0.325067
      px      :     0.089787
      py      :     0.142461
      dz2     :     0.051802  d :     0.213173
      dxz     :     0.027428
      dyz     :     0.051509
      dx2y2   :     0.049705
      dxy     :     0.032730


                      *****************************
                      * MAYER POPULATION ANALYSIS *
                      *****************************

  NA   - Mulliken gross atomic population
  ZA   - Total nuclear charge
  QA   - Mulliken gross atomic charge
  VA   - Mayer's total valence
  BVA  - Mayer's bonded valence
  FA   - Mayer's free valence

  ATOM       NA         ZA         QA         VA         BVA        FA
  0 C      6.8981     6.0000    -0.8981     3.3128     3.3128     0.0000
  1 C      6.8981     6.0000    -0.8981     3.3128     3.3128    -0.0000
  2 H      0.5509     1.0000     0.4491     0.8434     0.8434     0.0000
  3 H      0.5509     1.0000     0.4491     0.8434     0.8434    -0.0000
  4 H      0.5509     1.0000     0.4491     0.8434     0.8434    -0.0000
  5 H      0.5509     1.0000     0.4491     0.8434     0.8434    -0.0000

  Mayer bond orders larger than 0.100000
B(  0-C ,  1-C ) :   1.7416 B(  0-C ,  2-H ) :   0.7786 B(  0-C ,  3-H ) :   0.7786 
B(  1-C ,  4-H ) :   0.7786 B(  1-C ,  5-H ) :   0.7786 

-------
TIMINGS
-------

Total SCF time: 0 days 0 hours 0 min 5 sec 

Total time                  ....       5.101 sec
Sum of individual times     ....       4.734 sec  ( 92.8%)

Fock matrix formation       ....       4.465 sec  ( 87.5%)
Diagonalization             ....       0.071 sec  (  1.4%)
Density matrix formation    ....       0.003 sec  (  0.1%)
Population analysis         ....       0.037 sec  (  0.7%)
Initial guess               ....       0.043 sec  (  0.9%)
Orbital Transformation      ....       0.000 sec  (  0.0%)
Orbital Orthonormalization  ....       0.000 sec  (  0.0%)
DIIS solution               ....       0.060 sec  (  1.2%)
SOSCF solution              ....       0.029 sec  (  0.6%)

Maximum memory used throughout the entire SCF-calculation: 229.7 MB


           ************************************************************
           *        Program running with 16 parallel MPI-processes    *
           *              working on a common directory               *
           ************************************************************

------------------------------------------------------------------------------
                                ORCA  MP2 
------------------------------------------------------------------------------

Freezing NCore=4 chemical core electrons

-------------
RI-MP2 ENERGY
-------------
Dimension of the basis                    ...  184
Memory devoted to MP2                     ...  256 MB   
Data format for buffers                   ... DOUBLE
Compression type for matrix containers    ... UNCOMPRESSED
Overall scaling of the MP2 energy         ...   1.000e+00
Calculating two index integrals           ... done (    0.001 sec)
Cholesky decomposition of V**-1           ... done (    0.015 sec)

-----------------
RI-TRANSFORMATION (AUX index driven)
-----------------

Dimension of the orbital-basis         ... 184
Dimension of the aux-basis             ... 396
Transformation of internal/external MOs...    2-   7 to    8- 183
Number Format for Storage              ... Double (8 Byte)
Integral mode                          ... Direct

First Phase: integral generation and transformation of MO indices
  Aux angular momentum 0               ... done (    0.004 sec)
  Aux angular momentum 1               ... done (    0.004 sec)
  Aux angular momentum 2               ... done (    0.006 sec)
  Aux angular momentum 3               ... done (    0.004 sec)
  Aux angular momentum 4               ... done (    0.006 sec)
Closing buffer VIA ( 0.00 GB; CompressionRatio= 1.00)
  Phase 1 completed in     0.121 sec
Second Phase: sorting and transformation of aux index

IA-Transformation
Memory available                       ... 214 MB 
Max. # MO pairs treated in a batch     ... 1    
# of internal orbitals                 ... 6
# batches for internal orbitals        ... 1
Closing buffer IAV ( 0.00 GB; CompressionRatio= 1.00)
(ia|v) transformation done in     0.013 sec

  Phase 2 completed in     0.041 sec
RI-Integral transformation completed in     0.168 sec
Opening buffers                              ... done

Starting loop over batches of integrals:

Operator 0  - window                       ... (  2-  7)x(  8-183)
Operator 0  - Memory available             ...   256 MB
Operator 0  - Memory needed per MO         ...   0.5 MB
Operator 0  - Number of orbitals per batch ... 1
Operator 0  - Number of batches            ... 1

OPERATOR  0   PASS   0:  MOs     2 ...    2 +    3 ...    3 +    4 ...    4 +    5 ...    5
                            +    6 ...    6 +    7 ...    7
  Reading integrals       ... ok
Time spent in pair loops =     0.004 sec
Deleting buffer (Ka|jb)[aa] ...done

-----------------------------------------------
 RI-MP2 CORRELATION ENERGY:     -0.339461424 Eh
-----------------------------------------------


-------
TIMINGS
-------

Total time                :    0.208 sec
Integral trafo            :    0.175 sec ( 84.1%)
I/O of integrals          :    0.000 sec (  0.1%)
K(i,j) Operators          :    0.001 sec (  0.3%)
T(i,j) pair energies      :    0.000 sec (  0.1%)
V-calculation             :    0.001 sec (  0.5%)
V**(-1/2)                 :    0.015 sec (  7.2%)
Gamma(ia|P)               :    0.000 sec (  0.0%)
Gamma-Trafo               :    0.000 sec (  0.0%)
D(virtual)                :    0.000 sec (  0.0%)
D(internal)               :    0.000 sec (  0.0%)
W(virtual)                :    0.000 sec (  0.0%)
W(internal)               :    0.000 sec (  0.0%)
L(virtual)                :    0.000 sec (  0.0%)
L(internal)               :    0.000 sec (  0.0%)
G(D)                      :    0.000 sec (  0.0%)
G(Z)                      :    0.000 sec (  0.0%)
Z-Vector Solution         :    0.000 sec (  0.0%)
3-Index Derivative        :    0.000 sec (  0.0%)
2-Index Derivative        :    0.000 sec (  0.0%)
Separable Gradient        :    0.000 sec (  0.0%)


---------------------------------------
MP2 TOTAL ENERGY:      -78.404387872 Eh
---------------------------------------

Maximum memory used throughout the entire MP2-calculation: 84.2 MB

-------------------------   --------------------
FINAL SINGLE POINT ENERGY       -78.404387871693
-------------------------   --------------------


                            ***************************************
                            *     ORCA property calculations      *
                            ***************************************


  WARNING: The energy has been calculated at the MP2 level but the densities
           used in the property calculations are still SCF densities
           MP2 response densities have not been calculated 
           use %mp2 Density relaxed end
           or  %mp2 Density unrelaxed end

                                    ---------------------
                                    Active property flags
                                    ---------------------
   (+) Dipole Moment


------------------------------------------------------------------------------
                       ORCA ELECTRIC PROPERTIES CALCULATION
------------------------------------------------------------------------------

Dipole Moment Calculation                       ... on
Quadrupole Moment Calculation                   ... off
Polarizability Calculation                      ... off
GBWName                                         ... TZ_ethene.gbw
Electron density                                ... TZ_ethene.scfp
The origin for moment calculation is the CENTER OF MASS  = ( 0.000000,  0.000000  0.000000)

-------------
DIPOLE MOMENT
-------------
                                X             Y             Z
Electronic contribution:      0.00000       0.00000      -0.00000
Nuclear contribution   :      0.00000       0.00000       0.00000
                        -----------------------------------------
Total Dipole Moment    :      0.00000       0.00000      -0.00000
                        -----------------------------------------
Magnitude (a.u.)       :      0.00000
Magnitude (Debye)      :      0.00000



--------------------
Rotational spectrum 
--------------------
 
Rotational constants in cm-1:     4.932011     1.012041     0.839730 
Rotational constants in MHz : 147857.975870 30340.219809 25174.460781 

 Dipole components along the rotational axes: 
x,y,z [a.u.] :    -0.000000     0.000000     0.000000 
x,y,z [Debye]:    -0.000000     0.000000     0.000000 

 

Timings for individual modules:

Sum of individual times         ...       22.741 sec (=   0.379 min)
GTO integral calculation        ...        7.233 sec (=   0.121 min)  31.8 %
SCF iterations                  ...       11.719 sec (=   0.195 min)  51.5 %
MP2 module                      ...        3.789 sec (=   0.063 min)  16.7 %
                             ****ORCA TERMINATED NORMALLY****
TOTAL RUN TIME: 0 days 0 hours 0 minutes 26 seconds 693 msec
