
                                 *****************
                                 * O   R   C   A *
                                 *****************

                                            #,                                       
                                            ###                                      
                                            ####                                     
                                            #####                                    
                                            ######                                   
                                           ########,                                 
                                     ,,################,,,,,                         
                               ,,#################################,,                 
                          ,,##########################################,,             
                       ,#########################################, ''#####,          
                    ,#############################################,,   '####,        
                  ,##################################################,,,,####,       
                ,###########''''           ''''###############################       
              ,#####''   ,,,,##########,,,,          '''####'''          '####       
            ,##' ,,,,###########################,,,                        '##       
           ' ,,###''''                  '''############,,,                           
         ,,##''                                '''############,,,,        ,,,,,,###''
      ,#''                                            '''#######################'''  
     '                                                          ''''####''''         
             ,#######,   #######,   ,#######,      ##                                
            ,#'     '#,  ##    ##  ,#'     '#,    #''#        ######   ,####,        
            ##       ##  ##   ,#'  ##            #'  '#       #        #'  '#        
            ##       ##  #######   ##           ,######,      #####,   #    #        
            '#,     ,#'  ##    ##  '#,     ,#' ,#      #,         ##   #,  ,#        
             '#######'   ##     ##  '#######'  #'      '#     #####' # '####'        



                  #######################################################
                  #                        -***-                        #
                  #          Department of theory and spectroscopy      #
                  #    Directorship and core code : Frank Neese         #
                  #        Max Planck Institute fuer Kohlenforschung    #
                  #                Kaiser Wilhelm Platz 1               #
                  #                 D-45470 Muelheim/Ruhr               #
                  #                      Germany                        #
                  #                                                     #
                  #                  All rights reserved                #
                  #                        -***-                        #
                  #######################################################


                         Program Version 5.0.3 -  RELEASE  -


 With contributions from (in alphabetic order):
   Daniel Aravena         : Magnetic Suceptibility
   Michael Atanasov       : Ab Initio Ligand Field Theory (pilot matlab implementation)
   Alexander A. Auer      : GIAO ZORA, VPT2 properties, NMR spectrum
   Ute Becker             : Parallelization
   Giovanni Bistoni       : ED, misc. LED, open-shell LED, HFLD
   Martin Brehm           : Molecular dynamics
   Dmytro Bykov           : SCF Hessian
   Vijay G. Chilkuri      : MRCI spin determinant printing, contributions to CSF-ICE
   Dipayan Datta          : RHF DLPNO-CCSD density
   Achintya Kumar Dutta   : EOM-CC, STEOM-CC
   Dmitry Ganyushin       : Spin-Orbit,Spin-Spin,Magnetic field MRCI
   Miquel Garcia          : C-PCM and meta-GGA Hessian, CC/C-PCM, Gaussian charge scheme
   Yang Guo               : DLPNO-NEVPT2, F12-NEVPT2, CIM, IAO-localization
   Andreas Hansen         : Spin unrestricted coupled pair/coupled cluster methods
   Benjamin Helmich-Paris : MC-RPA, TRAH-SCF, COSX integrals
   Lee Huntington         : MR-EOM, pCC
   Robert Izsak           : Overlap fitted RIJCOSX, COSX-SCS-MP3, EOM
   Marcus Kettner         : VPT2
   Christian Kollmar      : KDIIS, OOCD, Brueckner-CCSD(T), CCSD density, CASPT2, CASPT2-K
   Simone Kossmann        : Meta GGA functionals, TD-DFT gradient, OOMP2, MP2 Hessian
   Martin Krupicka        : Initial AUTO-CI
   Lucas Lang             : DCDCAS
   Marvin Lechner         : AUTO-CI (C++ implementation), FIC-MRCC
   Dagmar Lenk            : GEPOL surface, SMD
   Dimitrios Liakos       : Extrapolation schemes; Compound Job, initial MDCI parallelization
   Dimitrios Manganas     : Further ROCIS development; embedding schemes
   Dimitrios Pantazis     : SARC Basis sets
   Anastasios Papadopoulos: AUTO-CI, single reference methods and gradients
   Taras Petrenko         : DFT Hessian,TD-DFT gradient, ASA, ECA, R-Raman, ABS, FL, XAS/XES, NRVS
   Peter Pinski           : DLPNO-MP2, DLPNO-MP2 Gradient
   Christoph Reimann      : Effective Core Potentials
   Marius Retegan         : Local ZFS, SOC
   Christoph Riplinger    : Optimizer, TS searches, QM/MM, DLPNO-CCSD(T), (RO)-DLPNO pert. Triples
   Tobias Risthaus        : Range-separated hybrids, TD-DFT gradient, RPA, STAB
   Michael Roemelt        : Original ROCIS implementation
   Masaaki Saitow         : Open-shell DLPNO-CCSD energy and density
   Barbara Sandhoefer     : DKH picture change effects
   Avijit Sen             : IP-ROCIS
   Kantharuban Sivalingam : CASSCF convergence, NEVPT2, FIC-MRCI
   Bernardo de Souza      : ESD, SOC TD-DFT
   Georgi Stoychev        : AutoAux, RI-MP2 NMR, DLPNO-MP2 response
   Willem Van den Heuvel  : Paramagnetic NMR
   Boris Wezisla          : Elementary symmetry handling
   Frank Wennmohs         : Technical directorship


 We gratefully acknowledge several colleagues who have allowed us to
 interface, adapt or use parts of their codes:
   Stefan Grimme, W. Hujo, H. Kruse, P. Pracht,  : VdW corrections, initial TS optimization,
                  C. Bannwarth, S. Ehlert          DFT functionals, gCP, sTDA/sTD-DF
   Ed Valeev, F. Pavosevic, A. Kumar             : LibInt (2-el integral package), F12 methods
   Garnet Chan, S. Sharma, J. Yang, R. Olivares  : DMRG
   Ulf Ekstrom                                   : XCFun DFT Library
   Mihaly Kallay                                 : mrcc  (arbitrary order and MRCC methods)
   Jiri Pittner, Ondrej Demel                    : Mk-CCSD
   Frank Weinhold                                : gennbo (NPA and NBO analysis)
   Christopher J. Cramer and Donald G. Truhlar   : smd solvation model
   Lars Goerigk                                  : TD-DFT with DH, B97 family of functionals
   V. Asgeirsson, H. Jonsson                     : NEB implementation
   FAccTs GmbH                                   : IRC, NEB, NEB-TS, DLPNO-Multilevel, CI-OPT
                                                   MM, QMMM, 2- and 3-layer-ONIOM, Crystal-QMMM,
                                                   LR-CPCM, SF, NACMEs, symmetry and pop. for TD-DFT,
                                                   nearIR, NL-DFT gradient (VV10), updates on ESD,
                                                   ML-optimized integration grids
   S Lehtola, MJT Oliveira, MAL Marques          : LibXC Library
   Liviu Ungur et al                             : ANISO software


 Your calculation uses the libint2 library for the computation of 2-el integrals
 For citations please refer to: http://libint.valeyev.net

 Your ORCA version has been built with support for libXC version: 5.1.0
 For citations please refer to: https://tddft.org/programs/libxc/

 This ORCA versions uses:
   CBLAS   interface :  Fast vector & matrix operations
   LAPACKE interface :  Fast linear algebra routines
   SCALAPACK package :  Parallel linear algebra routines
   Shared memory     :  Shared parallel matrices
   BLAS/LAPACK       :  OpenBLAS 0.3.15  USE64BITINT DYNAMIC_ARCH NO_AFFINITY SkylakeX SINGLE_THREADED
        Core in use  :  SkylakeX
   Copyright (c) 2011-2014, The OpenBLAS Project


================================================================================

----- Orbital basis set information -----
Your calculation utilizes the basis: aug-cc-pVTZ 
    H, B-Ne : Obtained from the ccRepo (grant-hill.group.shef.ac.uk/ccrepo) Feb. 2017
              R. A. Kendall, T. H. Dunning, Jr., R. J. Harrison, J. Chem. Phys. 96, 6796 (1992)
         He : Obtained from the ccRepo (grant-hill.group.shef.ac.uk/ccrepo) Feb. 2017
              D. E. Woon, T. H. Dunning, Jr., J. Chem. Phys. 100, 2975 (1994)
  Li-Be, Na : Obtained from the ccRepo (grant-hill.group.shef.ac.uk/ccrepo) Feb. 2017
              B. P. Prascher, D. E. Woon, K. A. Peterson, T. H. Dunning, Jr., A. K. Wilson, Theor. Chem. Acc. 128, 69 (2011)
         Mg : Obtained from the Peterson Research Group Website (tyr0.chem.wsu.edu/~kipeters) Feb. 2017
              B. P. Prascher, D. E. Woon, K. A. Peterson, T. H. Dunning, Jr., A. K. Wilson, Theor. Chem. Acc. 128, 69 (2011)
      Al-Ar : Obtained from the ccRepo (grant-hill.group.shef.ac.uk/ccrepo) Feb. 2017
              D. E. Woon, T. H. Dunning, Jr., J. Chem. Phys. 98, 1358 (1993)
      Sc-Zn : Obtained from the ccRepo (grant-hill.group.shef.ac.uk/ccrepo) Feb. 2017
              N. B. Balabanov, K. A. Peterson, J. Chem. Phys. 123, 064107 (2005)
              N. B. Balabanov, K. A. Peterson, J. Chem. Phys. 125, 074110 (2006)
      Ga-Kr : Obtained from the ccRepo (grant-hill.group.shef.ac.uk/ccrepo) Feb. 2017
              A. K. Wilson, D. E. Woon, K. A. Peterson, T. H. Dunning, Jr., J. Chem. Phys. 110, 7667 (1999)
     Ag, Au : Obtained from the Peterson Research Group Website (tyr0.chem.wsu.edu/~kipeters) Feb. 2017
              K. A. Peterson, C. Puzzarini, Theor. Chem. Acc. 114, 283 (2005)

----- AuxC basis set information -----
Your calculation utilizes the auxiliary basis: aug-cc-pVTZ/C 
  H-He, B-F, Al-Ar, Ga-Kr : Obtained from the EMSL Basis Set Exchange (bse.pnl.gov) Feb. 2017
                            F. Weigend, A. Kohn, C. Hattig, J. Chem. Phys. 116, 3175 (2002)
                   Be, Mg : Obtained from the TURBOMOLE 7.0 basis set library
                            C. Haettig, Phys. Chem. Chem. Phys. 7, 59 (2005)
                       Ne : Obtained from the EMSL Basis Set Exchange (bse.pnl.gov) Feb. 2017
                            C. Haettig, Phys. Chem. Chem. Phys. 7, 59 (2005)
                            F. Weigend, A. Kohn, C. Hattig, J. Chem. Phys. 116, 3175 (2002)
                    Sc-Zn : Obtained from the EMSL Basis Set Exchange (bse.pnl.gov) Feb. 2017
                            J. G. Hill, J. A. Platts, J. Chem. Phys. 128, 044104 (2008)

================================================================================
                                        WARNINGS
                       Please study these warnings very carefully!
================================================================================


WARNING: No MP2 level density has been requested!
         To caclulate MP2 level properties use
         %mp2 Density relaxed end
         or
         %mp2 Density unrelaxed end

WARNING: Post HF methods need fully converged wavefunctions
  ===> : Setting SCFConvForced true
         You can overwrite this default with %scf ConvForced false 


INFO   : the flag for use of the SHARK integral package has been found!

================================================================================
                                       INPUT FILE
================================================================================
NAME = TZ_ethenylcyclopropane.inp
|  1> !ri-mp2 aug-cc-pvtz aug-cc-pvtz/c tightscf
|  2> %pal nprocs 16 end
|  3> 
|  4> * xyz 0 1
|  5> C     -0.252597    1.434985    0.748313
|  6> C     -0.252597    1.434985   -0.748313
|  7> C      0.389449    0.284544    0.000000
|  8> C     -0.252597   -1.039865    0.000000
|  9> C      0.387394   -2.205488    0.000000
| 10> H      0.401712    2.122298    1.265403
| 11> H     -1.185014    1.236819    1.258413
| 12> H     -1.185014    1.236819   -1.258413
| 13> H      0.401712    2.122298   -1.265403
| 14> H      1.471951    0.266496    0.000000
| 15> H     -1.339751   -1.036337    0.000000
| 16> H      1.469284   -2.259461    0.000000
| 17> H     -0.149199   -3.143904    0.000000
| 18> *
| 19> 
| 20>                          ****END OF INPUT****
================================================================================

                       ****************************
                       * Single Point Calculation *
                       ****************************

---------------------------------
CARTESIAN COORDINATES (ANGSTROEM)
---------------------------------
  C     -0.252597    1.434985    0.748313
  C     -0.252597    1.434985   -0.748313
  C      0.389449    0.284544    0.000000
  C     -0.252597   -1.039865    0.000000
  C      0.387394   -2.205488    0.000000
  H      0.401712    2.122298    1.265403
  H     -1.185014    1.236819    1.258413
  H     -1.185014    1.236819   -1.258413
  H      0.401712    2.122298   -1.265403
  H      1.471951    0.266496    0.000000
  H     -1.339751   -1.036337    0.000000
  H      1.469284   -2.259461    0.000000
  H     -0.149199   -3.143904    0.000000

----------------------------
CARTESIAN COORDINATES (A.U.)
----------------------------
  NO LB      ZA    FRAG     MASS         X           Y           Z
   0 C     6.0000    0    12.011   -0.477339    2.711729    1.414107
   1 C     6.0000    0    12.011   -0.477339    2.711729   -1.414107
   2 C     6.0000    0    12.011    0.735952    0.537710    0.000000
   3 C     6.0000    0    12.011   -0.477339   -1.965060    0.000000
   4 C     6.0000    0    12.011    0.732069   -4.167768    0.000000
   5 H     1.0000    0     1.008    0.759126    4.010562    2.391265
   6 H     1.0000    0     1.008   -2.239352    2.337249    2.378056
   7 H     1.0000    0     1.008   -2.239352    2.337249   -2.378056
   8 H     1.0000    0     1.008    0.759126    4.010562   -2.391265
   9 H     1.0000    0     1.008    2.781584    0.503604    0.000000
  10 H     1.0000    0     1.008   -2.531762   -1.958393    0.000000
  11 H     1.0000    0     1.008    2.776544   -4.269763    0.000000
  12 H     1.0000    0     1.008   -0.281945   -5.941118    0.000000

--------------------------------
INTERNAL COORDINATES (ANGSTROEM)
--------------------------------
 C      0   0   0     0.000000000000     0.00000000     0.00000000
 C      1   0   0     1.496626000000     0.00000000     0.00000000
 C      1   2   0     1.515160026719    60.40382589     0.00000000
 C      3   1   2     1.471829563977   119.89333522   250.94223481
 C      4   3   1     1.329761429058   125.36765286   214.72767584
 H      1   2   3     1.080694913262   118.58612093   107.24388423
 H      1   2   3     1.081144410079   118.15216774   252.83319757
 H      2   1   3     1.081144410079   118.15216774   107.16680243
 H      2   1   3     1.080694913262   118.58612093   252.75611577
 H      3   1   2     1.082652442064   115.87100708   105.98861792
 H      4   3   1     1.087159724466   115.67721090    34.72767584
 H      5   4   3     1.083235457705   121.62518905     0.00000000
 H      5   4   3     1.080997981823   121.46956641   180.00000000

---------------------------
INTERNAL COORDINATES (A.U.)
---------------------------
 C      0   0   0     0.000000000000     0.00000000     0.00000000
 C      1   0   0     2.828213264906     0.00000000     0.00000000
 C      1   2   0     2.863237499563    60.40382589     0.00000000
 C      3   1   2     2.781354791725   119.89333522   250.94223481
 C      4   3   1     2.512884924371   125.36765286   214.72767584
 H      1   2   3     2.042217420387   118.58612093   107.24388423
 H      1   2   3     2.043066846269   118.15216774   252.83319757
 H      2   1   3     2.043066846269   118.15216774   107.16680243
 H      2   1   3     2.042217420387   118.58612093   252.75611577
 H      3   1   2     2.045916613723   115.87100708   105.98861792
 H      4   3   1     2.054434143069   115.67721090    34.72767584
 H      5   4   3     2.047018353615   121.62518905     0.00000000
 H      5   4   3     2.042790136967   121.46956641   180.00000000

---------------------
BASIS SET INFORMATION
---------------------
There are 2 groups of distinct atoms

 Group   1 Type C   : 19s6p3d2f contracted to 5s4p3d2f pattern {88111/3111/111/11}
 Group   2 Type H   : 6s3p2d contracted to 4s3p2d pattern {3111/111/11}

Atom   0C    basis set group =>   1
Atom   1C    basis set group =>   1
Atom   2C    basis set group =>   1
Atom   3C    basis set group =>   1
Atom   4C    basis set group =>   1
Atom   5H    basis set group =>   2
Atom   6H    basis set group =>   2
Atom   7H    basis set group =>   2
Atom   8H    basis set group =>   2
Atom   9H    basis set group =>   2
Atom  10H    basis set group =>   2
Atom  11H    basis set group =>   2
Atom  12H    basis set group =>   2
---------------------------------
AUXILIARY/C BASIS SET INFORMATION
---------------------------------
There are 2 groups of distinct atoms

 Group   1 Type C   : 9s7p6d4f2g contracted to 9s7p6d4f2g pattern {111111111/1111111/111111/1111/11}
 Group   2 Type H   : 5s4p3d2f contracted to 5s4p3d2f pattern {11111/1111/111/11}

Atom   0C    basis set group =>   1
Atom   1C    basis set group =>   1
Atom   2C    basis set group =>   1
Atom   3C    basis set group =>   1
Atom   4C    basis set group =>   1
Atom   5H    basis set group =>   2
Atom   6H    basis set group =>   2
Atom   7H    basis set group =>   2
Atom   8H    basis set group =>   2
Atom   9H    basis set group =>   2
Atom  10H    basis set group =>   2
Atom  11H    basis set group =>   2
Atom  12H    basis set group =>   2


           ************************************************************
           *        Program running with 16 parallel MPI-processes    *
           *              working on a common directory               *
           ************************************************************
------------------------------------------------------------------------------
                           ORCA GTO INTEGRAL CALCULATION
------------------------------------------------------------------------------
------------------------------------------------------------------------------
                   ___                                                        
                  /   \      - P O W E R E D   B Y -                         
                 /     \                                                     
                 |  |  |   _    _      __       _____    __    __             
                 |  |  |  | |  | |    /  \     |  _  \  |  |  /  |          
                  \  \/   | |  | |   /    \    | | | |  |  | /  /          
                 / \  \   | |__| |  /  /\  \   | |_| |  |  |/  /          
                |  |  |   |  __  | /  /__\  \  |    /   |      \           
                |  |  |   | |  | | |   __   |  |    \   |  |\   \          
                \     /   | |  | | |  |  |  |  | |\  \  |  | \   \       
                 \___/    |_|  |_| |__|  |__|  |_| \__\ |__|  \__/        
                                                                              
                      - O R C A' S   B I G   F R I E N D -                    
                                      &                                       
                       - I N T E G R A L  F E E D E R -                       
                                                                              
 v1 FN, 2020, v2 2021                                                         
------------------------------------------------------------------------------


Reading SHARK input file TZ_ethenylcyclopropane.SHARKINP.tmp ... ok
----------------------
SHARK INTEGRAL PACKAGE
----------------------

Number of atoms                             ...     13
Number of basis functions                   ...    444
Number of shells                            ...    172
Maximum angular momentum                    ...      3
Integral batch strategy                     ... SHARK/LIBINT Hybrid
RI-J (if used) integral strategy            ... SPLIT-RIJ (Revised 2003 algorithm where possible)
Printlevel                                  ...      1
Contraction scheme used                     ... PARTIAL GENERAL contraction
Coulomb Range Separation                    ... NOT USED
Exchange Range Separation                   ... NOT USED
Finite Nucleus Model                        ... NOT USED
Auxiliary Coulomb fitting basis             ... NOT available
Auxiliary J/K fitting basis                 ... NOT available
Auxiliary Correlation fitting basis         ... AVAILABLE
   # of basis functions in Aux-C            ...    898
   # of shells in Aux-C                     ...    252
   Maximum angular momentum in Aux-C        ...      4
Auxiliary 'external' fitting basis          ... NOT available
Integral threshold                          ...     2.500000e-11
Primitive cut-off                           ...     2.500000e-12
Primitive pair pre-selection threshold      ...     2.500000e-12

Calculating pre-screening integrals         ... done (  0.0 sec) Dimension = 172
Calculating pre-screening integrals (ORCA)  ... done (  0.1 sec) Dimension = 142
Organizing shell pair data                  ... done (  0.1 sec)
Shell pair information
Total number of shell pairs                 ...     14878
Shell pairs after pre-screening             ...     13772
Total number of primitive shell pairs       ...     19740
Primitive shell pairs kept                  ...     17185
          la=0 lb=0:   3205 shell pairs
          la=1 lb=0:   3599 shell pairs
          la=1 lb=1:    965 shell pairs
          la=2 lb=0:   2544 shell pairs
          la=2 lb=1:   1332 shell pairs
          la=2 lb=2:    484 shell pairs
          la=3 lb=0:    842 shell pairs
          la=3 lb=1:    436 shell pairs
          la=3 lb=2:    310 shell pairs
          la=3 lb=3:     55 shell pairs

Calculating one electron integrals          ... done (  0.0 sec)
Calculating RI/C V-Matrix + Cholesky decomp.... done (  0.1 sec)
Calculating Nuclear repulsion               ... done (  0.0 sec) ENN=    163.247327276754 Eh

SHARK setup successfully completed in   0.6 seconds

Maximum memory used throughout the entire GTOINT-calculation: 27.9 MB


           ************************************************************
           *        Program running with 16 parallel MPI-processes    *
           *              working on a common directory               *
           ************************************************************
-------------------------------------------------------------------------------
                                 ORCA SCF
-------------------------------------------------------------------------------

------------
SCF SETTINGS
------------
Hamiltonian:
 Ab initio Hamiltonian  Method          .... Hartree-Fock(GTOs)


General Settings:
 Integral files         IntName         .... TZ_ethenylcyclopropane
 Hartree-Fock type      HFTyp           .... RHF
 Total Charge           Charge          ....    0
 Multiplicity           Mult            ....    1
 Number of Electrons    NEL             ....   38
 Basis Dimension        Dim             ....  414
 Nuclear Repulsion      ENuc            ....    163.2473272768 Eh

Convergence Acceleration:
 DIIS                   CNVDIIS         .... on
   Start iteration      DIISMaxIt       ....    12
   Startup error        DIISStart       ....  0.200000
   # of expansion vecs  DIISMaxEq       ....     5
   Bias factor          DIISBfac        ....   1.050
   Max. coefficient     DIISMaxC        ....  10.000
 Trust-Rad. Augm. Hess. CNVTRAH         .... auto
   Auto Start mean grad. ratio tolernc. ....  1.125000
   Auto Start start iteration           ....    20
   Auto Start num. interpolation iter.  ....    10
   Max. Number of Micro iterations      ....    16
   Max. Number of Macro iterations      .... Maxiter - #DIIS iter
   Number of Davidson start vectors     ....     2
   Converg. threshold I  (grad. norm)   ....   1.000e-05
   Converg. threshold II (energy diff.) ....   1.000e-08
   Grad. Scal. Fac. for Micro threshold ....   0.100
   Minimum threshold for Micro iter.    ....   0.010
   NR start threshold (gradient norm)   ....   0.001
   Initial trust radius                 ....   0.400
   Minimum AH scaling param. (alpha)    ....   1.000
   Maximum AH scaling param. (alpha)    .... 1000.000
   Orbital update algorithm             .... Taylor
   White noise on init. David. guess    .... on
   Maximum white noise                  ....   0.010
   Quad. conv. algorithm                .... NR
 SOSCF                  CNVSOSCF        .... on
   Start iteration      SOSCFMaxIt      ....   150
   Startup grad/error   SOSCFStart      ....  0.003300
 Level Shifting         CNVShift        .... on
   Level shift para.    LevelShift      ....    0.2500
   Turn off err/grad.   ShiftErr        ....    0.0010
 Zerner damping         CNVZerner       .... off
 Static damping         CNVDamp         .... on
   Fraction old density DampFac         ....    0.7000
   Max. Damping (<1)    DampMax         ....    0.9800
   Min. Damping (>=0)   DampMin         ....    0.0000
   Turn off err/grad.   DampErr         ....    0.1000
 Fernandez-Rico         CNVRico         .... off

SCF Procedure:
 Maximum # iterations   MaxIter         ....   125
 SCF integral mode      SCFMode         .... Direct
   Integral package                     .... SHARK and LIBINT hybrid scheme
 Reset frequency        DirectResetFreq ....    20
 Integral Threshold     Thresh          ....  2.500e-11 Eh
 Primitive CutOff       TCut            ....  2.500e-12 Eh

Convergence Tolerance:
 Convergence Check Mode ConvCheckMode   .... Total+1el-Energy
 Convergence forced     ConvForced      .... 1
 Energy Change          TolE            ....  1.000e-08 Eh
 1-El. energy change                    ....  1.000e-05 Eh
 Orbital Gradient       TolG            ....  1.000e-05
 Orbital Rotation angle TolX            ....  1.000e-05
 DIIS Error             TolErr          ....  5.000e-07


Diagonalization of the overlap matrix:
Smallest eigenvalue                        ... 3.134e-06
Time for diagonalization                   ...    0.023 sec
Threshold for overlap eigenvalues          ... 1.000e-08
Number of eigenvalues below threshold      ... 0
Time for construction of square roots      ...    0.017 sec
Total time needed                          ...    0.111 sec

Time for model grid setup =    0.052 sec

------------------------------
INITIAL GUESS: MODEL POTENTIAL
------------------------------
Loading Hartree-Fock densities                     ... done
Calculating cut-offs                               ... done
Initializing the effective Hamiltonian             ... done
Setting up the integral package (SHARK)            ... done
Starting the Coulomb interaction                   ... done (   0.1 sec)
Reading the grid                                   ... done
Mapping shells                                     ... done
Starting the XC term evaluation                    ... done (   0.0 sec)
Transforming the Hamiltonian                       ... done (   0.0 sec)
Diagonalizing the Hamiltonian                      ... done (   0.0 sec)
Back transforming the eigenvectors                 ... done (   0.0 sec)
Now organizing SCF variables                       ... done
                      ------------------
                      INITIAL GUESS DONE (   0.2 sec)
                      ------------------
--------------
SCF ITERATIONS
--------------
ITER       Energy         Delta-E        Max-DP      RMS-DP      [F,P]     Damp
               ***  Starting incremental Fock matrix formation  ***
  0   -193.7349091636   0.000000000000 0.05085691  0.00078239  0.2153495 0.7000
  1   -193.8305811366  -0.095671973007 0.03843792  0.00063305  0.1430659 0.7000
                               ***Turning on DIIS***
  2   -193.8894082133  -0.058827076653 0.09466349  0.00156186  0.0929302 0.0000
  3   -193.5141165157   0.375291697567 0.01937372  0.00037908  0.0295308 0.0000
  4   -193.9586590846  -0.444542568858 0.00756356  0.00016666  0.0054579 0.0000
                      *** Initiating the SOSCF procedure ***
                           *** Shutting down DIIS ***
                      *** Re-Reading the Fockian *** 
                      *** Removing any level shift *** 
ITER      Energy       Delta-E        Grad      Rot      Max-DP    RMS-DP
  5   -193.99521033  -0.0365512433  0.001004  0.001004  0.002097  0.000055
               *** Restarting incremental Fock matrix formation ***
  6   -194.01057009  -0.0153597648  0.000522  0.000811  0.002118  0.000021
  7   -194.01058349  -0.0000134003  0.000152  0.000562  0.001389  0.000015
  8   -194.01058604  -0.0000025452  0.000050  0.000067  0.000112  0.000002
  9   -194.01058619  -0.0000001563  0.000018  0.000023  0.000035  0.000001
 10   -194.01058620  -0.0000000101  0.000004  0.000010  0.000018  0.000000
                  ***Gradient check signals convergence***
              ***Rediagonalizing the Fockian in SOSCF/NRSCF***

               *****************************************************
               *                     SUCCESS                       *
               *           SCF CONVERGED AFTER  11 CYCLES          *
               *****************************************************


----------------
TOTAL SCF ENERGY
----------------

Total Energy       :         -194.01058621 Eh           -5279.29644 eV

Components:
Nuclear Repulsion  :          163.24732728 Eh            4442.18561 eV
Electronic Energy  :         -357.25791348 Eh           -9721.48206 eV
One Electron Energy:         -583.61740017 Eh          -15881.03684 eV
Two Electron Energy:          226.35948669 Eh            6159.55478 eV

Virial components:
Potential Energy   :         -387.77253903 Eh          -10551.82723 eV
Kinetic Energy     :          193.76195282 Eh            5272.53079 eV
Virial Ratio       :            2.00128319


---------------
SCF CONVERGENCE
---------------

  Last Energy change         ...   -1.5136e-09  Tolerance :   1.0000e-08
  Last MAX-Density change    ...    6.3607e-06  Tolerance :   1.0000e-07
  Last RMS-Density change    ...    1.3902e-07  Tolerance :   5.0000e-09
  Last Orbital Gradient      ...    1.3659e-06  Tolerance :   1.0000e-05
  Last Orbital Rotation      ...    5.0119e-06  Tolerance :   1.0000e-05

             **** THE GBW FILE WAS UPDATED (TZ_ethenylcyclopropane.gbw) ****
             **** DENSITY TZ_ethenylcyclopropane.scfp WAS UPDATED ****
             **** ENERGY FILE WAS UPDATED (TZ_ethenylcyclopropane.en.tmp) ****
             **** THE GBW FILE WAS UPDATED (TZ_ethenylcyclopropane.gbw) ****
             **** DENSITY TZ_ethenylcyclopropane.scfp WAS UPDATED ****
----------------
ORBITAL ENERGIES
----------------

  NO   OCC          E(Eh)            E(eV) 
   0   2.0000     -11.235776      -305.7410 
   1   2.0000     -11.234266      -305.6999 
   2   2.0000     -11.229079      -305.5588 
   3   2.0000     -11.228407      -305.5405 
   4   2.0000     -11.214780      -305.1697 
   5   2.0000      -1.151837       -31.3431 
   6   2.0000      -1.033796       -28.1310 
   7   2.0000      -0.847298       -23.0562 
   8   2.0000      -0.825680       -22.4679 
   9   2.0000      -0.759036       -20.6544 
  10   2.0000      -0.663467       -18.0539 
  11   2.0000      -0.647350       -17.6153 
  12   2.0000      -0.587136       -15.9768 
  13   2.0000      -0.555436       -15.1142 
  14   2.0000      -0.519501       -14.1363 
  15   2.0000      -0.489123       -13.3097 
  16   2.0000      -0.461858       -12.5678 
  17   2.0000      -0.427355       -11.6289 
  18   2.0000      -0.338018        -9.1979 
  19   0.0000       0.031218         0.8495 
  20   0.0000       0.035690         0.9712 
  21   0.0000       0.036818         1.0019 
  22   0.0000       0.041537         1.1303 
  23   0.0000       0.054514         1.4834 
  24   0.0000       0.056697         1.5428 
  25   0.0000       0.059969         1.6318 
  26   0.0000       0.075852         2.0640 
  27   0.0000       0.089632         2.4390 
  28   0.0000       0.090455         2.4614 
  29   0.0000       0.108951         2.9647 
  30   0.0000       0.113423         3.0864 
  31   0.0000       0.122005         3.3199 
  32   0.0000       0.122798         3.3415 
  33   0.0000       0.128353         3.4927 
  34   0.0000       0.133637         3.6364 
  35   0.0000       0.134093         3.6489 
  36   0.0000       0.141535         3.8514 
  37   0.0000       0.149410         4.0656 
  38   0.0000       0.158306         4.3077 
  39   0.0000       0.160126         4.3572 
  40   0.0000       0.167245         4.5510 
  41   0.0000       0.168174         4.5763 
  42   0.0000       0.177884         4.8405 
  43   0.0000       0.182133         4.9561 
  44   0.0000       0.196212         5.3392 
  45   0.0000       0.211945         5.7673 
  46   0.0000       0.232190         6.3182 
  47   0.0000       0.243774         6.6334 
  48   0.0000       0.248670         6.7667 
  49   0.0000       0.264721         7.2034 
  50   0.0000       0.276042         7.5115 
  51   0.0000       0.282339         7.6828 
  52   0.0000       0.286069         7.7843 
  53   0.0000       0.287478         7.8227 
  54   0.0000       0.287986         7.8365 
  55   0.0000       0.311036         8.4637 
  56   0.0000       0.313654         8.5350 
  57   0.0000       0.317469         8.6388 
  58   0.0000       0.331165         9.0114 
  59   0.0000       0.334094         9.0912 
  60   0.0000       0.344276         9.3682 
  61   0.0000       0.347036         9.4433 
  62   0.0000       0.353799         9.6274 
  63   0.0000       0.361019         9.8238 
  64   0.0000       0.362270         9.8579 
  65   0.0000       0.363261         9.8848 
  66   0.0000       0.373044        10.1510 
  67   0.0000       0.379066        10.3149 
  68   0.0000       0.384639        10.4666 
  69   0.0000       0.384915        10.4741 
  70   0.0000       0.394721        10.7409 
  71   0.0000       0.395028        10.7492 
  72   0.0000       0.407459        11.0875 
  73   0.0000       0.430155        11.7051 
  74   0.0000       0.430776        11.7220 
  75   0.0000       0.439219        11.9518 
  76   0.0000       0.439373        11.9559 
  77   0.0000       0.454020        12.3545 
  78   0.0000       0.458605        12.4793 
  79   0.0000       0.464677        12.6445 
  80   0.0000       0.466329        12.6895 
  81   0.0000       0.472407        12.8549 
  82   0.0000       0.481796        13.1103 
  83   0.0000       0.491297        13.3689 
  84   0.0000       0.495611        13.4863 
  85   0.0000       0.500816        13.6279 
  86   0.0000       0.507143        13.8001 
  87   0.0000       0.513701        13.9785 
  88   0.0000       0.517918        14.0933 
  89   0.0000       0.522165        14.2088 
  90   0.0000       0.525246        14.2927 
  91   0.0000       0.539134        14.6706 
  92   0.0000       0.544575        14.8186 
  93   0.0000       0.550541        14.9810 
  94   0.0000       0.560075        15.2404 
  95   0.0000       0.571114        15.5408 
  96   0.0000       0.580555        15.7977 
  97   0.0000       0.587103        15.9759 
  98   0.0000       0.597406        16.2563 
  99   0.0000       0.607960        16.5434 
 100   0.0000       0.616260        16.7693 
 101   0.0000       0.621130        16.9018 
 102   0.0000       0.635753        17.2997 
 103   0.0000       0.641349        17.4520 
 104   0.0000       0.642745        17.4900 
 105   0.0000       0.673985        18.3401 
 106   0.0000       0.684051        18.6140 
 107   0.0000       0.690676        18.7943 
 108   0.0000       0.712547        19.3894 
 109   0.0000       0.746778        20.3209 
 110   0.0000       0.747732        20.3468 
 111   0.0000       0.769013        20.9259 
 112   0.0000       0.776884        21.1401 
 113   0.0000       0.796433        21.6720 
 114   0.0000       0.801711        21.8157 
 115   0.0000       0.817341        22.2410 
 116   0.0000       0.821522        22.3547 
 117   0.0000       0.826861        22.5000 
 118   0.0000       0.836423        22.7602 
 119   0.0000       0.862448        23.4684 
 120   0.0000       0.873775        23.7766 
 121   0.0000       0.890495        24.2316 
 122   0.0000       0.892699        24.2916 
 123   0.0000       0.906053        24.6549 
 124   0.0000       0.906742        24.6737 
 125   0.0000       0.914488        24.8845 
 126   0.0000       0.915600        24.9147 
 127   0.0000       0.918601        24.9964 
 128   0.0000       0.934112        25.4185 
 129   0.0000       0.941588        25.6219 
 130   0.0000       0.944612        25.7042 
 131   0.0000       0.953963        25.9587 
 132   0.0000       0.967905        26.3380 
 133   0.0000       0.973437        26.4886 
 134   0.0000       0.976000        26.5583 
 135   0.0000       0.984173        26.7807 
 136   0.0000       0.985026        26.8039 
 137   0.0000       0.996793        27.1241 
 138   0.0000       1.007783        27.4232 
 139   0.0000       1.008308        27.4375 
 140   0.0000       1.021376        27.7931 
 141   0.0000       1.041716        28.3465 
 142   0.0000       1.046921        28.4882 
 143   0.0000       1.050104        28.5748 
 144   0.0000       1.052952        28.6523 
 145   0.0000       1.064160        28.9573 
 146   0.0000       1.068044        29.0630 
 147   0.0000       1.086020        29.5521 
 148   0.0000       1.089267        29.6405 
 149   0.0000       1.091968        29.7140 
 150   0.0000       1.102434        29.9988 
 151   0.0000       1.109316        30.1860 
 152   0.0000       1.110012        30.2050 
 153   0.0000       1.137067        30.9412 
 154   0.0000       1.139169        30.9984 
 155   0.0000       1.146116        31.1874 
 156   0.0000       1.148378        31.2490 
 157   0.0000       1.166985        31.7553 
 158   0.0000       1.180136        32.1131 
 159   0.0000       1.185161        32.2499 
 160   0.0000       1.193722        32.4828 
 161   0.0000       1.198826        32.6217 
 162   0.0000       1.224317        33.3154 
 163   0.0000       1.224925        33.3319 
 164   0.0000       1.228357        33.4253 
 165   0.0000       1.243160        33.8281 
 166   0.0000       1.272961        34.6390 
 167   0.0000       1.282224        34.8911 
 168   0.0000       1.290349        35.1122 
 169   0.0000       1.296540        35.2807 
 170   0.0000       1.301947        35.4278 
 171   0.0000       1.305217        35.5168 
 172   0.0000       1.325341        36.0644 
 173   0.0000       1.358528        36.9674 
 174   0.0000       1.360636        37.0248 
 175   0.0000       1.385170        37.6924 
 176   0.0000       1.402470        38.1632 
 177   0.0000       1.404837        38.2276 
 178   0.0000       1.414013        38.4773 
 179   0.0000       1.432786        38.9881 
 180   0.0000       1.435117        39.0515 
 181   0.0000       1.446727        39.3674 
 182   0.0000       1.474264        40.1168 
 183   0.0000       1.478138        40.2222 
 184   0.0000       1.490110        40.5480 
 185   0.0000       1.502775        40.8926 
 186   0.0000       1.504196        40.9313 
 187   0.0000       1.528242        41.5856 
 188   0.0000       1.537733        41.8438 
 189   0.0000       1.561138        42.4807 
 190   0.0000       1.582305        43.0567 
 191   0.0000       1.609569        43.7986 
 192   0.0000       1.614164        43.9236 
 193   0.0000       1.619681        44.0738 
 194   0.0000       1.629033        44.3282 
 195   0.0000       1.638440        44.5842 
 196   0.0000       1.649984        44.8984 
 197   0.0000       1.659846        45.1667 
 198   0.0000       1.691523        46.0287 
 199   0.0000       1.708052        46.4785 
 200   0.0000       1.708471        46.4899 
 201   0.0000       1.718376        46.7594 
 202   0.0000       1.763784        47.9950 
 203   0.0000       1.770955        48.1901 
 204   0.0000       1.793941        48.8156 
 205   0.0000       1.800011        48.9808 
 206   0.0000       1.812180        49.3119 
 207   0.0000       1.818955        49.4963 
 208   0.0000       1.835663        49.9509 
 209   0.0000       1.843581        50.1664 
 210   0.0000       1.858169        50.5633 
 211   0.0000       1.869772        50.8791 
 212   0.0000       1.888982        51.4018 
 213   0.0000       1.895435        51.5774 
 214   0.0000       1.914993        52.1096 
 215   0.0000       1.917411        52.1754 
 216   0.0000       1.925211        52.3877 
 217   0.0000       1.930581        52.5338 
 218   0.0000       1.938109        52.7386 
 219   0.0000       1.957500        53.2663 
 220   0.0000       1.973383        53.6985 
 221   0.0000       1.991677        54.1963 
 222   0.0000       1.998486        54.3816 
 223   0.0000       2.009820        54.6900 
 224   0.0000       2.020744        54.9872 
 225   0.0000       2.025751        55.1235 
 226   0.0000       2.055889        55.9436 
 227   0.0000       2.076722        56.5105 
 228   0.0000       2.087883        56.8142 
 229   0.0000       2.099479        57.1297 
 230   0.0000       2.110898        57.4405 
 231   0.0000       2.125746        57.8445 
 232   0.0000       2.154445        58.6254 
 233   0.0000       2.172744        59.1234 
 234   0.0000       2.175236        59.1912 
 235   0.0000       2.185764        59.4777 
 236   0.0000       2.201707        59.9115 
 237   0.0000       2.211260        60.1714 
 238   0.0000       2.220655        60.4271 
 239   0.0000       2.269014        61.7430 
 240   0.0000       2.282057        62.0979 
 241   0.0000       2.301590        62.6294 
 242   0.0000       2.307580        62.7924 
 243   0.0000       2.312343        62.9221 
 244   0.0000       2.336757        63.5864 
 245   0.0000       2.347964        63.8913 
 246   0.0000       2.353387        64.0389 
 247   0.0000       2.394857        65.1674 
 248   0.0000       2.436908        66.3116 
 249   0.0000       2.440798        66.4175 
 250   0.0000       2.458634        66.9028 
 251   0.0000       2.476957        67.4014 
 252   0.0000       2.484473        67.6059 
 253   0.0000       2.519681        68.5640 
 254   0.0000       2.550858        69.4124 
 255   0.0000       2.593278        70.5667 
 256   0.0000       2.658279        72.3354 
 257   0.0000       2.720848        74.0381 
 258   0.0000       2.763103        75.1879 
 259   0.0000       2.776055        75.5403 
 260   0.0000       2.879582        78.3574 
 261   0.0000       2.973279        80.9070 
 262   0.0000       3.138995        85.4164 
 263   0.0000       3.150894        85.7402 
 264   0.0000       3.171941        86.3129 
 265   0.0000       3.245984        88.3277 
 266   0.0000       3.252311        88.4999 
 267   0.0000       3.276689        89.1632 
 268   0.0000       3.297775        89.7370 
 269   0.0000       3.303804        89.9011 
 270   0.0000       3.347615        91.0932 
 271   0.0000       3.359835        91.4258 
 272   0.0000       3.364072        91.5411 
 273   0.0000       3.439556        93.5951 
 274   0.0000       3.447059        93.7992 
 275   0.0000       3.485217        94.8376 
 276   0.0000       3.498864        95.2089 
 277   0.0000       3.504465        95.3613 
 278   0.0000       3.521071        95.8132 
 279   0.0000       3.529909        96.0537 
 280   0.0000       3.550543        96.6152 
 281   0.0000       3.556513        96.7776 
 282   0.0000       3.570124        97.1480 
 283   0.0000       3.601538        98.0028 
 284   0.0000       3.614393        98.3526 
 285   0.0000       3.633586        98.8749 
 286   0.0000       3.651838        99.3716 
 287   0.0000       3.660954        99.6196 
 288   0.0000       3.671728        99.9128 
 289   0.0000       3.707964       100.8988 
 290   0.0000       3.709294       100.9350 
 291   0.0000       3.719075       101.2012 
 292   0.0000       3.731767       101.5466 
 293   0.0000       3.740467       101.7833 
 294   0.0000       3.752599       102.1134 
 295   0.0000       3.787445       103.0616 
 296   0.0000       3.795973       103.2937 
 297   0.0000       3.834905       104.3531 
 298   0.0000       3.835409       104.3668 
 299   0.0000       3.847058       104.6838 
 300   0.0000       3.850871       104.7875 
 301   0.0000       3.880304       105.5884 
 302   0.0000       3.901216       106.1575 
 303   0.0000       3.911895       106.4481 
 304   0.0000       3.923574       106.7659 
 305   0.0000       3.948952       107.4564 
 306   0.0000       3.978197       108.2522 
 307   0.0000       3.984931       108.4355 
 308   0.0000       4.010026       109.1183 
 309   0.0000       4.032036       109.7173 
 310   0.0000       4.040385       109.9445 
 311   0.0000       4.050418       110.2175 
 312   0.0000       4.061461       110.5180 
 313   0.0000       4.072513       110.8187 
 314   0.0000       4.141599       112.6986 
 315   0.0000       4.147400       112.8565 
 316   0.0000       4.157128       113.1212 
 317   0.0000       4.165049       113.3367 
 318   0.0000       4.169792       113.4658 
 319   0.0000       4.195771       114.1727 
 320   0.0000       4.201999       114.3422 
 321   0.0000       4.203340       114.3787 
 322   0.0000       4.226153       114.9995 
 323   0.0000       4.251309       115.6840 
 324   0.0000       4.262329       115.9839 
 325   0.0000       4.277193       116.3883 
 326   0.0000       4.307214       117.2053 
 327   0.0000       4.344054       118.2077 
 328   0.0000       4.357063       118.5617 
 329   0.0000       4.382833       119.2629 
 330   0.0000       4.395611       119.6106 
 331   0.0000       4.425045       120.4116 
 332   0.0000       4.439573       120.8069 
 333   0.0000       4.463247       121.4511 
 334   0.0000       4.472277       121.6968 
 335   0.0000       4.485538       122.0577 
 336   0.0000       4.511587       122.7665 
 337   0.0000       4.522442       123.0619 
 338   0.0000       4.546612       123.7196 
 339   0.0000       4.559870       124.0804 
 340   0.0000       4.586543       124.8062 
 341   0.0000       4.618183       125.6672 
 342   0.0000       4.663513       126.9006 
 343   0.0000       4.746513       129.1592 
 344   0.0000       4.758565       129.4871 
 345   0.0000       4.789111       130.3183 
 346   0.0000       4.819318       131.1403 
 347   0.0000       4.829803       131.4256 
 348   0.0000       4.837815       131.6436 
 349   0.0000       4.871394       132.5574 
 350   0.0000       4.888757       133.0298 
 351   0.0000       4.894375       133.1827 
 352   0.0000       4.903571       133.4329 
 353   0.0000       4.914147       133.7207 
 354   0.0000       4.929091       134.1274 
 355   0.0000       4.948413       134.6532 
 356   0.0000       4.978908       135.4830 
 357   0.0000       4.999842       136.0526 
 358   0.0000       5.029766       136.8669 
 359   0.0000       5.031905       136.9251 
 360   0.0000       5.043857       137.2503 
 361   0.0000       5.063916       137.7962 
 362   0.0000       5.087626       138.4413 
 363   0.0000       5.112360       139.1144 
 364   0.0000       5.140486       139.8797 
 365   0.0000       5.146173       140.0345 
 366   0.0000       5.181260       140.9893 
 367   0.0000       5.216927       141.9598 
 368   0.0000       5.253466       142.9541 
 369   0.0000       5.255798       143.0175 
 370   0.0000       5.280475       143.6890 
 371   0.0000       5.338527       145.2687 
 372   0.0000       5.345295       145.4529 
 373   0.0000       5.363536       145.9492 
 374   0.0000       5.419083       147.4607 
 375   0.0000       5.424669       147.6127 
 376   0.0000       5.489137       149.3670 
 377   0.0000       5.506430       149.8376 
 378   0.0000       5.517071       150.1271 
 379   0.0000       5.552755       151.0981 
 380   0.0000       5.553591       151.1209 
 381   0.0000       5.587245       152.0367 
 382   0.0000       5.604960       152.5187 
 383   0.0000       5.614232       152.7710 
 384   0.0000       5.676989       154.4787 
 385   0.0000       5.678237       154.5127 
 386   0.0000       5.709010       155.3501 
 387   0.0000       5.718544       155.6095 
 388   0.0000       5.749029       156.4390 
 389   0.0000       5.786586       157.4610 
 390   0.0000       5.912600       160.8900 
 391   0.0000       5.945575       161.7873 
 392   0.0000       5.958709       162.1447 
 393   0.0000       6.079784       165.4393 
 394   0.0000       6.104723       166.1180 
 395   0.0000       6.283478       170.9821 
 396   0.0000       6.322706       172.0496 
 397   0.0000       6.375095       173.4751 
 398   0.0000       6.404327       174.2706 
 399   0.0000       6.438962       175.2131 
 400   0.0000       6.494101       176.7135 
 401   0.0000       6.521336       177.4546 
 402   0.0000       6.557469       178.4378 
 403   0.0000       6.651468       180.9956 
 404   0.0000       6.691471       182.0842 
 405   0.0000       6.766931       184.1376 
 406   0.0000       6.808286       185.2629 
 407   0.0000       6.846306       186.2975 
 408   0.0000       6.974355       189.7819 
 409   0.0000      16.891091       459.6299 
 410   0.0000      17.541055       477.3164 
 411   0.0000      17.723753       482.2878 
 412   0.0000      18.142110       493.6719 
 413   0.0000      19.483682       530.1780 

                    ********************************
                    * MULLIKEN POPULATION ANALYSIS *
                    ********************************

-----------------------
MULLIKEN ATOMIC CHARGES
-----------------------
   0 C :   -0.866016
   1 C :   -0.866016
   2 C :    0.429415
   3 C :   -0.278756
   4 C :   -1.163473
   5 H :    0.365635
   6 H :    0.367473
   7 H :    0.367473
   8 H :    0.365635
   9 H :    0.281562
  10 H :    0.287288
  11 H :    0.243942
  12 H :    0.465836
Sum of atomic charges:   -0.0000000

--------------------------------
MULLIKEN REDUCED ORBITAL CHARGES
--------------------------------
  0 C s       :     3.533167  s :     3.533167
      pz      :     0.977700  p :     3.247039
      px      :     1.226228
      py      :     1.043111
      dz2     :     0.000362  d :     0.077909
      dxz     :     0.039656
      dyz     :    -0.013524
      dx2y2   :     0.025069
      dxy     :     0.026345
      f0      :     0.001053  f :     0.007901
      f+1     :     0.002021
      f-1     :    -0.001240
      f+2     :     0.001113
      f-2     :     0.001180
      f+3     :     0.001627
      f-3     :     0.002147
  1 C s       :     3.533167  s :     3.533167
      pz      :     0.977700  p :     3.247039
      px      :     1.226228
      py      :     1.043111
      dz2     :     0.000362  d :     0.077909
      dxz     :     0.039656
      dyz     :    -0.013524
      dx2y2   :     0.025069
      dxy     :     0.026345
      f0      :     0.001053  f :     0.007901
      f+1     :     0.002021
      f-1     :    -0.001240
      f+2     :     0.001113
      f-2     :     0.001180
      f+3     :     0.001627
      f-3     :     0.002147
  2 C s       :     3.072680  s :     3.072680
      pz      :     1.053140  p :     2.570262
      px      :     0.982031
      py      :     0.535091
      dz2     :    -0.014164  d :    -0.048104
      dxz     :    -0.005658
      dyz     :    -0.001893
      dx2y2   :     0.022180
      dxy     :    -0.048569
      f0      :    -0.000279  f :    -0.024252
      f+1     :     0.000495
      f-1     :    -0.003591
      f+2     :     0.000868
      f-2     :     0.000344
      f+3     :    -0.005721
      f-3     :    -0.016368
  3 C s       :     3.389722  s :     3.389722
      pz      :     0.954815  p :     2.864859
      px      :     1.134978
      py      :     0.775066
      dz2     :     0.006784  d :     0.023933
      dxz     :     0.008106
      dyz     :    -0.004433
      dx2y2   :     0.079455
      dxy     :    -0.065980
      f0      :     0.001749  f :     0.000243
      f+1     :     0.000578
      f-1     :    -0.001040
      f+2     :     0.000234
      f-2     :     0.001076
      f+3     :    -0.001878
      f-3     :    -0.000476
  4 C s       :     3.628219  s :     3.628219
      pz      :     1.026640  p :     3.410592
      px      :     1.244267
      py      :     1.139684
      dz2     :     0.010290  d :     0.116032
      dxz     :     0.010765
      dyz     :     0.023900
      dx2y2   :     0.041740
      dxy     :     0.029337
      f0      :     0.001526  f :     0.008630
      f+1     :     0.001563
      f-1     :     0.002132
      f+2     :    -0.000217
      f-2     :     0.000753
      f+3     :     0.003488
      f-3     :    -0.000616
  5 H s       :     0.578511  s :     0.578511
      pz      :     0.018999  p :     0.047357
      px      :     0.022598
      py      :     0.005760
      dz2     :     0.002310  d :     0.008497
      dxz     :     0.001071
      dyz     :     0.000402
      dx2y2   :     0.003594
      dxy     :     0.001119
  6 H s       :     0.576272  s :     0.576272
      pz      :     0.015090  p :     0.046944
      px      :     0.019488
      py      :     0.012367
      dz2     :     0.002341  d :     0.009310
      dxz     :     0.000973
      dyz     :     0.000658
      dx2y2   :     0.000721
      dxy     :     0.004617
  7 H s       :     0.576272  s :     0.576272
      pz      :     0.015090  p :     0.046944
      px      :     0.019488
      py      :     0.012367
      dz2     :     0.002341  d :     0.009310
      dxz     :     0.000973
      dyz     :     0.000658
      dx2y2   :     0.000721
      dxy     :     0.004617
  8 H s       :     0.578511  s :     0.578511
      pz      :     0.018999  p :     0.047357
      px      :     0.022598
      py      :     0.005760
      dz2     :     0.002310  d :     0.008497
      dxz     :     0.001071
      dyz     :     0.000402
      dx2y2   :     0.003594
      dxy     :     0.001119
  9 H s       :     0.710781  s :     0.710781
      pz      :     0.014613  p :     0.002298
      px      :    -0.006251
      py      :    -0.006063
      dz2     :    -0.001266  d :     0.005358
      dxz     :     0.005016
      dyz     :     0.000023
      dx2y2   :     0.000908
      dxy     :     0.000677
 10 H s       :     0.668293  s :     0.668293
      pz      :     0.018480  p :     0.044922
      px      :     0.011343
      py      :     0.015099
      dz2     :    -0.001730  d :    -0.000503
      dxz     :     0.002895
      dyz     :    -0.000210
      dx2y2   :    -0.000022
      dxy     :    -0.001435
 11 H s       :     0.674964  s :     0.674964
      pz      :     0.029164  p :     0.076784
      px      :     0.035654
      py      :     0.011966
      dz2     :    -0.000841  d :     0.004310
      dxz     :     0.003312
      dyz     :    -0.000001
      dx2y2   :    -0.000608
      dxy     :     0.002449
 12 H s       :     0.500538  s :     0.500538
      pz      :     0.022023  p :     0.027803
      px      :     0.010284
      py      :    -0.004503
      dz2     :    -0.000581  d :     0.005823
      dxz     :     0.000939
      dyz     :     0.002731
      dx2y2   :     0.001151
      dxy     :     0.001583


                     *******************************
                     * LOEWDIN POPULATION ANALYSIS *
                     *******************************

----------------------
LOEWDIN ATOMIC CHARGES
----------------------
   0 C :    0.362809
   1 C :    0.362809
   2 C :   -0.003350
   3 C :    0.182868
   4 C :    0.523064
   5 H :   -0.159297
   6 H :   -0.160536
   7 H :   -0.160536
   8 H :   -0.159297
   9 H :   -0.147712
  10 H :   -0.182222
  11 H :   -0.224780
  12 H :   -0.233819

-------------------------------
LOEWDIN REDUCED ORBITAL CHARGES
-------------------------------
  0 C s       :     2.443869  s :     2.443869
      pz      :     0.733043  p :     2.212142
      px      :     0.763450
      py      :     0.715650
      dz2     :     0.147307  d :     0.675731
      dxz     :     0.180991
      dyz     :     0.159259
      dx2y2   :     0.090047
      dxy     :     0.098126
      f0      :     0.046560  f :     0.305448
      f+1     :     0.063997
      f-1     :     0.088536
      f+2     :     0.025087
      f-2     :     0.025559
      f+3     :     0.016208
      f-3     :     0.039501
  1 C s       :     2.443869  s :     2.443869
      pz      :     0.733043  p :     2.212142
      px      :     0.763450
      py      :     0.715650
      dz2     :     0.147307  d :     0.675731
      dxz     :     0.180991
      dyz     :     0.159259
      dx2y2   :     0.090047
      dxy     :     0.098126
      f0      :     0.046560  f :     0.305448
      f+1     :     0.063997
      f-1     :     0.088536
      f+2     :     0.025087
      f-2     :     0.025559
      f+3     :     0.016208
      f-3     :     0.039501
  2 C s       :     2.428363  s :     2.428363
      pz      :     0.687605  p :     2.207708
      px      :     0.768216
      py      :     0.751886
      dz2     :     0.139340  d :     0.913167
      dxz     :     0.085349
      dyz     :     0.222805
      dx2y2   :     0.262944
      dxy     :     0.202730
      f0      :     0.028420  f :     0.454112
      f+1     :     0.035316
      f-1     :     0.081528
      f+2     :     0.073449
      f-2     :     0.057465
      f+3     :     0.069952
      f-3     :     0.107981
  3 C s       :     2.490847  s :     2.490847
      pz      :     0.580045  p :     2.261950
      px      :     0.815718
      py      :     0.866187
      dz2     :     0.070148  d :     0.748859
      dxz     :     0.021397
      dyz     :     0.169876
      dx2y2   :     0.280802
      dxy     :     0.206635
      f0      :     0.022555  f :     0.315477
      f+1     :     0.018815
      f-1     :     0.029616
      f+2     :     0.022674
      f-2     :     0.036335
      f+3     :     0.051014
      f-3     :     0.134468
  4 C s       :     2.524592  s :     2.524592
      pz      :     0.624802  p :     2.326603
      px      :     0.831803
      py      :     0.869997
      dz2     :     0.048607  d :     0.454418
      dxz     :     0.014163
      dyz     :     0.048518
      dx2y2   :     0.189799
      dxy     :     0.153332
      f0      :     0.008497  f :     0.171323
      f+1     :     0.013986
      f-1     :     0.020616
      f+2     :     0.007553
      f-2     :     0.013804
      f+3     :     0.036609
      f-3     :     0.070257
  5 H s       :     0.656974  s :     0.656974
      pz      :     0.085449  p :     0.292636
      px      :     0.106160
      py      :     0.101027
      dz2     :     0.046109  d :     0.209687
      dxz     :     0.031728
      dyz     :     0.033668
      dx2y2   :     0.055431
      dxy     :     0.042752
  6 H s       :     0.651369  s :     0.651369
      pz      :     0.085079  p :     0.296594
      px      :     0.128486
      py      :     0.083029
      dz2     :     0.045991  d :     0.212574
      dxz     :     0.045507
      dyz     :     0.020747
      dx2y2   :     0.036230
      dxy     :     0.064097
  7 H s       :     0.651369  s :     0.651369
      pz      :     0.085079  p :     0.296594
      px      :     0.128486
      py      :     0.083029
      dz2     :     0.045991  d :     0.212574
      dxz     :     0.045507
      dyz     :     0.020747
      dx2y2   :     0.036230
      dxy     :     0.064097
  8 H s       :     0.656974  s :     0.656974
      pz      :     0.085449  p :     0.292636
      px      :     0.106160
      py      :     0.101027
      dz2     :     0.046109  d :     0.209687
      dxz     :     0.031728
      dyz     :     0.033668
      dx2y2   :     0.055431
      dxy     :     0.042752
  9 H s       :     0.640048  s :     0.640048
      pz      :     0.076778  p :     0.288462
      px      :     0.134163
      py      :     0.077522
      dz2     :     0.021663  d :     0.219202
      dxz     :     0.068304
      dyz     :     0.009169
      dx2y2   :     0.042946
      dxy     :     0.077120
 10 H s       :     0.658769  s :     0.658769
      pz      :     0.081357  p :     0.303858
      px      :     0.143005
      py      :     0.079496
      dz2     :     0.023409  d :     0.219595
      dxz     :     0.056835
      dyz     :     0.009092
      dx2y2   :     0.046855
      dxy     :     0.083404
 11 H s       :     0.684309  s :     0.684309
      pz      :     0.091130  p :     0.324422
      px      :     0.154029
      py      :     0.079263
      dz2     :     0.024115  d :     0.216049
      dxz     :     0.059134
      dyz     :     0.002978
      dx2y2   :     0.044664
      dxy     :     0.085157
 12 H s       :     0.691971  s :     0.691971
      pz      :     0.096214  p :     0.326451
      px      :     0.104664
      py      :     0.125573
      dz2     :     0.023650  d :     0.215398
      dxz     :     0.007182
      dyz     :     0.056022
      dx2y2   :     0.074675
      dxy     :     0.053868


                      *****************************
                      * MAYER POPULATION ANALYSIS *
                      *****************************

  NA   - Mulliken gross atomic population
  ZA   - Total nuclear charge
  QA   - Mulliken gross atomic charge
  VA   - Mayer's total valence
  BVA  - Mayer's bonded valence
  FA   - Mayer's free valence

  ATOM       NA         ZA         QA         VA         BVA        FA
  0 C      6.8660     6.0000    -0.8660     3.4818     3.4818     0.0000
  1 C      6.8660     6.0000    -0.8660     3.4818     3.4818    -0.0000
  2 C      5.5706     6.0000     0.4294     2.5188     2.5188     0.0000
  3 C      6.2788     6.0000    -0.2788     3.0723     3.0723    -0.0000
  4 C      7.1635     6.0000    -1.1635     3.2555     3.2555    -0.0000
  5 H      0.6344     1.0000     0.3656     0.8824     0.8824     0.0000
  6 H      0.6325     1.0000     0.3675     0.9216     0.9216     0.0000
  7 H      0.6325     1.0000     0.3675     0.9216     0.9216     0.0000
  8 H      0.6344     1.0000     0.3656     0.8824     0.8824    -0.0000
  9 H      0.7184     1.0000     0.2816     0.8670     0.8670     0.0000
 10 H      0.7127     1.0000     0.2873     1.0449     1.0449    -0.0000
 11 H      0.7561     1.0000     0.2439     1.1446     1.1446    -0.0000
 12 H      0.5342     1.0000     0.4658     0.7409     0.7409     0.0000

  Mayer bond orders larger than 0.100000
B(  0-C ,  1-C ) :   1.1592 B(  0-C ,  2-C ) :   0.5523 B(  0-C ,  5-H ) :   0.8332 
B(  0-C ,  6-H ) :   0.8394 B(  1-C ,  2-C ) :   0.5523 B(  1-C ,  7-H ) :   0.8394 
B(  1-C ,  8-H ) :   0.8332 B(  2-C ,  3-C ) :   0.5396 B(  2-C ,  9-H ) :   0.9819 
B(  3-C ,  4-C ) :   1.4615 B(  3-C ,  9-H ) :  -0.1080 B(  3-C , 10-H ) :   1.0088 
B(  4-C , 11-H ) :   1.1204 B(  4-C , 12-H ) :   0.7251 

-------
TIMINGS
-------

Total SCF time: 0 days 0 hours 1 min 42 sec 

Total time                  ....     102.777 sec
Sum of individual times     ....     102.060 sec  ( 99.3%)

Fock matrix formation       ....     101.154 sec  ( 98.4%)
Diagonalization             ....       0.281 sec  (  0.3%)
Density matrix formation    ....       0.016 sec  (  0.0%)
Population analysis         ....       0.043 sec  (  0.0%)
Initial guess               ....       0.153 sec  (  0.1%)
Orbital Transformation      ....       0.000 sec  (  0.0%)
Orbital Orthonormalization  ....       0.000 sec  (  0.0%)
DIIS solution               ....       0.136 sec  (  0.1%)
SOSCF solution              ....       0.226 sec  (  0.2%)

Maximum memory used throughout the entire SCF-calculation: 242.9 MB


           ************************************************************
           *        Program running with 16 parallel MPI-processes    *
           *              working on a common directory               *
           ************************************************************

------------------------------------------------------------------------------
                                ORCA  MP2 
------------------------------------------------------------------------------

Freezing NCore=10 chemical core electrons

-------------
RI-MP2 ENERGY
-------------
Dimension of the basis                    ...  414
Memory devoted to MP2                     ...  256 MB   
Data format for buffers                   ... DOUBLE
Compression type for matrix containers    ... UNCOMPRESSED
Overall scaling of the MP2 energy         ...   1.000e+00
Calculating two index integrals           ... done (    0.005 sec)
Cholesky decomposition of V**-1           ... done (    0.076 sec)

-----------------
RI-TRANSFORMATION (AUX index driven)
-----------------

Dimension of the orbital-basis         ... 414
Dimension of the aux-basis             ... 898
Transformation of internal/external MOs...    5-  18 to   19- 413
Number Format for Storage              ... Double (8 Byte)
Integral mode                          ... Direct

First Phase: integral generation and transformation of MO indices
  Aux angular momentum 0               ... done (    0.027 sec)
  Aux angular momentum 1               ... done (    0.035 sec)
  Aux angular momentum 2               ... done (    0.057 sec)
  Aux angular momentum 3               ... done (    0.062 sec)
  Aux angular momentum 4               ... done (    0.030 sec)
Closing buffer VIA ( 0.04 GB; CompressionRatio= 1.00)
  Phase 1 completed in     0.373 sec
Second Phase: sorting and transformation of aux index

IA-Transformation
Memory available                       ... 205 MB 
Max. # MO pairs treated in a batch     ... 1    
# of internal orbitals                 ... 14
# batches for internal orbitals        ... 1
Closing buffer IAV ( 0.04 GB; CompressionRatio= 1.00)
(ia|v) transformation done in     0.041 sec

  Phase 2 completed in     0.077 sec
RI-Integral transformation completed in     0.456 sec
Opening buffers                              ... done

Starting loop over batches of integrals:

Operator 0  - window                       ... (  5- 18)x( 19-413)
Operator 0  - Memory available             ...   256 MB
Operator 0  - Memory needed per MO         ...   2.7 MB
Operator 0  - Number of orbitals per batch ... 1
Operator 0  - Number of batches            ... 1

OPERATOR  0   PASS   0:  MOs     5 ...    5 +    6 ...    6 +    7 ...    7 +    8 ...    8
                            +    9 ...    9 +   10 ...   10 +   11 ...   11 +   12 ...   12
                            +   13 ...   13 +   14 ...   14 +   15 ...   15 +   16 ...   16
                            +   17 ...   17 +   18 ...   18
  Reading integrals       ... ok
Time spent in pair loops =     0.012 sec
Deleting buffer (Ka|jb)[aa] ...done

-----------------------------------------------
 RI-MP2 CORRELATION ENERGY:     -0.843687493 Eh
-----------------------------------------------


-------
TIMINGS
-------

Total time                :    0.687 sec
Integral trafo            :    0.462 sec ( 67.2%)
I/O of integrals          :    0.001 sec (  0.1%)
K(i,j) Operators          :    0.007 sec (  1.0%)
T(i,j) pair energies      :    0.001 sec (  0.2%)
V-calculation             :    0.005 sec (  0.7%)
V**(-1/2)                 :    0.076 sec ( 11.1%)
Gamma(ia|P)               :    0.000 sec (  0.0%)
Gamma-Trafo               :    0.000 sec (  0.0%)
D(virtual)                :    0.000 sec (  0.0%)
D(internal)               :    0.000 sec (  0.0%)
W(virtual)                :    0.000 sec (  0.0%)
W(internal)               :    0.000 sec (  0.0%)
L(virtual)                :    0.000 sec (  0.0%)
L(internal)               :    0.000 sec (  0.0%)
G(D)                      :    0.000 sec (  0.0%)
G(Z)                      :    0.000 sec (  0.0%)
Z-Vector Solution         :    0.000 sec (  0.0%)
3-Index Derivative        :    0.000 sec (  0.0%)
2-Index Derivative        :    0.000 sec (  0.0%)
Separable Gradient        :    0.000 sec (  0.0%)


---------------------------------------
MP2 TOTAL ENERGY:     -194.854273699 Eh
---------------------------------------

Maximum memory used throughout the entire MP2-calculation: 108.0 MB

-------------------------   --------------------
FINAL SINGLE POINT ENERGY      -194.854273698641
-------------------------   --------------------


                            ***************************************
                            *     ORCA property calculations      *
                            ***************************************


  WARNING: The energy has been calculated at the MP2 level but the densities
           used in the property calculations are still SCF densities
           MP2 response densities have not been calculated 
           use %mp2 Density relaxed end
           or  %mp2 Density unrelaxed end

                                    ---------------------
                                    Active property flags
                                    ---------------------
   (+) Dipole Moment


------------------------------------------------------------------------------
                       ORCA ELECTRIC PROPERTIES CALCULATION
------------------------------------------------------------------------------

Dipole Moment Calculation                       ... on
Quadrupole Moment Calculation                   ... off
Polarizability Calculation                      ... off
GBWName                                         ... TZ_ethenylcyclopropane.gbw
Electron density                                ... TZ_ethenylcyclopropane.scfp
The origin for moment calculation is the CENTER OF MASS  = ( 0.003151, -0.015027  0.000000)

-------------
DIPOLE MOMENT
-------------
                                X             Y             Z
Electronic contribution:      0.10977      -0.33983       0.00000
Nuclear contribution   :     -0.11977       0.57102       0.00000
                        -----------------------------------------
Total Dipole Moment    :     -0.01000       0.23119       0.00000
                        -----------------------------------------
Magnitude (a.u.)       :      0.23141
Magnitude (Debye)      :      0.58819



--------------------
Rotational spectrum 
--------------------
 
Rotational constants in cm-1:     0.509525     0.101832     0.097894 
Rotational constants in MHz : 15275.189038  3052.838927  2934.776601 

 Dipole components along the rotational axes: 
x,y,z [a.u.] :    -0.230689     0.000000     0.018198 
x,y,z [Debye]:    -0.586366     0.000000     0.046256 

 

Timings for individual modules:

Sum of individual times         ...      126.825 sec (=   2.114 min)
GTO integral calculation        ...       10.130 sec (=   0.169 min)   8.0 %
SCF iterations                  ...      109.665 sec (=   1.828 min)  86.5 %
MP2 module                      ...        7.030 sec (=   0.117 min)   5.5 %
                             ****ORCA TERMINATED NORMALLY****
TOTAL RUN TIME: 0 days 0 hours 2 minutes 24 seconds 732 msec
