
                                 *****************
                                 * O   R   C   A *
                                 *****************

                                            #,                                       
                                            ###                                      
                                            ####                                     
                                            #####                                    
                                            ######                                   
                                           ########,                                 
                                     ,,################,,,,,                         
                               ,,#################################,,                 
                          ,,##########################################,,             
                       ,#########################################, ''#####,          
                    ,#############################################,,   '####,        
                  ,##################################################,,,,####,       
                ,###########''''           ''''###############################       
              ,#####''   ,,,,##########,,,,          '''####'''          '####       
            ,##' ,,,,###########################,,,                        '##       
           ' ,,###''''                  '''############,,,                           
         ,,##''                                '''############,,,,        ,,,,,,###''
      ,#''                                            '''#######################'''  
     '                                                          ''''####''''         
             ,#######,   #######,   ,#######,      ##                                
            ,#'     '#,  ##    ##  ,#'     '#,    #''#        ######   ,####,        
            ##       ##  ##   ,#'  ##            #'  '#       #        #'  '#        
            ##       ##  #######   ##           ,######,      #####,   #    #        
            '#,     ,#'  ##    ##  '#,     ,#' ,#      #,         ##   #,  ,#        
             '#######'   ##     ##  '#######'  #'      '#     #####' # '####'        



                  #######################################################
                  #                        -***-                        #
                  #          Department of theory and spectroscopy      #
                  #    Directorship and core code : Frank Neese         #
                  #        Max Planck Institute fuer Kohlenforschung    #
                  #                Kaiser Wilhelm Platz 1               #
                  #                 D-45470 Muelheim/Ruhr               #
                  #                      Germany                        #
                  #                                                     #
                  #                  All rights reserved                #
                  #                        -***-                        #
                  #######################################################


                         Program Version 5.0.3 -  RELEASE  -


 With contributions from (in alphabetic order):
   Daniel Aravena         : Magnetic Suceptibility
   Michael Atanasov       : Ab Initio Ligand Field Theory (pilot matlab implementation)
   Alexander A. Auer      : GIAO ZORA, VPT2 properties, NMR spectrum
   Ute Becker             : Parallelization
   Giovanni Bistoni       : ED, misc. LED, open-shell LED, HFLD
   Martin Brehm           : Molecular dynamics
   Dmytro Bykov           : SCF Hessian
   Vijay G. Chilkuri      : MRCI spin determinant printing, contributions to CSF-ICE
   Dipayan Datta          : RHF DLPNO-CCSD density
   Achintya Kumar Dutta   : EOM-CC, STEOM-CC
   Dmitry Ganyushin       : Spin-Orbit,Spin-Spin,Magnetic field MRCI
   Miquel Garcia          : C-PCM and meta-GGA Hessian, CC/C-PCM, Gaussian charge scheme
   Yang Guo               : DLPNO-NEVPT2, F12-NEVPT2, CIM, IAO-localization
   Andreas Hansen         : Spin unrestricted coupled pair/coupled cluster methods
   Benjamin Helmich-Paris : MC-RPA, TRAH-SCF, COSX integrals
   Lee Huntington         : MR-EOM, pCC
   Robert Izsak           : Overlap fitted RIJCOSX, COSX-SCS-MP3, EOM
   Marcus Kettner         : VPT2
   Christian Kollmar      : KDIIS, OOCD, Brueckner-CCSD(T), CCSD density, CASPT2, CASPT2-K
   Simone Kossmann        : Meta GGA functionals, TD-DFT gradient, OOMP2, MP2 Hessian
   Martin Krupicka        : Initial AUTO-CI
   Lucas Lang             : DCDCAS
   Marvin Lechner         : AUTO-CI (C++ implementation), FIC-MRCC
   Dagmar Lenk            : GEPOL surface, SMD
   Dimitrios Liakos       : Extrapolation schemes; Compound Job, initial MDCI parallelization
   Dimitrios Manganas     : Further ROCIS development; embedding schemes
   Dimitrios Pantazis     : SARC Basis sets
   Anastasios Papadopoulos: AUTO-CI, single reference methods and gradients
   Taras Petrenko         : DFT Hessian,TD-DFT gradient, ASA, ECA, R-Raman, ABS, FL, XAS/XES, NRVS
   Peter Pinski           : DLPNO-MP2, DLPNO-MP2 Gradient
   Christoph Reimann      : Effective Core Potentials
   Marius Retegan         : Local ZFS, SOC
   Christoph Riplinger    : Optimizer, TS searches, QM/MM, DLPNO-CCSD(T), (RO)-DLPNO pert. Triples
   Tobias Risthaus        : Range-separated hybrids, TD-DFT gradient, RPA, STAB
   Michael Roemelt        : Original ROCIS implementation
   Masaaki Saitow         : Open-shell DLPNO-CCSD energy and density
   Barbara Sandhoefer     : DKH picture change effects
   Avijit Sen             : IP-ROCIS
   Kantharuban Sivalingam : CASSCF convergence, NEVPT2, FIC-MRCI
   Bernardo de Souza      : ESD, SOC TD-DFT
   Georgi Stoychev        : AutoAux, RI-MP2 NMR, DLPNO-MP2 response
   Willem Van den Heuvel  : Paramagnetic NMR
   Boris Wezisla          : Elementary symmetry handling
   Frank Wennmohs         : Technical directorship


 We gratefully acknowledge several colleagues who have allowed us to
 interface, adapt or use parts of their codes:
   Stefan Grimme, W. Hujo, H. Kruse, P. Pracht,  : VdW corrections, initial TS optimization,
                  C. Bannwarth, S. Ehlert          DFT functionals, gCP, sTDA/sTD-DF
   Ed Valeev, F. Pavosevic, A. Kumar             : LibInt (2-el integral package), F12 methods
   Garnet Chan, S. Sharma, J. Yang, R. Olivares  : DMRG
   Ulf Ekstrom                                   : XCFun DFT Library
   Mihaly Kallay                                 : mrcc  (arbitrary order and MRCC methods)
   Jiri Pittner, Ondrej Demel                    : Mk-CCSD
   Frank Weinhold                                : gennbo (NPA and NBO analysis)
   Christopher J. Cramer and Donald G. Truhlar   : smd solvation model
   Lars Goerigk                                  : TD-DFT with DH, B97 family of functionals
   V. Asgeirsson, H. Jonsson                     : NEB implementation
   FAccTs GmbH                                   : IRC, NEB, NEB-TS, DLPNO-Multilevel, CI-OPT
                                                   MM, QMMM, 2- and 3-layer-ONIOM, Crystal-QMMM,
                                                   LR-CPCM, SF, NACMEs, symmetry and pop. for TD-DFT,
                                                   nearIR, NL-DFT gradient (VV10), updates on ESD,
                                                   ML-optimized integration grids
   S Lehtola, MJT Oliveira, MAL Marques          : LibXC Library
   Liviu Ungur et al                             : ANISO software


 Your calculation uses the libint2 library for the computation of 2-el integrals
 For citations please refer to: http://libint.valeyev.net

 Your ORCA version has been built with support for libXC version: 5.1.0
 For citations please refer to: https://tddft.org/programs/libxc/

 This ORCA versions uses:
   CBLAS   interface :  Fast vector & matrix operations
   LAPACKE interface :  Fast linear algebra routines
   SCALAPACK package :  Parallel linear algebra routines
   Shared memory     :  Shared parallel matrices
   BLAS/LAPACK       :  OpenBLAS 0.3.15  USE64BITINT DYNAMIC_ARCH NO_AFFINITY SkylakeX SINGLE_THREADED
        Core in use  :  SkylakeX
   Copyright (c) 2011-2014, The OpenBLAS Project


================================================================================

----- Orbital basis set information -----
Your calculation utilizes the basis: aug-cc-pVTZ 
    H, B-Ne : Obtained from the ccRepo (grant-hill.group.shef.ac.uk/ccrepo) Feb. 2017
              R. A. Kendall, T. H. Dunning, Jr., R. J. Harrison, J. Chem. Phys. 96, 6796 (1992)
         He : Obtained from the ccRepo (grant-hill.group.shef.ac.uk/ccrepo) Feb. 2017
              D. E. Woon, T. H. Dunning, Jr., J. Chem. Phys. 100, 2975 (1994)
  Li-Be, Na : Obtained from the ccRepo (grant-hill.group.shef.ac.uk/ccrepo) Feb. 2017
              B. P. Prascher, D. E. Woon, K. A. Peterson, T. H. Dunning, Jr., A. K. Wilson, Theor. Chem. Acc. 128, 69 (2011)
         Mg : Obtained from the Peterson Research Group Website (tyr0.chem.wsu.edu/~kipeters) Feb. 2017
              B. P. Prascher, D. E. Woon, K. A. Peterson, T. H. Dunning, Jr., A. K. Wilson, Theor. Chem. Acc. 128, 69 (2011)
      Al-Ar : Obtained from the ccRepo (grant-hill.group.shef.ac.uk/ccrepo) Feb. 2017
              D. E. Woon, T. H. Dunning, Jr., J. Chem. Phys. 98, 1358 (1993)
      Sc-Zn : Obtained from the ccRepo (grant-hill.group.shef.ac.uk/ccrepo) Feb. 2017
              N. B. Balabanov, K. A. Peterson, J. Chem. Phys. 123, 064107 (2005)
              N. B. Balabanov, K. A. Peterson, J. Chem. Phys. 125, 074110 (2006)
      Ga-Kr : Obtained from the ccRepo (grant-hill.group.shef.ac.uk/ccrepo) Feb. 2017
              A. K. Wilson, D. E. Woon, K. A. Peterson, T. H. Dunning, Jr., J. Chem. Phys. 110, 7667 (1999)
     Ag, Au : Obtained from the Peterson Research Group Website (tyr0.chem.wsu.edu/~kipeters) Feb. 2017
              K. A. Peterson, C. Puzzarini, Theor. Chem. Acc. 114, 283 (2005)

----- AuxC basis set information -----
Your calculation utilizes the auxiliary basis: aug-cc-pVTZ/C 
  H-He, B-F, Al-Ar, Ga-Kr : Obtained from the EMSL Basis Set Exchange (bse.pnl.gov) Feb. 2017
                            F. Weigend, A. Kohn, C. Hattig, J. Chem. Phys. 116, 3175 (2002)
                   Be, Mg : Obtained from the TURBOMOLE 7.0 basis set library
                            C. Haettig, Phys. Chem. Chem. Phys. 7, 59 (2005)
                       Ne : Obtained from the EMSL Basis Set Exchange (bse.pnl.gov) Feb. 2017
                            C. Haettig, Phys. Chem. Chem. Phys. 7, 59 (2005)
                            F. Weigend, A. Kohn, C. Hattig, J. Chem. Phys. 116, 3175 (2002)
                    Sc-Zn : Obtained from the EMSL Basis Set Exchange (bse.pnl.gov) Feb. 2017
                            J. G. Hill, J. A. Platts, J. Chem. Phys. 128, 044104 (2008)

================================================================================
                                        WARNINGS
                       Please study these warnings very carefully!
================================================================================


WARNING: No MP2 level density has been requested!
         To caclulate MP2 level properties use
         %mp2 Density relaxed end
         or
         %mp2 Density unrelaxed end

WARNING: Post HF methods need fully converged wavefunctions
  ===> : Setting SCFConvForced true
         You can overwrite this default with %scf ConvForced false 


INFO   : the flag for use of the SHARK integral package has been found!

================================================================================
                                       INPUT FILE
================================================================================
NAME = TZ_methyl_hexanoate.inp
|  1> !ri-mp2 aug-cc-pvtz aug-cc-pvtz/c tightscf
|  2> %pal nprocs 16 end
|  3> %maxcore 3800
|  4> 
|  5> * xyz 0 1
|  6> C      1.488939    1.017839    0.000000
|  7> C     -3.766271   -2.671937    0.000000
|  8> C      3.138511    2.711319    0.000000
|  9> C      0.000000    0.760101    0.000000
| 10> C     -2.256886   -2.436231    0.000000
| 11> C     -0.365395   -0.720041    0.000000
| 12> C     -1.876026   -0.955711    0.000000
| 13> O      2.352499    0.176679    0.000000
| 14> O      1.749338    2.343823    0.000000
| 15> H     -4.235468   -2.228565    0.880789
| 16> H     -4.235468   -2.228565   -0.880789
| 17> H     -4.003230   -3.736674    0.000000
| 18> H      3.153724    3.796785    0.000000
| 19> H      3.636516    2.322018   -0.886207
| 20> H      3.636516    2.322018    0.886207
| 21> H     -0.422849    1.270771   -0.869472
| 22> H     -0.422849    1.270771    0.869472
| 23> H     -1.811861   -2.921057   -0.873831
| 24> H     -1.811861   -2.921057    0.873831
| 25> H      0.084585   -1.201251    0.871034
| 26> H      0.084585   -1.201251   -0.871034
| 27> H     -2.322130   -0.469995   -0.874710
| 28> H     -2.322130   -0.469995    0.874710
| 29> *
| 30> 
| 31>                          ****END OF INPUT****
================================================================================

                       ****************************
                       * Single Point Calculation *
                       ****************************

---------------------------------
CARTESIAN COORDINATES (ANGSTROEM)
---------------------------------
  C      1.488939    1.017839    0.000000
  C     -3.766271   -2.671937    0.000000
  C      3.138511    2.711319    0.000000
  C      0.000000    0.760101    0.000000
  C     -2.256886   -2.436231    0.000000
  C     -0.365395   -0.720041    0.000000
  C     -1.876026   -0.955711    0.000000
  O      2.352499    0.176679    0.000000
  O      1.749338    2.343823    0.000000
  H     -4.235468   -2.228565    0.880789
  H     -4.235468   -2.228565   -0.880789
  H     -4.003230   -3.736674    0.000000
  H      3.153724    3.796785    0.000000
  H      3.636516    2.322018   -0.886207
  H      3.636516    2.322018    0.886207
  H     -0.422849    1.270771   -0.869472
  H     -0.422849    1.270771    0.869472
  H     -1.811861   -2.921057   -0.873831
  H     -1.811861   -2.921057    0.873831
  H      0.084585   -1.201251    0.871034
  H      0.084585   -1.201251   -0.871034
  H     -2.322130   -0.469995   -0.874710
  H     -2.322130   -0.469995    0.874710

----------------------------
CARTESIAN COORDINATES (A.U.)
----------------------------
  NO LB      ZA    FRAG     MASS         X           Y           Z
   0 C     6.0000    0    12.011    2.813687    1.923437    0.000000
   1 C     6.0000    0    12.011   -7.117221   -5.049229    0.000000
   2 C     6.0000    0    12.011    5.930926    5.123650    0.000000
   3 C     6.0000    0    12.011    0.000000    1.436383    0.000000
   4 C     6.0000    0    12.011   -4.264896   -4.603809    0.000000
   5 C     6.0000    0    12.011   -0.690496   -1.360680    0.000000
   6 C     6.0000    0    12.011   -3.545175   -1.806032    0.000000
   7 O     8.0000    0    15.999    4.445579    0.333875    0.000000
   8 O     8.0000    0    15.999    3.305770    4.429184    0.000000
   9 H     1.0000    0     1.008   -8.003875   -4.211378    1.664450
  10 H     1.0000    0     1.008   -8.003875   -4.211378   -1.664450
  11 H     1.0000    0     1.008   -7.565008   -7.061291    0.000000
  12 H     1.0000    0     1.008    5.959675    7.174884    0.000000
  13 H     1.0000    0     1.008    6.872019    4.387978   -1.674689
  14 H     1.0000    0     1.008    6.872019    4.387978    1.674689
  15 H     1.0000    0     1.008   -0.799069    2.401409   -1.643064
  16 H     1.0000    0     1.008   -0.799069    2.401409    1.643064
  17 H     1.0000    0     1.008   -3.423921   -5.519998   -1.651301
  18 H     1.0000    0     1.008   -3.423921   -5.519998    1.651301
  19 H     1.0000    0     1.008    0.159842   -2.270035    1.646016
  20 H     1.0000    0     1.008    0.159842   -2.270035   -1.646016
  21 H     1.0000    0     1.008   -4.388190   -0.888162   -1.652962
  22 H     1.0000    0     1.008   -4.388190   -0.888162    1.652962

--------------------------------
INTERNAL COORDINATES (ANGSTROEM)
--------------------------------
 C      0   0   0     0.000000000000     0.00000000     0.00000000
 C      1   0   0     6.421189848796     0.00000000     0.00000000
 C      1   2   0     2.364098621797   169.32088700     0.00000000
 C      1   2   3     1.511081805319    25.25268884     0.00000000
 C      2   1   4     1.527678106363    26.19773098   180.00000000
 C      4   1   2     1.524576612109   113.68773735     0.00000000
 C      5   2   1     1.528722934347   113.30203583     0.00000000
 O      1   2   5     1.205523130927   100.67944994     0.00000000
 O      1   2   5     1.351310921830   136.18382766   180.00000000
 H      2   1   8     1.092022810070    96.79610462   125.68130542
 H      2   1   8     1.092022810070    96.79610462   234.31869458
 H      2   1   8     1.090786160001   137.62016685     0.00000000
 H      3   1   8     1.085572601223   136.55544361   180.00000000
 H      3   1   8     1.088543566181    93.61416585    54.66100634
 H      3   1   8     1.088543566181    93.61416585   305.33899366
 H      4   1   2     1.093419720183   107.54135206   236.50828506
 H      4   1   2     1.093419720183   107.54135206   123.49171494
 H      5   2   1     1.093930581647   109.48502988   237.92210199
 H      5   2   1     1.093930581647   109.48502988   122.07789801
 H      6   4   1     1.092128789867   109.20963952    57.62713037
 H      6   4   1     1.092128789867   109.20963952   302.37286963
 H      7   5   2     1.095466291390   109.14450023   302.30366564
 H      7   5   2     1.095466291390   109.14450023    57.69633436

---------------------------
INTERNAL COORDINATES (A.U.)
---------------------------
 C      0   0   0     0.000000000000     0.00000000     0.00000000
 C      1   0   0    12.134290268139     0.00000000     0.00000000
 C      1   2   0     4.467498948778   169.32088700     0.00000000
 C      1   2   3     2.855530778004    25.25268884     0.00000000
 C      2   1   4     2.886893241814    26.19773098   180.00000000
 C      4   1   2     2.881032267067   113.68773735     0.00000000
 C      5   2   1     2.888867680561   113.30203583     0.00000000
 O      1   2   5     2.278108565559   100.67944994     0.00000000
 O      1   2   5     2.553607564035   136.18382766   180.00000000
 H      2   1   8     2.063624043028    96.79610462   125.68130542
 H      2   1   8     2.063624043028    96.79610462   234.31869458
 H      2   1   8     2.061287113074   137.62016685     0.00000000
 H      3   1   8     2.051434914799   136.55544361   180.00000000
 H      3   1   8     2.057049224925    93.61416585    54.66100634
 H      3   1   8     2.057049224925    93.61416585   305.33899366
 H      4   1   2     2.066263820575   107.54135206   236.50828506
 H      4   1   2     2.066263820575   107.54135206   123.49171494
 H      5   2   1     2.067229208834   109.48502988   237.92210199
 H      5   2   1     2.067229208834   109.48502988   122.07789801
 H      6   4   1     2.063824315819   109.20963952    57.62713037
 H      6   4   1     2.063824315819   109.20963952   302.37286963
 H      7   5   2     2.070131279670   109.14450023   302.30366564
 H      7   5   2     2.070131279670   109.14450023    57.69633436

---------------------
BASIS SET INFORMATION
---------------------
There are 3 groups of distinct atoms

 Group   1 Type C   : 19s6p3d2f contracted to 5s4p3d2f pattern {88111/3111/111/11}
 Group   2 Type O   : 19s6p3d2f contracted to 5s4p3d2f pattern {88111/3111/111/11}
 Group   3 Type H   : 6s3p2d contracted to 4s3p2d pattern {3111/111/11}

Atom   0C    basis set group =>   1
Atom   1C    basis set group =>   1
Atom   2C    basis set group =>   1
Atom   3C    basis set group =>   1
Atom   4C    basis set group =>   1
Atom   5C    basis set group =>   1
Atom   6C    basis set group =>   1
Atom   7O    basis set group =>   2
Atom   8O    basis set group =>   2
Atom   9H    basis set group =>   3
Atom  10H    basis set group =>   3
Atom  11H    basis set group =>   3
Atom  12H    basis set group =>   3
Atom  13H    basis set group =>   3
Atom  14H    basis set group =>   3
Atom  15H    basis set group =>   3
Atom  16H    basis set group =>   3
Atom  17H    basis set group =>   3
Atom  18H    basis set group =>   3
Atom  19H    basis set group =>   3
Atom  20H    basis set group =>   3
Atom  21H    basis set group =>   3
Atom  22H    basis set group =>   3
---------------------------------
AUXILIARY/C BASIS SET INFORMATION
---------------------------------
There are 3 groups of distinct atoms

 Group   1 Type C   : 9s7p6d4f2g contracted to 9s7p6d4f2g pattern {111111111/1111111/111111/1111/11}
 Group   2 Type O   : 9s7p6d4f2g contracted to 9s7p6d4f2g pattern {111111111/1111111/111111/1111/11}
 Group   3 Type H   : 5s4p3d2f contracted to 5s4p3d2f pattern {11111/1111/111/11}

Atom   0C    basis set group =>   1
Atom   1C    basis set group =>   1
Atom   2C    basis set group =>   1
Atom   3C    basis set group =>   1
Atom   4C    basis set group =>   1
Atom   5C    basis set group =>   1
Atom   6C    basis set group =>   1
Atom   7O    basis set group =>   2
Atom   8O    basis set group =>   2
Atom   9H    basis set group =>   3
Atom  10H    basis set group =>   3
Atom  11H    basis set group =>   3
Atom  12H    basis set group =>   3
Atom  13H    basis set group =>   3
Atom  14H    basis set group =>   3
Atom  15H    basis set group =>   3
Atom  16H    basis set group =>   3
Atom  17H    basis set group =>   3
Atom  18H    basis set group =>   3
Atom  19H    basis set group =>   3
Atom  20H    basis set group =>   3
Atom  21H    basis set group =>   3
Atom  22H    basis set group =>   3


           ************************************************************
           *        Program running with 16 parallel MPI-processes    *
           *              working on a common directory               *
           ************************************************************
------------------------------------------------------------------------------
                           ORCA GTO INTEGRAL CALCULATION
------------------------------------------------------------------------------
------------------------------------------------------------------------------
                   ___                                                        
                  /   \      - P O W E R E D   B Y -                         
                 /     \                                                     
                 |  |  |   _    _      __       _____    __    __             
                 |  |  |  | |  | |    /  \     |  _  \  |  |  /  |          
                  \  \/   | |  | |   /    \    | | | |  |  | /  /          
                 / \  \   | |__| |  /  /\  \   | |_| |  |  |/  /          
                |  |  |   |  __  | /  /__\  \  |    /   |      \           
                |  |  |   | |  | | |   __   |  |    \   |  |\   \          
                \     /   | |  | | |  |  |  |  | |\  \  |  | \   \       
                 \___/    |_|  |_| |__|  |__|  |_| \__\ |__|  \__/        
                                                                              
                      - O R C A' S   B I G   F R I E N D -                    
                                      &                                       
                       - I N T E G R A L  F E E D E R -                       
                                                                              
 v1 FN, 2020, v2 2021                                                         
------------------------------------------------------------------------------


Reading SHARK input file TZ_methyl_hexanoate.SHARKINP.tmp ... ok
----------------------
SHARK INTEGRAL PACKAGE
----------------------

Number of atoms                             ...     23
Number of basis functions                   ...    790
Number of shells                            ...    306
Maximum angular momentum                    ...      3
Integral batch strategy                     ... SHARK/LIBINT Hybrid
RI-J (if used) integral strategy            ... SPLIT-RIJ (Revised 2003 algorithm where possible)
Printlevel                                  ...      1
Contraction scheme used                     ... PARTIAL GENERAL contraction
Coulomb Range Separation                    ... NOT USED
Exchange Range Separation                   ... NOT USED
Finite Nucleus Model                        ... NOT USED
Auxiliary Coulomb fitting basis             ... NOT available
Auxiliary J/K fitting basis                 ... NOT available
Auxiliary Correlation fitting basis         ... AVAILABLE
   # of basis functions in Aux-C            ...   1598
   # of shells in Aux-C                     ...    448
   Maximum angular momentum in Aux-C        ...      4
Auxiliary 'external' fitting basis          ... NOT available
Integral threshold                          ...     2.500000e-11
Primitive cut-off                           ...     2.500000e-12
Primitive pair pre-selection threshold      ...     2.500000e-12

Calculating pre-screening integrals         ... done (  0.0 sec) Dimension = 306
Calculating pre-screening integrals (ORCA)  ... done (  0.1 sec) Dimension = 252
Organizing shell pair data                  ... done (  0.4 sec)
Shell pair information
Total number of shell pairs                 ...     46971
Shell pairs after pre-screening             ...     37142
Total number of primitive shell pairs       ...     62197
Primitive shell pairs kept                  ...     45005
          la=0 lb=0:   8480 shell pairs
          la=1 lb=0:   9812 shell pairs
          la=1 lb=1:   2721 shell pairs
          la=2 lb=0:   6706 shell pairs
          la=2 lb=1:   3686 shell pairs
          la=2 lb=2:   1285 shell pairs
          la=3 lb=0:   2226 shell pairs
          la=3 lb=1:   1228 shell pairs
          la=3 lb=2:    846 shell pairs
          la=3 lb=3:    152 shell pairs

Calculating one electron integrals          ... done (  0.1 sec)
Calculating RI/C V-Matrix + Cholesky decomp.... done (  0.1 sec)
Calculating Nuclear repulsion               ... done (  0.0 sec) ENN=    449.548385722082 Eh

SHARK setup successfully completed in   1.3 seconds

Maximum memory used throughout the entire GTOINT-calculation: 48.6 MB


           ************************************************************
           *        Program running with 16 parallel MPI-processes    *
           *              working on a common directory               *
           ************************************************************
-------------------------------------------------------------------------------
                                 ORCA SCF
-------------------------------------------------------------------------------

------------
SCF SETTINGS
------------
Hamiltonian:
 Ab initio Hamiltonian  Method          .... Hartree-Fock(GTOs)


General Settings:
 Integral files         IntName         .... TZ_methyl_hexanoate
 Hartree-Fock type      HFTyp           .... RHF
 Total Charge           Charge          ....    0
 Multiplicity           Mult            ....    1
 Number of Electrons    NEL             ....   72
 Basis Dimension        Dim             ....  736
 Nuclear Repulsion      ENuc            ....    449.5483857221 Eh

Convergence Acceleration:
 DIIS                   CNVDIIS         .... on
   Start iteration      DIISMaxIt       ....    12
   Startup error        DIISStart       ....  0.200000
   # of expansion vecs  DIISMaxEq       ....     5
   Bias factor          DIISBfac        ....   1.050
   Max. coefficient     DIISMaxC        ....  10.000
 Trust-Rad. Augm. Hess. CNVTRAH         .... auto
   Auto Start mean grad. ratio tolernc. ....  1.125000
   Auto Start start iteration           ....    20
   Auto Start num. interpolation iter.  ....    10
   Max. Number of Micro iterations      ....    16
   Max. Number of Macro iterations      .... Maxiter - #DIIS iter
   Number of Davidson start vectors     ....     2
   Converg. threshold I  (grad. norm)   ....   1.000e-05
   Converg. threshold II (energy diff.) ....   1.000e-08
   Grad. Scal. Fac. for Micro threshold ....   0.100
   Minimum threshold for Micro iter.    ....   0.010
   NR start threshold (gradient norm)   ....   0.001
   Initial trust radius                 ....   0.400
   Minimum AH scaling param. (alpha)    ....   1.000
   Maximum AH scaling param. (alpha)    .... 1000.000
   Orbital update algorithm             .... Taylor
   White noise on init. David. guess    .... on
   Maximum white noise                  ....   0.010
   Quad. conv. algorithm                .... NR
 SOSCF                  CNVSOSCF        .... on
   Start iteration      SOSCFMaxIt      ....   150
   Startup grad/error   SOSCFStart      ....  0.003300
 Level Shifting         CNVShift        .... on
   Level shift para.    LevelShift      ....    0.2500
   Turn off err/grad.   ShiftErr        ....    0.0010
 Zerner damping         CNVZerner       .... off
 Static damping         CNVDamp         .... on
   Fraction old density DampFac         ....    0.7000
   Max. Damping (<1)    DampMax         ....    0.9800
   Min. Damping (>=0)   DampMin         ....    0.0000
   Turn off err/grad.   DampErr         ....    0.1000
 Fernandez-Rico         CNVRico         .... off

SCF Procedure:
 Maximum # iterations   MaxIter         ....   125
 SCF integral mode      SCFMode         .... Direct
   Integral package                     .... SHARK and LIBINT hybrid scheme
 Reset frequency        DirectResetFreq ....    20
 Integral Threshold     Thresh          ....  2.500e-11 Eh
 Primitive CutOff       TCut            ....  2.500e-12 Eh

Convergence Tolerance:
 Convergence Check Mode ConvCheckMode   .... Total+1el-Energy
 Convergence forced     ConvForced      .... 1
 Energy Change          TolE            ....  1.000e-08 Eh
 1-El. energy change                    ....  1.000e-05 Eh
 Orbital Gradient       TolG            ....  1.000e-05
 Orbital Rotation angle TolX            ....  1.000e-05
 DIIS Error             TolErr          ....  5.000e-07


Diagonalization of the overlap matrix:
Smallest eigenvalue                        ... 2.386e-06
Time for diagonalization                   ...    0.107 sec
Threshold for overlap eigenvalues          ... 1.000e-08
Number of eigenvalues below threshold      ... 0
Time for construction of square roots      ...    0.074 sec
Total time needed                          ...    0.184 sec

Time for model grid setup =    0.122 sec

------------------------------
INITIAL GUESS: MODEL POTENTIAL
------------------------------
Loading Hartree-Fock densities                     ... done
Calculating cut-offs                               ... done
Initializing the effective Hamiltonian             ... done
Setting up the integral package (SHARK)            ... done
Starting the Coulomb interaction                   ... done (   0.2 sec)
Reading the grid                                   ... done
Mapping shells                                     ... done
Starting the XC term evaluation                    ... done (   0.1 sec)
Transforming the Hamiltonian                       ... done (   0.1 sec)
Diagonalizing the Hamiltonian                      ... done (   0.1 sec)
Back transforming the eigenvectors                 ... done (   0.0 sec)
Now organizing SCF variables                       ... done
                      ------------------
                      INITIAL GUESS DONE (   0.7 sec)
                      ------------------
--------------
SCF ITERATIONS
--------------
ITER       Energy         Delta-E        Max-DP      RMS-DP      [F,P]     Damp
               ***  Starting incremental Fock matrix formation  ***
  0   -422.6501128473   0.000000000000 0.08043985  0.00058253  0.3291986 0.7000
  1   -422.8183163910  -0.168203543709 0.05643883  0.00045724  0.1993894 0.7000
                               ***Turning on DIIS***
  2   -422.9198944683  -0.101578077290 0.03914531  0.00033903  0.1133988 0.7000
  3   -423.9730001074  -1.053105639046 0.09087938  0.00092954  0.0827114 0.0000
  4   -423.0218976564   0.951102450952 0.01974415  0.00013806  0.0085224 0.0000
  5   -423.1195901850  -0.097692528613 0.00534990  0.00005271  0.0047552 0.0000
  6   -423.1236958704  -0.004105685329 0.00180851  0.00001700  0.0038263 0.0000
                      *** Initiating the SOSCF procedure ***
                           *** Shutting down DIIS ***
                      *** Re-Reading the Fockian *** 
                      *** Removing any level shift *** 
ITER      Energy       Delta-E        Grad      Rot      Max-DP    RMS-DP
  7   -423.13089158  -0.0071957109  0.000682  0.000682  0.000524  0.000007
               *** Restarting incremental Fock matrix formation ***
  8   -423.13262254  -0.0017309615  0.000379  0.000593  0.000327  0.000004
  9   -423.13262550  -0.0000029601  0.000165  0.000609  0.000339  0.000004
 10   -423.13262662  -0.0000011137  0.000035  0.000056  0.000083  0.000001
 11   -423.13262671  -0.0000000888  0.000025  0.000038  0.000038  0.000000
 12   -423.13262672  -0.0000000190  0.000006  0.000009  0.000024  0.000000
                  ***Gradient check signals convergence***
              ***Rediagonalizing the Fockian in SOSCF/NRSCF***

               *****************************************************
               *                     SUCCESS                       *
               *           SCF CONVERGED AFTER  13 CYCLES          *
               *****************************************************


----------------
TOTAL SCF ENERGY
----------------

Total Energy       :         -423.13262676 Eh          -11514.02414 eV

Components:
Nuclear Repulsion  :          449.54838572 Eh           12232.83348 eV
Electronic Energy  :         -872.68101248 Eh          -23746.85762 eV
One Electron Energy:        -1467.14619328 Eh          -39923.07757 eV
Two Electron Energy:          594.46518080 Eh           16176.21995 eV

Virial components:
Potential Energy   :         -845.65867418 Eh          -23011.54241 eV
Kinetic Energy     :          422.52604742 Eh           11497.51827 eV
Virial Ratio       :            2.00143560


---------------
SCF CONVERGENCE
---------------

  Last Energy change         ...   -3.1071e-08  Tolerance :   1.0000e-08
  Last MAX-Density change    ...    9.2472e-05  Tolerance :   1.0000e-07
  Last RMS-Density change    ...    6.5465e-07  Tolerance :   5.0000e-09
  Last Orbital Gradient      ...    1.4064e-06  Tolerance :   1.0000e-05
  Last Orbital Rotation      ...    2.9332e-06  Tolerance :   1.0000e-05

             **** THE GBW FILE WAS UPDATED (TZ_methyl_hexanoate.gbw) ****
             **** DENSITY TZ_methyl_hexanoate.scfp WAS UPDATED ****
             **** ENERGY FILE WAS UPDATED (TZ_methyl_hexanoate.en.tmp) ****
             **** THE GBW FILE WAS UPDATED (TZ_methyl_hexanoate.gbw) ****
             **** DENSITY TZ_methyl_hexanoate.scfp WAS UPDATED ****
----------------
ORBITAL ENERGIES
----------------

  NO   OCC          E(Eh)            E(eV) 
   0   2.0000     -20.600330      -560.5635 
   1   2.0000     -20.542150      -558.9803 
   2   2.0000     -11.375246      -309.5362 
   3   2.0000     -11.283490      -307.0394 
   4   2.0000     -11.240661      -305.8739 
   5   2.0000     -11.221798      -305.3606 
   6   2.0000     -11.220025      -305.3124 
   7   2.0000     -11.218389      -305.2679 
   8   2.0000     -11.211755      -305.0874 
   9   2.0000      -1.456257       -39.6268 
  10   2.0000      -1.356257       -36.9056 
  11   2.0000      -1.093464       -29.7547 
  12   2.0000      -1.042967       -28.3806 
  13   2.0000      -0.981938       -26.7199 
  14   2.0000      -0.930675       -25.3250 
  15   2.0000      -0.843696       -22.9581 
  16   2.0000      -0.793824       -21.6010 
  17   2.0000      -0.765345       -20.8261 
  18   2.0000      -0.695673       -18.9302 
  19   2.0000      -0.678985       -18.4761 
  20   2.0000      -0.669472       -18.2173 
  21   2.0000      -0.649852       -17.6834 
  22   2.0000      -0.607765       -16.5381 
  23   2.0000      -0.598494       -16.2858 
  24   2.0000      -0.572311       -15.5734 
  25   2.0000      -0.559230       -15.2174 
  26   2.0000      -0.555361       -15.1121 
  27   2.0000      -0.527309       -14.3488 
  28   2.0000      -0.519733       -14.1427 
  29   2.0000      -0.508191       -13.8286 
  30   2.0000      -0.483729       -13.1629 
  31   2.0000      -0.470735       -12.8093 
  32   2.0000      -0.466487       -12.6938 
  33   2.0000      -0.465189       -12.6584 
  34   2.0000      -0.459528       -12.5044 
  35   2.0000      -0.441622       -12.0172 
  36   0.0000       0.028832         0.7846 
  37   0.0000       0.030910         0.8411 
  38   0.0000       0.037550         1.0218 
  39   0.0000       0.037693         1.0257 
  40   0.0000       0.044566         1.2127 
  41   0.0000       0.048724         1.3258 
  42   0.0000       0.049968         1.3597 
  43   0.0000       0.057299         1.5592 
  44   0.0000       0.061198         1.6653 
  45   0.0000       0.065989         1.7956 
  46   0.0000       0.067789         1.8446 
  47   0.0000       0.081251         2.2109 
  48   0.0000       0.087152         2.3715 
  49   0.0000       0.090824         2.4714 
  50   0.0000       0.093689         2.5494 
  51   0.0000       0.103647         2.8204 
  52   0.0000       0.110436         3.0051 
  53   0.0000       0.115509         3.1432 
  54   0.0000       0.119981         3.2648 
  55   0.0000       0.127867         3.4794 
  56   0.0000       0.128556         3.4982 
  57   0.0000       0.132463         3.6045 
  58   0.0000       0.135844         3.6965 
  59   0.0000       0.136596         3.7170 
  60   0.0000       0.146737         3.9929 
  61   0.0000       0.148991         4.0543 
  62   0.0000       0.153221         4.1694 
  63   0.0000       0.156360         4.2548 
  64   0.0000       0.158280         4.3070 
  65   0.0000       0.162942         4.4339 
  66   0.0000       0.167020         4.5448 
  67   0.0000       0.169553         4.6138 
  68   0.0000       0.179487         4.8841 
  69   0.0000       0.184089         5.0093 
  70   0.0000       0.192622         5.2415 
  71   0.0000       0.195090         5.3087 
  72   0.0000       0.196108         5.3364 
  73   0.0000       0.198490         5.4012 
  74   0.0000       0.216394         5.8884 
  75   0.0000       0.219450         5.9715 
  76   0.0000       0.226452         6.1621 
  77   0.0000       0.227173         6.1817 
  78   0.0000       0.230314         6.2672 
  79   0.0000       0.241271         6.5653 
  80   0.0000       0.245911         6.6916 
  81   0.0000       0.249349         6.7851 
  82   0.0000       0.252630         6.8744 
  83   0.0000       0.256186         6.9712 
  84   0.0000       0.262314         7.1379 
  85   0.0000       0.265790         7.2325 
  86   0.0000       0.277394         7.5483 
  87   0.0000       0.285105         7.7581 
  88   0.0000       0.287163         7.8141 
  89   0.0000       0.297781         8.1030 
  90   0.0000       0.299224         8.1423 
  91   0.0000       0.302615         8.2346 
  92   0.0000       0.309594         8.4245 
  93   0.0000       0.311701         8.4818 
  94   0.0000       0.319385         8.6909 
  95   0.0000       0.322663         8.7801 
  96   0.0000       0.325662         8.8617 
  97   0.0000       0.329807         8.9745 
  98   0.0000       0.335560         9.1311 
  99   0.0000       0.339608         9.2412 
 100   0.0000       0.347060         9.4440 
 101   0.0000       0.351456         9.5636 
 102   0.0000       0.352584         9.5943 
 103   0.0000       0.356003         9.6873 
 104   0.0000       0.363909         9.9025 
 105   0.0000       0.366895         9.9837 
 106   0.0000       0.371599        10.1117 
 107   0.0000       0.372713        10.1420 
 108   0.0000       0.374743        10.1973 
 109   0.0000       0.380357        10.3500 
 110   0.0000       0.382182        10.3997 
 111   0.0000       0.385073        10.4784 
 112   0.0000       0.391597        10.6559 
 113   0.0000       0.393532        10.7086 
 114   0.0000       0.394328        10.7302 
 115   0.0000       0.399686        10.8760 
 116   0.0000       0.402947        10.9648 
 117   0.0000       0.408868        11.1259 
 118   0.0000       0.410375        11.1669 
 119   0.0000       0.414709        11.2848 
 120   0.0000       0.423630        11.5275 
 121   0.0000       0.428418        11.6578 
 122   0.0000       0.428604        11.6629 
 123   0.0000       0.432102        11.7581 
 124   0.0000       0.434837        11.8325 
 125   0.0000       0.437413        11.9026 
 126   0.0000       0.445441        12.1211 
 127   0.0000       0.449614        12.2346 
 128   0.0000       0.449848        12.2410 
 129   0.0000       0.456514        12.4224 
 130   0.0000       0.460812        12.5393 
 131   0.0000       0.461423        12.5560 
 132   0.0000       0.464865        12.6496 
 133   0.0000       0.465432        12.6651 
 134   0.0000       0.473442        12.8830 
 135   0.0000       0.478680        13.0255 
 136   0.0000       0.486475        13.2377 
 137   0.0000       0.488040        13.2802 
 138   0.0000       0.489062        13.3081 
 139   0.0000       0.496159        13.5012 
 140   0.0000       0.501339        13.6421 
 141   0.0000       0.507367        13.8061 
 142   0.0000       0.513753        13.9799 
 143   0.0000       0.514241        13.9932 
 144   0.0000       0.519911        14.1475 
 145   0.0000       0.525756        14.3065 
 146   0.0000       0.527189        14.3455 
 147   0.0000       0.532923        14.5016 
 148   0.0000       0.536545        14.6001 
 149   0.0000       0.540669        14.7124 
 150   0.0000       0.543021        14.7764 
 151   0.0000       0.547364        14.8945 
 152   0.0000       0.548336        14.9210 
 153   0.0000       0.557550        15.1717 
 154   0.0000       0.562176        15.2976 
 155   0.0000       0.565053        15.3759 
 156   0.0000       0.567952        15.4547 
 157   0.0000       0.577457        15.7134 
 158   0.0000       0.578159        15.7325 
 159   0.0000       0.586462        15.9585 
 160   0.0000       0.594357        16.1733 
 161   0.0000       0.600128        16.3303 
 162   0.0000       0.606299        16.4982 
 163   0.0000       0.613654        16.6984 
 164   0.0000       0.614978        16.7344 
 165   0.0000       0.624604        16.9963 
 166   0.0000       0.629049        17.1173 
 167   0.0000       0.638982        17.3876 
 168   0.0000       0.640177        17.4201 
 169   0.0000       0.645775        17.5724 
 170   0.0000       0.655814        17.8456 
 171   0.0000       0.670760        18.2523 
 172   0.0000       0.675965        18.3940 
 173   0.0000       0.678180        18.4542 
 174   0.0000       0.688018        18.7219 
 175   0.0000       0.694710        18.9040 
 176   0.0000       0.702731        19.1223 
 177   0.0000       0.721804        19.6413 
 178   0.0000       0.722857        19.6699 
 179   0.0000       0.724265        19.7083 
 180   0.0000       0.735516        20.0144 
 181   0.0000       0.737316        20.0634 
 182   0.0000       0.754203        20.5229 
 183   0.0000       0.757819        20.6213 
 184   0.0000       0.763807        20.7843 
 185   0.0000       0.779027        21.1984 
 186   0.0000       0.782646        21.2969 
 187   0.0000       0.800381        21.7795 
 188   0.0000       0.800606        21.7856 
 189   0.0000       0.809678        22.0324 
 190   0.0000       0.826930        22.5019 
 191   0.0000       0.829879        22.5822 
 192   0.0000       0.833004        22.6672 
 193   0.0000       0.837301        22.7841 
 194   0.0000       0.839055        22.8319 
 195   0.0000       0.844304        22.9747 
 196   0.0000       0.844350        22.9759 
 197   0.0000       0.850595        23.1459 
 198   0.0000       0.852752        23.2046 
 199   0.0000       0.862528        23.4706 
 200   0.0000       0.867408        23.6034 
 201   0.0000       0.870301        23.6821 
 202   0.0000       0.879119        23.9220 
 203   0.0000       0.882604        24.0169 
 204   0.0000       0.886482        24.1224 
 205   0.0000       0.889094        24.1935 
 206   0.0000       0.891770        24.2663 
 207   0.0000       0.906355        24.6632 
 208   0.0000       0.907561        24.6960 
 209   0.0000       0.911036        24.7906 
 210   0.0000       0.914112        24.8742 
 211   0.0000       0.916880        24.9496 
 212   0.0000       0.924818        25.1656 
 213   0.0000       0.926221        25.2037 
 214   0.0000       0.931008        25.3340 
 215   0.0000       0.931923        25.3589 
 216   0.0000       0.941355        25.6156 
 217   0.0000       0.944511        25.7014 
 218   0.0000       0.950519        25.8649 
 219   0.0000       0.952518        25.9193 
 220   0.0000       0.963417        26.2159 
 221   0.0000       0.969067        26.3697 
 222   0.0000       0.975754        26.5516 
 223   0.0000       0.977919        26.6105 
 224   0.0000       0.981485        26.7076 
 225   0.0000       0.985177        26.8080 
 226   0.0000       0.992184        26.9987 
 227   0.0000       0.994446        27.0603 
 228   0.0000       0.997206        27.1354 
 229   0.0000       1.003912        27.3178 
 230   0.0000       1.011985        27.5375 
 231   0.0000       1.014577        27.6081 
 232   0.0000       1.018502        27.7149 
 233   0.0000       1.024453        27.8768 
 234   0.0000       1.032159        28.0865 
 235   0.0000       1.040505        28.3136 
 236   0.0000       1.055345        28.7174 
 237   0.0000       1.061815        28.8934 
 238   0.0000       1.065148        28.9842 
 239   0.0000       1.069113        29.0920 
 240   0.0000       1.075261        29.2593 
 241   0.0000       1.089910        29.6579 
 242   0.0000       1.102552        30.0020 
 243   0.0000       1.102876        30.0108 
 244   0.0000       1.107558        30.1382 
 245   0.0000       1.116395        30.3786 
 246   0.0000       1.118383        30.4328 
 247   0.0000       1.123510        30.5723 
 248   0.0000       1.124706        30.6048 
 249   0.0000       1.131192        30.7813 
 250   0.0000       1.135878        30.9088 
 251   0.0000       1.145685        31.1757 
 252   0.0000       1.145817        31.1793 
 253   0.0000       1.151250        31.3271 
 254   0.0000       1.156797        31.4780 
 255   0.0000       1.157287        31.4914 
 256   0.0000       1.164572        31.6896 
 257   0.0000       1.169499        31.8237 
 258   0.0000       1.173044        31.9202 
 259   0.0000       1.174768        31.9671 
 260   0.0000       1.184921        32.2433 
 261   0.0000       1.187478        32.3129 
 262   0.0000       1.192171        32.4406 
 263   0.0000       1.203282        32.7430 
 264   0.0000       1.204818        32.7848 
 265   0.0000       1.215606        33.0783 
 266   0.0000       1.216834        33.1117 
 267   0.0000       1.225191        33.3391 
 268   0.0000       1.225821        33.3563 
 269   0.0000       1.233479        33.5647 
 270   0.0000       1.233975        33.5782 
 271   0.0000       1.249489        34.0003 
 272   0.0000       1.250579        34.0300 
 273   0.0000       1.253540        34.1106 
 274   0.0000       1.269566        34.5466 
 275   0.0000       1.275421        34.7060 
 276   0.0000       1.277901        34.7735 
 277   0.0000       1.286297        35.0019 
 278   0.0000       1.290813        35.1248 
 279   0.0000       1.293858        35.2077 
 280   0.0000       1.305625        35.5278 
 281   0.0000       1.313996        35.7557 
 282   0.0000       1.318142        35.8685 
 283   0.0000       1.321783        35.9675 
 284   0.0000       1.326253        36.0892 
 285   0.0000       1.331948        36.2441 
 286   0.0000       1.333266        36.2800 
 287   0.0000       1.355529        36.8858 
 288   0.0000       1.356981        36.9253 
 289   0.0000       1.366197        37.1761 
 290   0.0000       1.379620        37.5414 
 291   0.0000       1.402590        38.1664 
 292   0.0000       1.405860        38.2554 
 293   0.0000       1.418866        38.6093 
 294   0.0000       1.424142        38.7529 
 295   0.0000       1.436306        39.0839 
 296   0.0000       1.439773        39.1782 
 297   0.0000       1.444180        39.2981 
 298   0.0000       1.448920        39.4271 
 299   0.0000       1.460312        39.7371 
 300   0.0000       1.469197        39.9789 
 301   0.0000       1.489216        40.5236 
 302   0.0000       1.492013        40.5997 
 303   0.0000       1.502402        40.8824 
 304   0.0000       1.507955        41.0336 
 305   0.0000       1.515030        41.2261 
 306   0.0000       1.535018        41.7700 
 307   0.0000       1.542601        41.9763 
 308   0.0000       1.545980        42.0683 
 309   0.0000       1.549150        42.1545 
 310   0.0000       1.557798        42.3898 
 311   0.0000       1.560505        42.4635 
 312   0.0000       1.570563        42.7372 
 313   0.0000       1.573556        42.8186 
 314   0.0000       1.581913        43.0460 
 315   0.0000       1.586046        43.1585 
 316   0.0000       1.588448        43.2239 
 317   0.0000       1.606412        43.7127 
 318   0.0000       1.616361        43.9834 
 319   0.0000       1.618808        44.0500 
 320   0.0000       1.628863        44.3236 
 321   0.0000       1.629293        44.3353 
 322   0.0000       1.637148        44.5491 
 323   0.0000       1.641860        44.6773 
 324   0.0000       1.649819        44.8939 
 325   0.0000       1.651107        44.9289 
 326   0.0000       1.666249        45.3409 
 327   0.0000       1.670721        45.4626 
 328   0.0000       1.672275        45.5049 
 329   0.0000       1.679499        45.7015 
 330   0.0000       1.687818        45.9279 
 331   0.0000       1.689152        45.9642 
 332   0.0000       1.697572        46.1933 
 333   0.0000       1.698543        46.2197 
 334   0.0000       1.699779        46.2533 
 335   0.0000       1.713312        46.6216 
 336   0.0000       1.721842        46.8537 
 337   0.0000       1.722420        46.8694 
 338   0.0000       1.741263        47.3822 
 339   0.0000       1.743368        47.4394 
 340   0.0000       1.745337        47.4930 
 341   0.0000       1.755325        47.7648 
 342   0.0000       1.759713        47.8842 
 343   0.0000       1.767655        48.1004 
 344   0.0000       1.768522        48.1239 
 345   0.0000       1.776838        48.3502 
 346   0.0000       1.777353        48.3642 
 347   0.0000       1.784305        48.5534 
 348   0.0000       1.784484        48.5583 
 349   0.0000       1.792856        48.7861 
 350   0.0000       1.803994        49.0892 
 351   0.0000       1.808165        49.2027 
 352   0.0000       1.814127        49.3649 
 353   0.0000       1.814556        49.3766 
 354   0.0000       1.828482        49.7555 
 355   0.0000       1.828722        49.7621 
 356   0.0000       1.834292        49.9136 
 357   0.0000       1.854683        50.4685 
 358   0.0000       1.857161        50.5359 
 359   0.0000       1.870296        50.8933 
 360   0.0000       1.881304        51.1929 
 361   0.0000       1.887446        51.3600 
 362   0.0000       1.894137        51.5421 
 363   0.0000       1.902723        51.7757 
 364   0.0000       1.921953        52.2990 
 365   0.0000       1.925393        52.3926 
 366   0.0000       1.929524        52.5050 
 367   0.0000       1.935547        52.6689 
 368   0.0000       1.942796        52.8662 
 369   0.0000       1.945436        52.9380 
 370   0.0000       1.947991        53.0075 
 371   0.0000       1.953888        53.1680 
 372   0.0000       1.975164        53.7470 
 373   0.0000       1.977950        53.8228 
 374   0.0000       1.992349        54.2146 
 375   0.0000       2.003956        54.5304 
 376   0.0000       2.010251        54.7017 
 377   0.0000       2.014726        54.8235 
 378   0.0000       2.021363        55.0041 
 379   0.0000       2.026299        55.1384 
 380   0.0000       2.028592        55.2008 
 381   0.0000       2.045602        55.6637 
 382   0.0000       2.054075        55.8942 
 383   0.0000       2.073245        56.4159 
 384   0.0000       2.080936        56.6252 
 385   0.0000       2.082874        56.6779 
 386   0.0000       2.103219        57.2315 
 387   0.0000       2.103242        57.2321 
 388   0.0000       2.109244        57.3955 
 389   0.0000       2.125667        57.8423 
 390   0.0000       2.128196        57.9112 
 391   0.0000       2.148037        58.4511 
 392   0.0000       2.166109        58.9428 
 393   0.0000       2.175950        59.2106 
 394   0.0000       2.183246        59.4092 
 395   0.0000       2.195670        59.7472 
 396   0.0000       2.200500        59.8787 
 397   0.0000       2.221125        60.4399 
 398   0.0000       2.230393        60.6921 
 399   0.0000       2.241434        60.9925 
 400   0.0000       2.255493        61.3751 
 401   0.0000       2.257491        61.4295 
 402   0.0000       2.261091        61.5274 
 403   0.0000       2.276473        61.9460 
 404   0.0000       2.280127        62.0454 
 405   0.0000       2.296012        62.4777 
 406   0.0000       2.306014        62.7498 
 407   0.0000       2.309280        62.8387 
 408   0.0000       2.311487        62.8988 
 409   0.0000       2.341166        63.7064 
 410   0.0000       2.345251        63.8175 
 411   0.0000       2.349548        63.9344 
 412   0.0000       2.368494        64.4500 
 413   0.0000       2.389600        65.0243 
 414   0.0000       2.389782        65.0293 
 415   0.0000       2.392939        65.1152 
 416   0.0000       2.413483        65.6742 
 417   0.0000       2.427790        66.0635 
 418   0.0000       2.428541        66.0840 
 419   0.0000       2.451434        66.7069 
 420   0.0000       2.461076        66.9693 
 421   0.0000       2.473277        67.3013 
 422   0.0000       2.475306        67.3565 
 423   0.0000       2.475906        67.3728 
 424   0.0000       2.507369        68.2290 
 425   0.0000       2.528482        68.8035 
 426   0.0000       2.535640        68.9983 
 427   0.0000       2.545982        69.2797 
 428   0.0000       2.556382        69.5627 
 429   0.0000       2.581307        70.2409 
 430   0.0000       2.596782        70.6620 
 431   0.0000       2.605944        70.9113 
 432   0.0000       2.612430        71.0878 
 433   0.0000       2.623642        71.3929 
 434   0.0000       2.654743        72.2392 
 435   0.0000       2.663365        72.4739 
 436   0.0000       2.695106        73.3376 
 437   0.0000       2.707842        73.6841 
 438   0.0000       2.725468        74.1638 
 439   0.0000       2.726657        74.1961 
 440   0.0000       2.766197        75.2720 
 441   0.0000       2.783146        75.7333 
 442   0.0000       2.799167        76.1692 
 443   0.0000       2.820173        76.7408 
 444   0.0000       2.822358        76.8003 
 445   0.0000       2.854430        77.6730 
 446   0.0000       2.870271        78.1040 
 447   0.0000       2.911724        79.2320 
 448   0.0000       2.930628        79.7464 
 449   0.0000       2.930929        79.7546 
 450   0.0000       2.942480        80.0690 
 451   0.0000       2.955527        80.4240 
 452   0.0000       2.971616        80.8618 
 453   0.0000       2.989908        81.3595 
 454   0.0000       3.010235        81.9127 
 455   0.0000       3.043653        82.8220 
 456   0.0000       3.057607        83.2017 
 457   0.0000       3.114783        84.7575 
 458   0.0000       3.130534        85.1862 
 459   0.0000       3.159404        85.9718 
 460   0.0000       3.172620        86.3314 
 461   0.0000       3.178606        86.4943 
 462   0.0000       3.249333        88.4189 
 463   0.0000       3.268984        88.9536 
 464   0.0000       3.282262        89.3149 
 465   0.0000       3.306965        89.9871 
 466   0.0000       3.374317        91.8198 
 467   0.0000       3.382307        92.0372 
 468   0.0000       3.415847        92.9499 
 469   0.0000       3.425468        93.2117 
 470   0.0000       3.428390        93.2912 
 471   0.0000       3.450084        93.8816 
 472   0.0000       3.455616        94.0321 
 473   0.0000       3.470405        94.4345 
 474   0.0000       3.496900        95.1555 
 475   0.0000       3.505791        95.3974 
 476   0.0000       3.508109        95.4605 
 477   0.0000       3.517095        95.7050 
 478   0.0000       3.517724        95.7221 
 479   0.0000       3.540675        96.3467 
 480   0.0000       3.553801        96.7038 
 481   0.0000       3.563858        96.9775 
 482   0.0000       3.576937        97.3334 
 483   0.0000       3.584541        97.5403 
 484   0.0000       3.595249        97.8317 
 485   0.0000       3.601196        97.9935 
 486   0.0000       3.625657        98.6591 
 487   0.0000       3.644596        99.1745 
 488   0.0000       3.645207        99.1911 
 489   0.0000       3.669888        99.8627 
 490   0.0000       3.682274       100.1998 
 491   0.0000       3.688517       100.3696 
 492   0.0000       3.691526       100.4515 
 493   0.0000       3.695310       100.5545 
 494   0.0000       3.706331       100.8544 
 495   0.0000       3.707008       100.8728 
 496   0.0000       3.717517       101.1588 
 497   0.0000       3.738203       101.7217 
 498   0.0000       3.745607       101.9232 
 499   0.0000       3.752710       102.1164 
 500   0.0000       3.773599       102.6849 
 501   0.0000       3.782248       102.9202 
 502   0.0000       3.782856       102.9367 
 503   0.0000       3.791144       103.1623 
 504   0.0000       3.798176       103.3536 
 505   0.0000       3.816264       103.8458 
 506   0.0000       3.818984       103.9198 
 507   0.0000       3.826267       104.1180 
 508   0.0000       3.847377       104.6924 
 509   0.0000       3.863788       105.1390 
 510   0.0000       3.865075       105.1740 
 511   0.0000       3.866648       105.2169 
 512   0.0000       3.878061       105.5274 
 513   0.0000       3.892502       105.9204 
 514   0.0000       3.893655       105.9517 
 515   0.0000       3.897418       106.0541 
 516   0.0000       3.915193       106.5378 
 517   0.0000       3.932324       107.0040 
 518   0.0000       3.942863       107.2908 
 519   0.0000       3.943414       107.3057 
 520   0.0000       3.950286       107.4927 
 521   0.0000       3.952042       107.5405 
 522   0.0000       3.955166       107.6255 
 523   0.0000       3.976572       108.2080 
 524   0.0000       3.976781       108.2137 
 525   0.0000       3.988380       108.5293 
 526   0.0000       3.997202       108.7694 
 527   0.0000       4.002510       108.9138 
 528   0.0000       4.015918       109.2787 
 529   0.0000       4.018054       109.3368 
 530   0.0000       4.035245       109.8046 
 531   0.0000       4.040544       109.9488 
 532   0.0000       4.048087       110.1541 
 533   0.0000       4.057708       110.4159 
 534   0.0000       4.068002       110.6960 
 535   0.0000       4.080843       111.0454 
 536   0.0000       4.090577       111.3103 
 537   0.0000       4.109175       111.8163 
 538   0.0000       4.111227       111.8722 
 539   0.0000       4.121976       112.1647 
 540   0.0000       4.123436       112.2044 
 541   0.0000       4.159559       113.1874 
 542   0.0000       4.164357       113.3179 
 543   0.0000       4.165722       113.3551 
 544   0.0000       4.199676       114.2790 
 545   0.0000       4.208038       114.5065 
 546   0.0000       4.211592       114.6032 
 547   0.0000       4.227579       115.0383 
 548   0.0000       4.236744       115.2877 
 549   0.0000       4.247160       115.5711 
 550   0.0000       4.252060       115.7044 
 551   0.0000       4.264862       116.0528 
 552   0.0000       4.270802       116.2144 
 553   0.0000       4.288146       116.6864 
 554   0.0000       4.293792       116.8400 
 555   0.0000       4.304698       117.1368 
 556   0.0000       4.318467       117.5115 
 557   0.0000       4.324155       117.6662 
 558   0.0000       4.344892       118.2305 
 559   0.0000       4.347805       118.3098 
 560   0.0000       4.358585       118.6031 
 561   0.0000       4.365771       118.7987 
 562   0.0000       4.379479       119.1717 
 563   0.0000       4.412334       120.0657 
 564   0.0000       4.425659       120.4283 
 565   0.0000       4.432860       120.6243 
 566   0.0000       4.443304       120.9084 
 567   0.0000       4.465635       121.5161 
 568   0.0000       4.471516       121.6761 
 569   0.0000       4.496643       122.3599 
 570   0.0000       4.509000       122.6961 
 571   0.0000       4.519287       122.9761 
 572   0.0000       4.525580       123.1473 
 573   0.0000       4.545858       123.6991 
 574   0.0000       4.561472       124.1240 
 575   0.0000       4.565561       124.2352 
 576   0.0000       4.584603       124.7534 
 577   0.0000       4.615271       125.5879 
 578   0.0000       4.630349       125.9982 
 579   0.0000       4.636276       126.1595 
 580   0.0000       4.666223       126.9744 
 581   0.0000       4.680304       127.3575 
 582   0.0000       4.685772       127.5063 
 583   0.0000       4.688139       127.5707 
 584   0.0000       4.702909       127.9726 
 585   0.0000       4.718183       128.3883 
 586   0.0000       4.718443       128.3954 
 587   0.0000       4.736403       128.8841 
 588   0.0000       4.736613       128.8898 
 589   0.0000       4.752759       129.3291 
 590   0.0000       4.763965       129.6341 
 591   0.0000       4.793958       130.4502 
 592   0.0000       4.799553       130.6025 
 593   0.0000       4.811387       130.9245 
 594   0.0000       4.817394       131.0880 
 595   0.0000       4.823737       131.2606 
 596   0.0000       4.834221       131.5458 
 597   0.0000       4.841905       131.7549 
 598   0.0000       4.847860       131.9170 
 599   0.0000       4.864694       132.3750 
 600   0.0000       4.864955       132.3822 
 601   0.0000       4.876351       132.6923 
 602   0.0000       4.906916       133.5240 
 603   0.0000       4.915929       133.7692 
 604   0.0000       4.925452       134.0284 
 605   0.0000       4.948325       134.6508 
 606   0.0000       4.956770       134.8806 
 607   0.0000       4.967468       135.1717 
 608   0.0000       4.989036       135.7586 
 609   0.0000       4.989322       135.7664 
 610   0.0000       4.994811       135.9157 
 611   0.0000       5.033432       136.9667 
 612   0.0000       5.033588       136.9709 
 613   0.0000       5.055903       137.5781 
 614   0.0000       5.061555       137.7319 
 615   0.0000       5.083373       138.3256 
 616   0.0000       5.104996       138.9140 
 617   0.0000       5.109146       139.0269 
 618   0.0000       5.117608       139.2572 
 619   0.0000       5.121599       139.3658 
 620   0.0000       5.166389       140.5846 
 621   0.0000       5.183109       141.0396 
 622   0.0000       5.192144       141.2854 
 623   0.0000       5.209046       141.7453 
 624   0.0000       5.211184       141.8035 
 625   0.0000       5.235798       142.4733 
 626   0.0000       5.236431       142.4905 
 627   0.0000       5.245772       142.7447 
 628   0.0000       5.256521       143.0372 
 629   0.0000       5.281075       143.7054 
 630   0.0000       5.292245       144.0093 
 631   0.0000       5.297015       144.1391 
 632   0.0000       5.340277       145.3163 
 633   0.0000       5.350668       145.5991 
 634   0.0000       5.353117       145.6657 
 635   0.0000       5.368657       146.0886 
 636   0.0000       5.371936       146.1778 
 637   0.0000       5.396350       146.8421 
 638   0.0000       5.402724       147.0156 
 639   0.0000       5.414792       147.3440 
 640   0.0000       5.423079       147.5695 
 641   0.0000       5.423260       147.5744 
 642   0.0000       5.430804       147.7797 
 643   0.0000       5.462680       148.6471 
 644   0.0000       5.469574       148.8347 
 645   0.0000       5.484922       149.2523 
 646   0.0000       5.507219       149.8590 
 647   0.0000       5.534597       150.6041 
 648   0.0000       5.543072       150.8347 
 649   0.0000       5.564164       151.4086 
 650   0.0000       5.575646       151.7211 
 651   0.0000       5.585393       151.9863 
 652   0.0000       5.600145       152.3877 
 653   0.0000       5.619360       152.9106 
 654   0.0000       5.649601       153.7335 
 655   0.0000       5.666510       154.1936 
 656   0.0000       5.668815       154.2563 
 657   0.0000       5.693238       154.9209 
 658   0.0000       5.698743       155.0707 
 659   0.0000       5.712160       155.4358 
 660   0.0000       5.729310       155.9024 
 661   0.0000       5.738069       156.1408 
 662   0.0000       5.786179       157.4499 
 663   0.0000       5.792850       157.6315 
 664   0.0000       5.795348       157.6994 
 665   0.0000       5.798077       157.7737 
 666   0.0000       5.847694       159.1239 
 667   0.0000       5.851954       159.2398 
 668   0.0000       5.890172       160.2797 
 669   0.0000       5.902748       160.6219 
 670   0.0000       5.979549       162.7118 
 671   0.0000       5.996778       163.1806 
 672   0.0000       6.005784       163.4257 
 673   0.0000       6.042995       164.4383 
 674   0.0000       6.065252       165.0439 
 675   0.0000       6.067660       165.1094 
 676   0.0000       6.098680       165.9535 
 677   0.0000       6.120460       166.5462 
 678   0.0000       6.142688       167.1510 
 679   0.0000       6.149759       167.3435 
 680   0.0000       6.161350       167.6588 
 681   0.0000       6.193721       168.5397 
 682   0.0000       6.207788       168.9225 
 683   0.0000       6.211986       169.0367 
 684   0.0000       6.252663       170.1436 
 685   0.0000       6.257372       170.2717 
 686   0.0000       6.289793       171.1540 
 687   0.0000       6.302181       171.4911 
 688   0.0000       6.390213       173.8865 
 689   0.0000       6.401542       174.1948 
 690   0.0000       6.497768       176.8133 
 691   0.0000       6.509304       177.1272 
 692   0.0000       6.611176       179.8992 
 693   0.0000       6.625414       180.2867 
 694   0.0000       6.681380       181.8096 
 695   0.0000       6.697284       182.2424 
 696   0.0000       6.712694       182.6617 
 697   0.0000       6.752919       183.7563 
 698   0.0000       6.799367       185.0202 
 699   0.0000       6.804690       185.1650 
 700   0.0000       6.832245       185.9148 
 701   0.0000       6.854055       186.5083 
 702   0.0000       6.878358       187.1696 
 703   0.0000       6.916410       188.2051 
 704   0.0000       6.932133       188.6329 
 705   0.0000       6.952586       189.1895 
 706   0.0000       7.035262       191.4392 
 707   0.0000       7.066655       192.2935 
 708   0.0000       7.120560       193.7603 
 709   0.0000       7.163753       194.9356 
 710   0.0000       7.223247       196.5546 
 711   0.0000       7.237478       196.9418 
 712   0.0000       7.302270       198.7049 
 713   0.0000       7.408916       201.6069 
 714   0.0000       7.444125       202.5649 
 715   0.0000       7.464507       203.1196 
 716   0.0000       7.566964       205.9076 
 717   0.0000       7.573183       206.0768 
 718   0.0000       7.660171       208.4439 
 719   0.0000       7.737030       210.5353 
 720   0.0000       7.786336       211.8770 
 721   0.0000       7.861533       213.9232 
 722   0.0000       7.921942       215.5670 
 723   0.0000       7.965777       216.7598 
 724   0.0000       8.069329       219.5776 
 725   0.0000       8.341404       226.9811 
 726   0.0000       8.521760       231.8889 
 727   0.0000      15.111233       411.1976 
 728   0.0000      16.173851       440.1129 
 729   0.0000      17.638372       479.9645 
 730   0.0000      17.946162       488.3399 
 731   0.0000      18.102802       492.6023 
 732   0.0000      18.176484       494.6073 
 733   0.0000      18.501621       503.4547 
 734   0.0000      19.295448       525.0558 
 735   0.0000      20.296337       552.2914 

                    ********************************
                    * MULLIKEN POPULATION ANALYSIS *
                    ********************************

-----------------------
MULLIKEN ATOMIC CHARGES
-----------------------
   0 C :    0.309713
   1 C :   -1.001881
   2 C :   -0.769066
   3 C :   -0.076691
   4 C :   -0.480808
   5 C :   -0.221079
   6 C :   -0.263039
   7 O :   -0.804499
   8 O :   -0.394904
   9 H :    0.262490
  10 H :    0.262490
  11 H :    0.277661
  12 H :    0.357737
  13 H :    0.365391
  14 H :    0.365391
  15 H :    0.187601
  16 H :    0.187601
  17 H :    0.238858
  18 H :    0.238858
  19 H :    0.221213
  20 H :    0.221212
  21 H :    0.257874
  22 H :    0.257874
Sum of atomic charges:   -0.0000000

--------------------------------
MULLIKEN REDUCED ORBITAL CHARGES
--------------------------------
  0 C s       :     3.492346  s :     3.492346
      pz      :     0.586513  p :     2.058909
      px      :     0.849663
      py      :     0.622733
      dz2     :     0.003186  d :     0.096775
      dxz     :     0.030651
      dyz     :     0.057019
      dx2y2   :     0.024629
      dxy     :    -0.018711
      f0      :     0.005047  f :     0.042257
      f+1     :     0.002056
      f-1     :     0.002126
      f+2     :     0.012232
      f-2     :     0.005994
      f+3     :     0.019814
      f-3     :    -0.005013
  1 C s       :     3.254318  s :     3.254318
      pz      :     1.264454  p :     3.561964
      px      :     1.059130
      py      :     1.238379
      dz2     :     0.038688  d :     0.170141
      dxz     :     0.042315
      dyz     :     0.031504
      dx2y2   :     0.044237
      dxy     :     0.013396
      f0      :     0.001275  f :     0.015459
      f+1     :     0.001421
      f-1     :     0.003091
      f+2     :     0.000526
      f-2     :     0.001814
      f+3     :     0.001858
      f-3     :     0.005474
  2 C s       :     3.308502  s :     3.308502
      pz      :     1.267060  p :     3.191431
      px      :     0.708295
      py      :     1.216076
      dz2     :     0.036392  d :     0.241798
      dxz     :     0.084573
      dyz     :     0.012722
      dx2y2   :     0.077452
      dxy     :     0.030659
      f0      :     0.003197  f :     0.027336
      f+1     :     0.003347
      f-1     :     0.002723
      f+2     :     0.000655
      f-2     :     0.006617
      f+3     :     0.000233
      f-3     :     0.010564
  3 C s       :     2.833836  s :     2.833836
      pz      :     1.226186  p :     3.082480
      px      :     0.769696
      py      :     1.086599
      dz2     :     0.040538  d :     0.177785
      dxz     :     0.044311
      dyz     :     0.046187
      dx2y2   :     0.034835
      dxy     :     0.011913
      f0      :    -0.000746  f :    -0.017409
      f+1     :    -0.003725
      f-1     :     0.001608
      f+2     :    -0.001760
      f-2     :    -0.002338
      f+3     :    -0.001885
      f-3     :    -0.008563
  4 C s       :     3.056876  s :     3.056876
      pz      :     1.202180  p :     3.311109
      px      :     1.052553
      py      :     1.056376
      dz2     :     0.025716  d :     0.104269
      dxz     :     0.005603
      dyz     :     0.049003
      dx2y2   :     0.035712
      dxy     :    -0.011765
      f0      :     0.001020  f :     0.008553
      f+1     :     0.002163
      f-1     :     0.001083
      f+2     :    -0.001241
      f-2     :     0.002111
      f+3     :     0.002637
      f-3     :     0.000779
  5 C s       :     3.023546  s :     3.023546
      pz      :     1.212719  p :     3.154776
      px      :     0.948197
      py      :     0.993860
      dz2     :     0.037489  d :     0.033190
      dxz     :    -0.016205
      dyz     :     0.002756
      dx2y2   :     0.034377
      dxy     :    -0.025228
      f0      :     0.001930  f :     0.009568
      f+1     :    -0.000637
      f-1     :     0.002249
      f+2     :    -0.000973
      f-2     :     0.000955
      f+3     :     0.003645
      f-3     :     0.002397
  6 C s       :     2.978278  s :     2.978278
      pz      :     1.203674  p :     3.258591
      px      :     1.011896
      py      :     1.043020
      dz2     :     0.016852  d :     0.012405
      dxz     :     0.015679
      dyz     :     0.025701
      dx2y2   :     0.022683
      dxy     :    -0.068510
      f0      :     0.001321  f :     0.013765
      f+1     :     0.001085
      f-1     :     0.002257
      f+2     :    -0.000785
      f-2     :     0.001982
      f+3     :     0.003525
      f-3     :     0.004381
  7 O s       :     4.009348  s :     4.009348
      pz      :     1.472387  p :     4.750413
      px      :     1.656059
      py      :     1.621966
      dz2     :     0.001935  d :     0.039612
      dxz     :     0.010779
      dyz     :     0.009934
      dx2y2   :     0.010711
      dxy     :     0.006253
      f0      :     0.000651  f :     0.005126
      f+1     :     0.000147
      f-1     :     0.000306
      f+2     :     0.000136
      f-2     :     0.001407
      f+3     :     0.001428
      f-3     :     0.001051
  8 O s       :     3.788785  s :     3.788785
      pz      :     1.815210  p :     4.547691
      px      :     1.418104
      py      :     1.314378
      dz2     :     0.002050  d :     0.053126
      dxz     :     0.003406
      dyz     :     0.008278
      dx2y2   :     0.016534
      dxy     :     0.022858
      f0      :     0.000437  f :     0.005301
      f+1     :     0.000344
      f-1     :     0.000098
      f+2     :     0.000861
      f-2     :     0.000220
      f+3     :     0.002243
      f-3     :     0.001099
  9 H s       :     0.666050  s :     0.666050
      pz      :     0.018449  p :     0.064867
      px      :     0.029811
      py      :     0.016607
      dz2     :     0.002520  d :     0.006593
      dxz     :     0.001066
      dyz     :     0.000429
      dx2y2   :     0.002729
      dxy     :    -0.000151
 10 H s       :     0.666050  s :     0.666050
      pz      :     0.018449  p :     0.064867
      px      :     0.029811
      py      :     0.016607
      dz2     :     0.002520  d :     0.006593
      dxz     :     0.001066
      dyz     :     0.000429
      dx2y2   :     0.002729
      dxy     :    -0.000151
 11 H s       :     0.642270  s :     0.642270
      pz      :     0.023233  p :     0.072087
      px      :     0.025162
      py      :     0.023692
      dz2     :    -0.000051  d :     0.007983
      dxz     :     0.000042
      dyz     :     0.003457
      dx2y2   :     0.000472
      dxy     :     0.004062
 12 H s       :     0.590031  s :     0.590031
      pz      :     0.017246  p :     0.050046
      px      :     0.000203
      py      :     0.032597
      dz2     :    -0.000975  d :     0.002185
      dxz     :     0.000545
      dyz     :     0.003729
      dx2y2   :     0.000227
      dxy     :    -0.001341
 13 H s       :     0.587577  s :     0.587577
      pz      :     0.023098  p :     0.043824
      px      :     0.009338
      py      :     0.011388
      dz2     :     0.001495  d :     0.003207
      dxz     :    -0.000031
      dyz     :     0.000557
      dx2y2   :     0.000565
      dxy     :     0.000622
 14 H s       :     0.587577  s :     0.587577
      pz      :     0.023098  p :     0.043824
      px      :     0.009338
      py      :     0.011388
      dz2     :     0.001495  d :     0.003207
      dxz     :    -0.000031
      dyz     :     0.000557
      dx2y2   :     0.000565
      dxy     :     0.000622
 15 H s       :     0.726693  s :     0.726693
      pz      :     0.020207  p :     0.079057
      px      :     0.025701
      py      :     0.033150
      dz2     :     0.003544  d :     0.006648
      dxz     :    -0.001674
      dyz     :     0.000766
      dx2y2   :     0.002958
      dxy     :     0.001054
 16 H s       :     0.726693  s :     0.726693
      pz      :     0.020207  p :     0.079057
      px      :     0.025701
      py      :     0.033150
      dz2     :     0.003544  d :     0.006648
      dxz     :    -0.001674
      dyz     :     0.000766
      dx2y2   :     0.002958
      dxy     :     0.001054
 17 H s       :     0.673457  s :     0.673457
      pz      :     0.014609  p :     0.078927
      px      :     0.027947
      py      :     0.036371
      dz2     :     0.003132  d :     0.008757
      dxz     :     0.000775
      dyz     :     0.000917
      dx2y2   :     0.003588
      dxy     :     0.000346
 18 H s       :     0.673458  s :     0.673458
      pz      :     0.014609  p :     0.078927
      px      :     0.027947
      py      :     0.036371
      dz2     :     0.003132  d :     0.008757
      dxz     :     0.000775
      dyz     :     0.000917
      dx2y2   :     0.003588
      dxy     :     0.000346
 19 H s       :     0.677038  s :     0.677038
      pz      :     0.019054  p :     0.094171
      px      :     0.037994
      py      :     0.037123
      dz2     :     0.002561  d :     0.007578
      dxz     :     0.000285
      dyz     :     0.000609
      dx2y2   :     0.003615
      dxy     :     0.000508
 20 H s       :     0.677039  s :     0.677039
      pz      :     0.019054  p :     0.094171
      px      :     0.037994
      py      :     0.037123
      dz2     :     0.002561  d :     0.007578
      dxz     :     0.000285
      dyz     :     0.000609
      dx2y2   :     0.003615
      dxy     :     0.000508
 21 H s       :     0.651332  s :     0.651332
      pz      :     0.018778  p :     0.082695
      px      :     0.034818
      py      :     0.029099
      dz2     :     0.002715  d :     0.008098
      dxz     :     0.000723
      dyz     :     0.000563
      dx2y2   :     0.002944
      dxy     :     0.001154
 22 H s       :     0.651332  s :     0.651332
      pz      :     0.018778  p :     0.082695
      px      :     0.034818
      py      :     0.029099
      dz2     :     0.002715  d :     0.008098
      dxz     :     0.000723
      dyz     :     0.000563
      dx2y2   :     0.002944
      dxy     :     0.001154


                     *******************************
                     * LOEWDIN POPULATION ANALYSIS *
                     *******************************

----------------------
LOEWDIN ATOMIC CHARGES
----------------------
   0 C :   -0.807064
   1 C :    0.578967
   2 C :    0.357150
   3 C :    0.274352
   4 C :    0.258714
   5 C :    0.265313
   6 C :    0.269299
   7 O :    0.469453
   8 O :    0.560600
   9 H :   -0.171532
  10 H :   -0.171532
  11 H :   -0.173712
  12 H :   -0.188917
  13 H :   -0.182503
  14 H :   -0.182503
  15 H :   -0.147682
  16 H :   -0.147682
  17 H :   -0.146857
  18 H :   -0.146857
  19 H :   -0.142145
  20 H :   -0.142145
  21 H :   -0.141360
  22 H :   -0.141360

-------------------------------
LOEWDIN REDUCED ORBITAL CHARGES
-------------------------------
  0 C s       :     2.477098  s :     2.477098
      pz      :     0.479567  p :     2.116187
      px      :     0.856367
      py      :     0.780253
      dz2     :     0.113092  d :     1.398430
      dxz     :     0.190588
      dyz     :     0.238840
      dx2y2   :     0.481168
      dxy     :     0.374742
      f0      :     0.057103  f :     0.815351
      f+1     :     0.038051
      f-1     :     0.055468
      f+2     :     0.107644
      f-2     :     0.085825
      f+3     :     0.229357
      f-3     :     0.241902
  1 C s       :     2.444589  s :     2.444589
      pz      :     0.759429  p :     2.247207
      px      :     0.726339
      py      :     0.761440
      dz2     :     0.079482  d :     0.540769
      dxz     :     0.161703
      dyz     :     0.052048
      dx2y2   :     0.139874
      dxy     :     0.107662
      f0      :     0.021577  f :     0.188467
      f+1     :     0.020311
      f-1     :     0.016020
      f+2     :     0.036495
      f-2     :     0.015585
      f+3     :     0.032181
      f-3     :     0.046299
  2 C s       :     2.463854  s :     2.463854
      pz      :     0.805165  p :     2.191233
      px      :     0.596796
      py      :     0.789272
      dz2     :     0.104782  d :     0.669312
      dxz     :     0.193835
      dyz     :     0.041590
      dx2y2   :     0.217927
      dxy     :     0.111178
      f0      :     0.035726  f :     0.318452
      f+1     :     0.040623
      f-1     :     0.020533
      f+2     :     0.040333
      f-2     :     0.032771
      f+3     :     0.075685
      f-3     :     0.072781
  3 C s       :     2.429150  s :     2.429150
      pz      :     0.760396  p :     2.231073
      px      :     0.724609
      py      :     0.746067
      dz2     :     0.096899  d :     0.734941
      dxz     :     0.096008
      dyz     :     0.175363
      dx2y2   :     0.199170
      dxy     :     0.167500
      f0      :     0.032701  f :     0.330483
      f+1     :     0.033341
      f-1     :     0.025895
      f+2     :     0.059930
      f-2     :     0.025855
      f+3     :     0.069296
      f-3     :     0.083466
  4 C s       :     2.423524  s :     2.423524
      pz      :     0.753835  p :     2.199669
      px      :     0.721605
      py      :     0.724229
      dz2     :     0.092810  d :     0.786477
      dxz     :     0.158861
      dyz     :     0.162256
      dx2y2   :     0.197203
      dxy     :     0.175347
      f0      :     0.041627  f :     0.331617
      f+1     :     0.024618
      f-1     :     0.024622
      f+2     :     0.074777
      f-2     :     0.019758
      f+3     :     0.063212
      f-3     :     0.083003
  5 C s       :     2.415276  s :     2.415276
      pz      :     0.755106  p :     2.195912
      px      :     0.728474
      py      :     0.712332
      dz2     :     0.095429  d :     0.785666
      dxz     :     0.156440
      dyz     :     0.162681
      dx2y2   :     0.206311
      dxy     :     0.164804
      f0      :     0.042427  f :     0.337834
      f+1     :     0.025456
      f-1     :     0.024578
      f+2     :     0.074925
      f-2     :     0.021279
      f+3     :     0.066837
      f-3     :     0.082332
  6 C s       :     2.417216  s :     2.417216
      pz      :     0.746548  p :     2.193164
      px      :     0.720742
      py      :     0.725874
      dz2     :     0.090874  d :     0.784098
      dxz     :     0.158536
      dyz     :     0.170410
      dx2y2   :     0.197650
      dxy     :     0.166627
      f0      :     0.042157  f :     0.336224
      f+1     :     0.024557
      f-1     :     0.024592
      f+2     :     0.077088
      f-2     :     0.022309
      f+3     :     0.064144
      f-3     :     0.081377
  7 O s       :     3.177963  s :     3.177963
      pz      :     1.199001  p :     4.073412
      px      :     1.439993
      py      :     1.434418
      dz2     :     0.026720  d :     0.206040
      dxz     :     0.015809
      dyz     :     0.021649
      dx2y2   :     0.075316
      dxy     :     0.066547
      f0      :     0.004183  f :     0.073132
      f+1     :     0.006383
      f-1     :     0.006448
      f+2     :     0.001451
      f-2     :     0.009919
      f+3     :     0.021849
      f-3     :     0.022900
  8 O s       :     2.994856  s :     2.994856
      pz      :     1.381563  p :     3.898463
      px      :     1.240542
      py      :     1.276357
      dz2     :     0.042747  d :     0.428318
      dxz     :     0.070956
      dyz     :     0.043131
      dx2y2   :     0.131686
      dxy     :     0.139798
      f0      :     0.010469  f :     0.117764
      f+1     :     0.005994
      f-1     :     0.009579
      f+2     :     0.023563
      f-2     :     0.001872
      f+3     :     0.037965
      f-3     :     0.028322
  9 H s       :     0.639237  s :     0.639237
      pz      :     0.126197  p :     0.307803
      px      :     0.083013
      py      :     0.098592
      dz2     :     0.077250  d :     0.224492
      dxz     :     0.041852
      dyz     :     0.045861
      dx2y2   :     0.043572
      dxy     :     0.015956
 10 H s       :     0.639237  s :     0.639237
      pz      :     0.126197  p :     0.307803
      px      :     0.083013
      py      :     0.098592
      dz2     :     0.077250  d :     0.224492
      dxz     :     0.041852
      dyz     :     0.045861
      dx2y2   :     0.043572
      dxy     :     0.015956
 11 H s       :     0.644211  s :     0.644211
      pz      :     0.086542  p :     0.306721
      px      :     0.076867
      py      :     0.143312
      dz2     :     0.014711  d :     0.222780
      dxz     :     0.003938
      dyz     :     0.084920
      dx2y2   :     0.055290
      dxy     :     0.063920
 12 H s       :     0.665921  s :     0.665921
      pz      :     0.087624  p :     0.298237
      px      :     0.061236
      py      :     0.149376
      dz2     :     0.016625  d :     0.224759
      dxz     :     0.008704
      dyz     :     0.084907
      dx2y2   :     0.046103
      dxy     :     0.068420
 13 H s       :     0.655011  s :     0.655011
      pz      :     0.133095  p :     0.304096
      px      :     0.070410
      py      :     0.100592
      dz2     :     0.080212  d :     0.223395
      dxz     :     0.038180
      dyz     :     0.044460
      dx2y2   :     0.040896
      dxy     :     0.019648
 14 H s       :     0.655011  s :     0.655011
      pz      :     0.133095  p :     0.304096
      px      :     0.070410
      py      :     0.100592
      dz2     :     0.080212  d :     0.223395
      dxz     :     0.038180
      dyz     :     0.044460
      dx2y2   :     0.040896
      dxy     :     0.019648
 15 H s       :     0.617899  s :     0.617899
      pz      :     0.122828  p :     0.297444
      px      :     0.087903
      py      :     0.086713
      dz2     :     0.080816  d :     0.232339
      dxz     :     0.041906
      dyz     :     0.042751
      dx2y2   :     0.045351
      dxy     :     0.021515
 16 H s       :     0.617899  s :     0.617899
      pz      :     0.122828  p :     0.297444
      px      :     0.087903
      py      :     0.086713
      dz2     :     0.080816  d :     0.232339
      dxz     :     0.041906
      dyz     :     0.042751
      dx2y2   :     0.045351
      dxy     :     0.021515
 17 H s       :     0.629428  s :     0.629428
      pz      :     0.121488  p :     0.291557
      px      :     0.085580
      py      :     0.084489
      dz2     :     0.079214  d :     0.225872
      dxz     :     0.041541
      dyz     :     0.043024
      dx2y2   :     0.043358
      dxy     :     0.018735
 18 H s       :     0.629428  s :     0.629428
      pz      :     0.121488  p :     0.291557
      px      :     0.085580
      py      :     0.084489
      dz2     :     0.079214  d :     0.225872
      dxz     :     0.041541
      dyz     :     0.043024
      dx2y2   :     0.043358
      dxy     :     0.018735
 19 H s       :     0.619573  s :     0.619573
      pz      :     0.120707  p :     0.293682
      px      :     0.087007
      py      :     0.085968
      dz2     :     0.080614  d :     0.228890
      dxz     :     0.041904
      dyz     :     0.042014
      dx2y2   :     0.044495
      dxy     :     0.019862
 20 H s       :     0.619573  s :     0.619573
      pz      :     0.120707  p :     0.293682
      px      :     0.087007
      py      :     0.085968
      dz2     :     0.080614  d :     0.228890
      dxz     :     0.041904
      dyz     :     0.042014
      dx2y2   :     0.044495
      dxy     :     0.019862
 21 H s       :     0.623455  s :     0.623455
      pz      :     0.119773  p :     0.290760
      px      :     0.084336
      py      :     0.086652
      dz2     :     0.079210  d :     0.227145
      dxz     :     0.041727
      dyz     :     0.043039
      dx2y2   :     0.043266
      dxy     :     0.019903
 22 H s       :     0.623455  s :     0.623455
      pz      :     0.119773  p :     0.290760
      px      :     0.084336
      py      :     0.086652
      dz2     :     0.079210  d :     0.227145
      dxz     :     0.041727
      dyz     :     0.043039
      dx2y2   :     0.043266
      dxy     :     0.019903


                      *****************************
                      * MAYER POPULATION ANALYSIS *
                      *****************************

  NA   - Mulliken gross atomic population
  ZA   - Total nuclear charge
  QA   - Mulliken gross atomic charge
  VA   - Mayer's total valence
  BVA  - Mayer's bonded valence
  FA   - Mayer's free valence

  ATOM       NA         ZA         QA         VA         BVA        FA
  0 C      5.6903     6.0000     0.3097     3.1398     3.1398    -0.0000
  1 C      7.0019     6.0000    -1.0019     3.8856     3.8856    -0.0000
  2 C      6.7691     6.0000    -0.7691     3.3955     3.3955    -0.0000
  3 C      6.0767     6.0000    -0.0767     3.5780     3.5780    -0.0000
  4 C      6.4808     6.0000    -0.4808     3.8880     3.8880     0.0000
  5 C      6.2211     6.0000    -0.2211     3.8288     3.8288     0.0000
  6 C      6.2630     6.0000    -0.2630     3.7230     3.7230    -0.0000
  7 O      8.8045     8.0000    -0.8045     1.3744     1.3744     0.0000
  8 O      8.3949     8.0000    -0.3949     1.9015     1.9015     0.0000
  9 H      0.7375     1.0000     0.2625     1.0719     1.0719    -0.0000
 10 H      0.7375     1.0000     0.2625     1.0719     1.0719    -0.0000
 11 H      0.7223     1.0000     0.2777     1.0431     1.0431     0.0000
 12 H      0.6423     1.0000     0.3577     1.0014     1.0014    -0.0000
 13 H      0.6346     1.0000     0.3654     0.9680     0.9680    -0.0000
 14 H      0.6346     1.0000     0.3654     0.9680     0.9680    -0.0000
 15 H      0.8124     1.0000     0.1876     1.1951     1.1951    -0.0000
 16 H      0.8124     1.0000     0.1876     1.1951     1.1951    -0.0000
 17 H      0.7611     1.0000     0.2389     1.1019     1.1019    -0.0000
 18 H      0.7611     1.0000     0.2389     1.1019     1.1019     0.0000
 19 H      0.7788     1.0000     0.2212     1.1585     1.1585     0.0000
 20 H      0.7788     1.0000     0.2212     1.1585     1.1585    -0.0000
 21 H      0.7421     1.0000     0.2579     1.1024     1.1024    -0.0000
 22 H      0.7421     1.0000     0.2579     1.1024     1.1024    -0.0000

  Mayer bond orders larger than 0.100000
B(  0-C ,  3-C ) :   0.5968 B(  0-C ,  7-O ) :   1.4501 B(  0-C ,  8-O ) :   1.0726 
B(  1-C ,  4-C ) :   0.9454 B(  1-C ,  9-H ) :   0.9685 B(  1-C , 10-H ) :   0.9685 
B(  1-C , 11-H ) :   0.9872 B(  2-C ,  8-O ) :   0.8183 B(  2-C , 12-H ) :   0.9030 
B(  2-C , 13-H ) :   0.8809 B(  2-C , 14-H ) :   0.8809 B(  3-C ,  5-C ) :   1.0047 
B(  3-C , 15-H ) :   0.9612 B(  3-C , 16-H ) :   0.9612 B(  4-C ,  6-C ) :   0.8902 
B(  4-C , 17-H ) :   0.9638 B(  4-C , 18-H ) :   0.9638 B(  5-C ,  6-C ) :   0.9439 
B(  5-C ,  7-O ) :  -0.1129 B(  5-C , 19-H ) :   0.9568 B(  5-C , 20-H ) :   0.9568 
B(  6-C , 21-H ) :   0.9435 B(  6-C , 22-H ) :   0.9435 

-------
TIMINGS
-------

Total SCF time: 0 days 0 hours 12 min 3 sec 

Total time                  ....     723.943 sec
Sum of individual times     ....     721.863 sec  ( 99.7%)

Fock matrix formation       ....     717.671 sec  ( 99.1%)
Diagonalization             ....       1.488 sec  (  0.2%)
Density matrix formation    ....       0.069 sec  (  0.0%)
Population analysis         ....       0.255 sec  (  0.0%)
Initial guess               ....       0.550 sec  (  0.1%)
Orbital Transformation      ....       0.000 sec  (  0.0%)
Orbital Orthonormalization  ....       0.000 sec  (  0.0%)
DIIS solution               ....       0.760 sec  (  0.1%)
SOSCF solution              ....       0.948 sec  (  0.1%)

Maximum memory used throughout the entire SCF-calculation: 272.7 MB


           ************************************************************
           *        Program running with 16 parallel MPI-processes    *
           *              working on a common directory               *
           ************************************************************

------------------------------------------------------------------------------
                                ORCA  MP2 
------------------------------------------------------------------------------

Freezing NCore=18 chemical core electrons

-------------
RI-MP2 ENERGY
-------------
Dimension of the basis                    ...  736
Memory devoted to MP2                     ... 3800 MB   
Data format for buffers                   ... DOUBLE
Compression type for matrix containers    ... UNCOMPRESSED
Overall scaling of the MP2 energy         ...   1.000e+00
Calculating two index integrals           ... done (    0.017 sec)
Cholesky decomposition of V**-1           ... done (    0.225 sec)

-----------------
RI-TRANSFORMATION (AUX index driven)
-----------------

Dimension of the orbital-basis         ... 736
Dimension of the aux-basis             ... 1598
Transformation of internal/external MOs...    9-  35 to   36- 735
Number Format for Storage              ... Double (8 Byte)
Integral mode                          ... Direct

First Phase: integral generation and transformation of MO indices
  Aux angular momentum 0               ... done (    0.177 sec)
  Aux angular momentum 1               ... done (    0.329 sec)
  Aux angular momentum 2               ... done (    0.413 sec)
  Aux angular momentum 3               ... done (    0.386 sec)
  Aux angular momentum 4               ... done (    0.238 sec)
Closing buffer VIA ( 0.23 GB; CompressionRatio= 1.00)
  Phase 1 completed in     1.681 sec
Second Phase: sorting and transformation of aux index

IA-Transformation
Memory available                       ... 3727 MB 
Max. # MO pairs treated in a batch     ... 2    
# of internal orbitals                 ... 27
# batches for internal orbitals        ... 1
Closing buffer IAV ( 0.23 GB; CompressionRatio= 1.00)
(ia|v) transformation done in     0.242 sec

  Phase 2 completed in     0.340 sec
RI-Integral transformation completed in     2.026 sec
Opening buffers                              ... done

Starting loop over batches of integrals:

Operator 0  - window                       ... (  9- 35)x( 36-735)
Operator 0  - Memory available             ...  3800 MB
Operator 0  - Memory needed per MO         ...   8.5 MB
Operator 0  - Number of orbitals per batch ... 2
Operator 0  - Number of batches            ... 1

OPERATOR  0   PASS   0:  MOs     9 ...   10 +   11 ...   12 +   13 ...   14 +   15 ...   16
                            +   17 ...   18 +   19 ...   20 +   21 ...   22 +   23 ...   24
                            +   25 ...   26 +   27 ...   28 +   29 ...   30 +   31 ...   32
                            +   33 ...   34 +   35 ...   35
  Reading integrals       ... ok
Time spent in pair loops =     0.154 sec
Deleting buffer (Ka|jb)[aa] ...done

-----------------------------------------------
 RI-MP2 CORRELATION ENERGY:     -1.697351913 Eh
-----------------------------------------------


-------
TIMINGS
-------

Total time                :    4.544 sec
Integral trafo            :    2.048 sec ( 45.1%)
I/O of integrals          :    0.009 sec (  0.2%)
K(i,j) Operators          :    0.110 sec (  2.4%)
T(i,j) pair energies      :    0.020 sec (  0.4%)
V-calculation             :    0.017 sec (  0.4%)
V**(-1/2)                 :    0.225 sec (  5.0%)
Gamma(ia|P)               :    0.000 sec (  0.0%)
Gamma-Trafo               :    0.000 sec (  0.0%)
D(virtual)                :    0.000 sec (  0.0%)
D(internal)               :    0.000 sec (  0.0%)
W(virtual)                :    0.000 sec (  0.0%)
W(internal)               :    0.000 sec (  0.0%)
L(virtual)                :    0.000 sec (  0.0%)
L(internal)               :    0.000 sec (  0.0%)
G(D)                      :    0.000 sec (  0.0%)
G(Z)                      :    0.000 sec (  0.0%)
Z-Vector Solution         :    0.000 sec (  0.0%)
3-Index Derivative        :    0.000 sec (  0.0%)
2-Index Derivative        :    0.000 sec (  0.0%)
Separable Gradient        :    0.000 sec (  0.0%)


---------------------------------------
MP2 TOTAL ENERGY:     -424.829978669 Eh
---------------------------------------

Maximum memory used throughout the entire MP2-calculation: 168.1 MB

-------------------------   --------------------
FINAL SINGLE POINT ENERGY      -424.829978668755
-------------------------   --------------------


                            ***************************************
                            *     ORCA property calculations      *
                            ***************************************


  WARNING: The energy has been calculated at the MP2 level but the densities
           used in the property calculations are still SCF densities
           MP2 response densities have not been calculated 
           use %mp2 Density relaxed end
           or  %mp2 Density unrelaxed end

                                    ---------------------
                                    Active property flags
                                    ---------------------
   (+) Dipole Moment


------------------------------------------------------------------------------
                       ORCA ELECTRIC PROPERTIES CALCULATION
------------------------------------------------------------------------------

Dipole Moment Calculation                       ... on
Quadrupole Moment Calculation                   ... off
Polarizability Calculation                      ... off
GBWName                                         ... TZ_methyl_hexanoate.gbw
Electron density                                ... TZ_methyl_hexanoate.scfp
The origin for moment calculation is the CENTER OF MASS  = ( 0.157636,  0.091696  0.000000)

-------------
DIPOLE MOMENT
-------------
                                X             Y             Z
Electronic contribution:     10.93050       7.16041       0.00000
Nuclear contribution   :    -11.34981      -6.60211       0.00000
                        -----------------------------------------
Total Dipole Moment    :     -0.41931       0.55830       0.00000
                        -----------------------------------------
Magnitude (a.u.)       :      0.69823
Magnitude (Debye)      :      1.77476



--------------------
Rotational spectrum 
--------------------
 
Rotational constants in cm-1:     0.234824     0.015995     0.015226 
Rotational constants in MHz :  7039.839904   479.529826   456.477392 

 Dipole components along the rotational axes: 
x,y,z [a.u.] :    -0.019536     0.697955     0.000000 
x,y,z [Debye]:    -0.049656     1.774060     0.000000 

 

Timings for individual modules:

Sum of individual times         ...      749.488 sec (=  12.491 min)
GTO integral calculation        ...        9.071 sec (=   0.151 min)   1.2 %
SCF iterations                  ...      731.511 sec (=  12.192 min)  97.6 %
MP2 module                      ...        8.905 sec (=   0.148 min)   1.2 %
                             ****ORCA TERMINATED NORMALLY****
TOTAL RUN TIME: 0 days 0 hours 12 minutes 35 seconds 7 msec
