
                                 *****************
                                 * O   R   C   A *
                                 *****************

                                            #,                                       
                                            ###                                      
                                            ####                                     
                                            #####                                    
                                            ######                                   
                                           ########,                                 
                                     ,,################,,,,,                         
                               ,,#################################,,                 
                          ,,##########################################,,             
                       ,#########################################, ''#####,          
                    ,#############################################,,   '####,        
                  ,##################################################,,,,####,       
                ,###########''''           ''''###############################       
              ,#####''   ,,,,##########,,,,          '''####'''          '####       
            ,##' ,,,,###########################,,,                        '##       
           ' ,,###''''                  '''############,,,                           
         ,,##''                                '''############,,,,        ,,,,,,###''
      ,#''                                            '''#######################'''  
     '                                                          ''''####''''         
             ,#######,   #######,   ,#######,      ##                                
            ,#'     '#,  ##    ##  ,#'     '#,    #''#        ######   ,####,        
            ##       ##  ##   ,#'  ##            #'  '#       #        #'  '#        
            ##       ##  #######   ##           ,######,      #####,   #    #        
            '#,     ,#'  ##    ##  '#,     ,#' ,#      #,         ##   #,  ,#        
             '#######'   ##     ##  '#######'  #'      '#     #####' # '####'        



                  #######################################################
                  #                        -***-                        #
                  #          Department of theory and spectroscopy      #
                  #    Directorship and core code : Frank Neese         #
                  #        Max Planck Institute fuer Kohlenforschung    #
                  #                Kaiser Wilhelm Platz 1               #
                  #                 D-45470 Muelheim/Ruhr               #
                  #                      Germany                        #
                  #                                                     #
                  #                  All rights reserved                #
                  #                        -***-                        #
                  #######################################################


                         Program Version 5.0.3 -  RELEASE  -


 With contributions from (in alphabetic order):
   Daniel Aravena         : Magnetic Suceptibility
   Michael Atanasov       : Ab Initio Ligand Field Theory (pilot matlab implementation)
   Alexander A. Auer      : GIAO ZORA, VPT2 properties, NMR spectrum
   Ute Becker             : Parallelization
   Giovanni Bistoni       : ED, misc. LED, open-shell LED, HFLD
   Martin Brehm           : Molecular dynamics
   Dmytro Bykov           : SCF Hessian
   Vijay G. Chilkuri      : MRCI spin determinant printing, contributions to CSF-ICE
   Dipayan Datta          : RHF DLPNO-CCSD density
   Achintya Kumar Dutta   : EOM-CC, STEOM-CC
   Dmitry Ganyushin       : Spin-Orbit,Spin-Spin,Magnetic field MRCI
   Miquel Garcia          : C-PCM and meta-GGA Hessian, CC/C-PCM, Gaussian charge scheme
   Yang Guo               : DLPNO-NEVPT2, F12-NEVPT2, CIM, IAO-localization
   Andreas Hansen         : Spin unrestricted coupled pair/coupled cluster methods
   Benjamin Helmich-Paris : MC-RPA, TRAH-SCF, COSX integrals
   Lee Huntington         : MR-EOM, pCC
   Robert Izsak           : Overlap fitted RIJCOSX, COSX-SCS-MP3, EOM
   Marcus Kettner         : VPT2
   Christian Kollmar      : KDIIS, OOCD, Brueckner-CCSD(T), CCSD density, CASPT2, CASPT2-K
   Simone Kossmann        : Meta GGA functionals, TD-DFT gradient, OOMP2, MP2 Hessian
   Martin Krupicka        : Initial AUTO-CI
   Lucas Lang             : DCDCAS
   Marvin Lechner         : AUTO-CI (C++ implementation), FIC-MRCC
   Dagmar Lenk            : GEPOL surface, SMD
   Dimitrios Liakos       : Extrapolation schemes; Compound Job, initial MDCI parallelization
   Dimitrios Manganas     : Further ROCIS development; embedding schemes
   Dimitrios Pantazis     : SARC Basis sets
   Anastasios Papadopoulos: AUTO-CI, single reference methods and gradients
   Taras Petrenko         : DFT Hessian,TD-DFT gradient, ASA, ECA, R-Raman, ABS, FL, XAS/XES, NRVS
   Peter Pinski           : DLPNO-MP2, DLPNO-MP2 Gradient
   Christoph Reimann      : Effective Core Potentials
   Marius Retegan         : Local ZFS, SOC
   Christoph Riplinger    : Optimizer, TS searches, QM/MM, DLPNO-CCSD(T), (RO)-DLPNO pert. Triples
   Tobias Risthaus        : Range-separated hybrids, TD-DFT gradient, RPA, STAB
   Michael Roemelt        : Original ROCIS implementation
   Masaaki Saitow         : Open-shell DLPNO-CCSD energy and density
   Barbara Sandhoefer     : DKH picture change effects
   Avijit Sen             : IP-ROCIS
   Kantharuban Sivalingam : CASSCF convergence, NEVPT2, FIC-MRCI
   Bernardo de Souza      : ESD, SOC TD-DFT
   Georgi Stoychev        : AutoAux, RI-MP2 NMR, DLPNO-MP2 response
   Willem Van den Heuvel  : Paramagnetic NMR
   Boris Wezisla          : Elementary symmetry handling
   Frank Wennmohs         : Technical directorship


 We gratefully acknowledge several colleagues who have allowed us to
 interface, adapt or use parts of their codes:
   Stefan Grimme, W. Hujo, H. Kruse, P. Pracht,  : VdW corrections, initial TS optimization,
                  C. Bannwarth, S. Ehlert          DFT functionals, gCP, sTDA/sTD-DF
   Ed Valeev, F. Pavosevic, A. Kumar             : LibInt (2-el integral package), F12 methods
   Garnet Chan, S. Sharma, J. Yang, R. Olivares  : DMRG
   Ulf Ekstrom                                   : XCFun DFT Library
   Mihaly Kallay                                 : mrcc  (arbitrary order and MRCC methods)
   Jiri Pittner, Ondrej Demel                    : Mk-CCSD
   Frank Weinhold                                : gennbo (NPA and NBO analysis)
   Christopher J. Cramer and Donald G. Truhlar   : smd solvation model
   Lars Goerigk                                  : TD-DFT with DH, B97 family of functionals
   V. Asgeirsson, H. Jonsson                     : NEB implementation
   FAccTs GmbH                                   : IRC, NEB, NEB-TS, DLPNO-Multilevel, CI-OPT
                                                   MM, QMMM, 2- and 3-layer-ONIOM, Crystal-QMMM,
                                                   LR-CPCM, SF, NACMEs, symmetry and pop. for TD-DFT,
                                                   nearIR, NL-DFT gradient (VV10), updates on ESD,
                                                   ML-optimized integration grids
   S Lehtola, MJT Oliveira, MAL Marques          : LibXC Library
   Liviu Ungur et al                             : ANISO software


 Your calculation uses the libint2 library for the computation of 2-el integrals
 For citations please refer to: http://libint.valeyev.net

 Your ORCA version has been built with support for libXC version: 5.1.0
 For citations please refer to: https://tddft.org/programs/libxc/

 This ORCA versions uses:
   CBLAS   interface :  Fast vector & matrix operations
   LAPACKE interface :  Fast linear algebra routines
   SCALAPACK package :  Parallel linear algebra routines
   Shared memory     :  Shared parallel matrices
   BLAS/LAPACK       :  OpenBLAS 0.3.15  USE64BITINT DYNAMIC_ARCH NO_AFFINITY SkylakeX SINGLE_THREADED
        Core in use  :  SkylakeX
   Copyright (c) 2011-2014, The OpenBLAS Project


================================================================================

----- Orbital basis set information -----
Your calculation utilizes the basis: aug-cc-pVTZ 
    H, B-Ne : Obtained from the ccRepo (grant-hill.group.shef.ac.uk/ccrepo) Feb. 2017
              R. A. Kendall, T. H. Dunning, Jr., R. J. Harrison, J. Chem. Phys. 96, 6796 (1992)
         He : Obtained from the ccRepo (grant-hill.group.shef.ac.uk/ccrepo) Feb. 2017
              D. E. Woon, T. H. Dunning, Jr., J. Chem. Phys. 100, 2975 (1994)
  Li-Be, Na : Obtained from the ccRepo (grant-hill.group.shef.ac.uk/ccrepo) Feb. 2017
              B. P. Prascher, D. E. Woon, K. A. Peterson, T. H. Dunning, Jr., A. K. Wilson, Theor. Chem. Acc. 128, 69 (2011)
         Mg : Obtained from the Peterson Research Group Website (tyr0.chem.wsu.edu/~kipeters) Feb. 2017
              B. P. Prascher, D. E. Woon, K. A. Peterson, T. H. Dunning, Jr., A. K. Wilson, Theor. Chem. Acc. 128, 69 (2011)
      Al-Ar : Obtained from the ccRepo (grant-hill.group.shef.ac.uk/ccrepo) Feb. 2017
              D. E. Woon, T. H. Dunning, Jr., J. Chem. Phys. 98, 1358 (1993)
      Sc-Zn : Obtained from the ccRepo (grant-hill.group.shef.ac.uk/ccrepo) Feb. 2017
              N. B. Balabanov, K. A. Peterson, J. Chem. Phys. 123, 064107 (2005)
              N. B. Balabanov, K. A. Peterson, J. Chem. Phys. 125, 074110 (2006)
      Ga-Kr : Obtained from the ccRepo (grant-hill.group.shef.ac.uk/ccrepo) Feb. 2017
              A. K. Wilson, D. E. Woon, K. A. Peterson, T. H. Dunning, Jr., J. Chem. Phys. 110, 7667 (1999)
     Ag, Au : Obtained from the Peterson Research Group Website (tyr0.chem.wsu.edu/~kipeters) Feb. 2017
              K. A. Peterson, C. Puzzarini, Theor. Chem. Acc. 114, 283 (2005)

----- AuxC basis set information -----
Your calculation utilizes the auxiliary basis: aug-cc-pVTZ/C 
  H-He, B-F, Al-Ar, Ga-Kr : Obtained from the EMSL Basis Set Exchange (bse.pnl.gov) Feb. 2017
                            F. Weigend, A. Kohn, C. Hattig, J. Chem. Phys. 116, 3175 (2002)
                   Be, Mg : Obtained from the TURBOMOLE 7.0 basis set library
                            C. Haettig, Phys. Chem. Chem. Phys. 7, 59 (2005)
                       Ne : Obtained from the EMSL Basis Set Exchange (bse.pnl.gov) Feb. 2017
                            C. Haettig, Phys. Chem. Chem. Phys. 7, 59 (2005)
                            F. Weigend, A. Kohn, C. Hattig, J. Chem. Phys. 116, 3175 (2002)
                    Sc-Zn : Obtained from the EMSL Basis Set Exchange (bse.pnl.gov) Feb. 2017
                            J. G. Hill, J. A. Platts, J. Chem. Phys. 128, 044104 (2008)

================================================================================
                                        WARNINGS
                       Please study these warnings very carefully!
================================================================================


WARNING: No MP2 level density has been requested!
         To caclulate MP2 level properties use
         %mp2 Density relaxed end
         or
         %mp2 Density unrelaxed end

WARNING: Post HF methods need fully converged wavefunctions
  ===> : Setting SCFConvForced true
         You can overwrite this default with %scf ConvForced false 


INFO   : the flag for use of the SHARK integral package has been found!

================================================================================
                                       INPUT FILE
================================================================================
NAME = TZ_o-cresol.inp
|  1> !ri-mp2 aug-cc-pvtz aug-cc-pvtz/c tightscf
|  2> %pal nprocs 16 end
|  3> 
|  4> * xyz 0 1
|  5> C      1.183630   -1.657236    0.000000
|  6> C      1.978197   -0.519415    0.000000
|  7> C     -0.201692   -1.524488    0.000000
|  8> C      1.385481    0.737927    0.000000
|  9> C     -0.822901   -0.278622    0.000000
| 10> C      0.000000    0.854617    0.000000
| 11> C     -2.318300   -0.130060    0.000000
| 12> O     -0.625320    2.075643    0.000000
| 13> H      1.634666   -2.639701    0.000000
| 14> H      3.056498   -0.602769    0.000000
| 15> H     -0.822640   -2.411682    0.000000
| 16> H      1.999453    1.631427    0.000000
| 17> H     -2.661652    0.425255    0.874779
| 18> H     -2.661652    0.425255   -0.874779
| 19> H     -2.803146   -1.104999    0.000000
| 20> H      0.034538    2.775735    0.000000
| 21> *
| 22> 
| 23>                          ****END OF INPUT****
================================================================================

                       ****************************
                       * Single Point Calculation *
                       ****************************

---------------------------------
CARTESIAN COORDINATES (ANGSTROEM)
---------------------------------
  C      1.183630   -1.657236    0.000000
  C      1.978197   -0.519415    0.000000
  C     -0.201692   -1.524488    0.000000
  C      1.385481    0.737927    0.000000
  C     -0.822901   -0.278622    0.000000
  C      0.000000    0.854617    0.000000
  C     -2.318300   -0.130060    0.000000
  O     -0.625320    2.075643    0.000000
  H      1.634666   -2.639701    0.000000
  H      3.056498   -0.602769    0.000000
  H     -0.822640   -2.411682    0.000000
  H      1.999453    1.631427    0.000000
  H     -2.661652    0.425255    0.874779
  H     -2.661652    0.425255   -0.874779
  H     -2.803146   -1.104999    0.000000
  H      0.034538    2.775735    0.000000

----------------------------
CARTESIAN COORDINATES (A.U.)
----------------------------
  NO LB      ZA    FRAG     MASS         X           Y           Z
   0 C     6.0000    0    12.011    2.236737   -3.131722    0.000000
   1 C     6.0000    0    12.011    3.738251   -0.981552    0.000000
   2 C     6.0000    0    12.011   -0.381143   -2.880865    0.000000
   3 C     6.0000    0    12.011    2.618180    1.394480    0.000000
   4 C     6.0000    0    12.011   -1.555058   -0.526519    0.000000
   5 C     6.0000    0    12.011    0.000000    1.614992    0.000000
   6 C     6.0000    0    12.011   -4.380952   -0.245778    0.000000
   7 O     8.0000    0    15.999   -1.181684    3.922397    0.000000
   8 H     1.0000    0     1.008    3.089071   -4.988312    0.000000
   9 H     1.0000    0     1.008    5.775944   -1.139068    0.000000
  10 H     1.0000    0     1.008   -1.554564   -4.557419    0.000000
  11 H     1.0000    0     1.008    3.778419    3.082950    0.000000
  12 H     1.0000    0     1.008   -5.029793    0.803615    1.653093
  13 H     1.0000    0     1.008   -5.029793    0.803615   -1.653093
  14 H     1.0000    0     1.008   -5.297178   -2.088145    0.000000
  15 H     1.0000    0     1.008    0.065267    5.245379    0.000000

--------------------------------
INTERNAL COORDINATES (ANGSTROEM)
--------------------------------
 C      0   0   0     0.000000000000     0.00000000     0.00000000
 C      1   0   0     1.387794417603     0.00000000     0.00000000
 C      1   2   0     1.391667731604   119.45386182     0.00000000
 C      2   1   3     1.390043582633   119.83312719     0.00000000
 C      3   1   2     1.392150391171   121.97522382     0.00000000
 C      4   2   1     1.390386333887   120.05366218     0.00000000
 C      5   3   1     1.502760405735   122.17508219   180.00000000
 O      6   4   2     1.371834390543   121.93248373   180.00000000
 H      1   2   3     1.081050854271   120.41330652   180.00000000
 H      2   1   3     1.081517885158   120.50725301   180.00000000
 H      3   1   2     1.082907942689   119.51457913   180.00000085
 H      4   2   1     1.084114323669   120.26556951   180.00000000
 H      7   5   3     1.091560187974   111.30324449   120.66344469
 H      7   5   3     1.091560187974   111.30324449   239.33655531
 H      7   5   3     1.088844202555   110.76808121     0.00000000
 H      8   6   4     0.962050616458   109.57639910     0.00000000

---------------------------
INTERNAL COORDINATES (A.U.)
---------------------------
 C      0   0   0     0.000000000000     0.00000000     0.00000000
 C      1   0   0     2.622551379454     0.00000000     0.00000000
 C      1   2   0     2.629870882147   119.45386182     0.00000000
 C      2   1   3     2.626801685392   119.83312719     0.00000000
 C      3   1   2     2.630782976544   121.97522382     0.00000000
 C      4   2   1     2.627449391394   120.05366218     0.00000000
 C      5   3   1     2.839805611740   122.17508219   180.00000000
 O      6   4   2     2.592391299221   121.93248373   180.00000000
 H      1   2   3     2.042890051415   120.41330652   180.00000000
 H      2   1   3     2.043772611887   120.50725301   180.00000000
 H      3   1   2     2.046399439931   119.51457913   180.00000085
 H      4   2   1     2.048679169595   120.26556951   180.00000000
 H      7   5   3     2.062749813963   111.30324449   120.66344469
 H      7   5   3     2.062749813963   111.30324449   239.33655531
 H      7   5   3     2.057617345336   110.76808121     0.00000000
 H      8   6   4     1.818012192077   109.57639910     0.00000000

---------------------
BASIS SET INFORMATION
---------------------
There are 3 groups of distinct atoms

 Group   1 Type C   : 19s6p3d2f contracted to 5s4p3d2f pattern {88111/3111/111/11}
 Group   2 Type O   : 19s6p3d2f contracted to 5s4p3d2f pattern {88111/3111/111/11}
 Group   3 Type H   : 6s3p2d contracted to 4s3p2d pattern {3111/111/11}

Atom   0C    basis set group =>   1
Atom   1C    basis set group =>   1
Atom   2C    basis set group =>   1
Atom   3C    basis set group =>   1
Atom   4C    basis set group =>   1
Atom   5C    basis set group =>   1
Atom   6C    basis set group =>   1
Atom   7O    basis set group =>   2
Atom   8H    basis set group =>   3
Atom   9H    basis set group =>   3
Atom  10H    basis set group =>   3
Atom  11H    basis set group =>   3
Atom  12H    basis set group =>   3
Atom  13H    basis set group =>   3
Atom  14H    basis set group =>   3
Atom  15H    basis set group =>   3
---------------------------------
AUXILIARY/C BASIS SET INFORMATION
---------------------------------
There are 3 groups of distinct atoms

 Group   1 Type C   : 9s7p6d4f2g contracted to 9s7p6d4f2g pattern {111111111/1111111/111111/1111/11}
 Group   2 Type O   : 9s7p6d4f2g contracted to 9s7p6d4f2g pattern {111111111/1111111/111111/1111/11}
 Group   3 Type H   : 5s4p3d2f contracted to 5s4p3d2f pattern {11111/1111/111/11}

Atom   0C    basis set group =>   1
Atom   1C    basis set group =>   1
Atom   2C    basis set group =>   1
Atom   3C    basis set group =>   1
Atom   4C    basis set group =>   1
Atom   5C    basis set group =>   1
Atom   6C    basis set group =>   1
Atom   7O    basis set group =>   2
Atom   8H    basis set group =>   3
Atom   9H    basis set group =>   3
Atom  10H    basis set group =>   3
Atom  11H    basis set group =>   3
Atom  12H    basis set group =>   3
Atom  13H    basis set group =>   3
Atom  14H    basis set group =>   3
Atom  15H    basis set group =>   3


           ************************************************************
           *        Program running with 16 parallel MPI-processes    *
           *              working on a common directory               *
           ************************************************************
------------------------------------------------------------------------------
                           ORCA GTO INTEGRAL CALCULATION
------------------------------------------------------------------------------
------------------------------------------------------------------------------
                   ___                                                        
                  /   \      - P O W E R E D   B Y -                         
                 /     \                                                     
                 |  |  |   _    _      __       _____    __    __             
                 |  |  |  | |  | |    /  \     |  _  \  |  |  /  |          
                  \  \/   | |  | |   /    \    | | | |  |  | /  /          
                 / \  \   | |__| |  /  /\  \   | |_| |  |  |/  /          
                |  |  |   |  __  | /  /__\  \  |    /   |      \           
                |  |  |   | |  | | |   __   |  |    \   |  |\   \          
                \     /   | |  | | |  |  |  |  | |\  \  |  | \   \       
                 \___/    |_|  |_| |__|  |__|  |_| \__\ |__|  \__/        
                                                                              
                      - O R C A' S   B I G   F R I E N D -                    
                                      &                                       
                       - I N T E G R A L  F E E D E R -                       
                                                                              
 v1 FN, 2020, v2 2021                                                         
------------------------------------------------------------------------------


Reading SHARK input file TZ_o-cresol.SHARKINP.tmp ... ok
----------------------
SHARK INTEGRAL PACKAGE
----------------------

Number of atoms                             ...     16
Number of basis functions                   ...    600
Number of shells                            ...    232
Maximum angular momentum                    ...      3
Integral batch strategy                     ... SHARK/LIBINT Hybrid
RI-J (if used) integral strategy            ... SPLIT-RIJ (Revised 2003 algorithm where possible)
Printlevel                                  ...      1
Contraction scheme used                     ... PARTIAL GENERAL contraction
Coulomb Range Separation                    ... NOT USED
Exchange Range Separation                   ... NOT USED
Finite Nucleus Model                        ... NOT USED
Auxiliary Coulomb fitting basis             ... NOT available
Auxiliary J/K fitting basis                 ... NOT available
Auxiliary Correlation fitting basis         ... AVAILABLE
   # of basis functions in Aux-C            ...   1216
   # of shells in Aux-C                     ...    336
   Maximum angular momentum in Aux-C        ...      4
Auxiliary 'external' fitting basis          ... NOT available
Integral threshold                          ...     2.500000e-11
Primitive cut-off                           ...     2.500000e-12
Primitive pair pre-selection threshold      ...     2.500000e-12

Calculating pre-screening integrals         ... done (  0.0 sec) Dimension = 232
Calculating pre-screening integrals (ORCA)  ... done (  0.1 sec) Dimension = 184
Organizing shell pair data                  ... done (  0.3 sec)
Shell pair information
Total number of shell pairs                 ...     27028
Shell pairs after pre-screening             ...     23665
Total number of primitive shell pairs       ...     35028
Primitive shell pairs kept                  ...     28633
          la=0 lb=0:   5421 shell pairs
          la=1 lb=0:   6030 shell pairs
          la=1 lb=1:   1526 shell pairs
          la=2 lb=0:   4302 shell pairs
          la=2 lb=1:   2147 shell pairs
          la=2 lb=2:    784 shell pairs
          la=3 lb=0:   1809 shell pairs
          la=3 lb=1:    879 shell pairs
          la=3 lb=2:    631 shell pairs
          la=3 lb=3:    136 shell pairs

Calculating one electron integrals          ... done (  0.0 sec)
Calculating RI/C V-Matrix + Cholesky decomp.... done (  0.1 sec)
Calculating Nuclear repulsion               ... done (  0.0 sec) ENN=    348.697355522577 Eh

SHARK setup successfully completed in   0.8 seconds

Maximum memory used throughout the entire GTOINT-calculation: 35.6 MB


           ************************************************************
           *        Program running with 16 parallel MPI-processes    *
           *              working on a common directory               *
           ************************************************************
-------------------------------------------------------------------------------
                                 ORCA SCF
-------------------------------------------------------------------------------

------------
SCF SETTINGS
------------
Hamiltonian:
 Ab initio Hamiltonian  Method          .... Hartree-Fock(GTOs)


General Settings:
 Integral files         IntName         .... TZ_o-cresol
 Hartree-Fock type      HFTyp           .... RHF
 Total Charge           Charge          ....    0
 Multiplicity           Mult            ....    1
 Number of Electrons    NEL             ....   58
 Basis Dimension        Dim             ....  552
 Nuclear Repulsion      ENuc            ....    348.6973555226 Eh

Convergence Acceleration:
 DIIS                   CNVDIIS         .... on
   Start iteration      DIISMaxIt       ....    12
   Startup error        DIISStart       ....  0.200000
   # of expansion vecs  DIISMaxEq       ....     5
   Bias factor          DIISBfac        ....   1.050
   Max. coefficient     DIISMaxC        ....  10.000
 Trust-Rad. Augm. Hess. CNVTRAH         .... auto
   Auto Start mean grad. ratio tolernc. ....  1.125000
   Auto Start start iteration           ....    20
   Auto Start num. interpolation iter.  ....    10
   Max. Number of Micro iterations      ....    16
   Max. Number of Macro iterations      .... Maxiter - #DIIS iter
   Number of Davidson start vectors     ....     2
   Converg. threshold I  (grad. norm)   ....   1.000e-05
   Converg. threshold II (energy diff.) ....   1.000e-08
   Grad. Scal. Fac. for Micro threshold ....   0.100
   Minimum threshold for Micro iter.    ....   0.010
   NR start threshold (gradient norm)   ....   0.001
   Initial trust radius                 ....   0.400
   Minimum AH scaling param. (alpha)    ....   1.000
   Maximum AH scaling param. (alpha)    .... 1000.000
   Orbital update algorithm             .... Taylor
   White noise on init. David. guess    .... on
   Maximum white noise                  ....   0.010
   Quad. conv. algorithm                .... NR
 SOSCF                  CNVSOSCF        .... on
   Start iteration      SOSCFMaxIt      ....   150
   Startup grad/error   SOSCFStart      ....  0.003300
 Level Shifting         CNVShift        .... on
   Level shift para.    LevelShift      ....    0.2500
   Turn off err/grad.   ShiftErr        ....    0.0010
 Zerner damping         CNVZerner       .... off
 Static damping         CNVDamp         .... on
   Fraction old density DampFac         ....    0.7000
   Max. Damping (<1)    DampMax         ....    0.9800
   Min. Damping (>=0)   DampMin         ....    0.0000
   Turn off err/grad.   DampErr         ....    0.1000
 Fernandez-Rico         CNVRico         .... off

SCF Procedure:
 Maximum # iterations   MaxIter         ....   125
 SCF integral mode      SCFMode         .... Direct
   Integral package                     .... SHARK and LIBINT hybrid scheme
 Reset frequency        DirectResetFreq ....    20
 Integral Threshold     Thresh          ....  2.500e-11 Eh
 Primitive CutOff       TCut            ....  2.500e-12 Eh

Convergence Tolerance:
 Convergence Check Mode ConvCheckMode   .... Total+1el-Energy
 Convergence forced     ConvForced      .... 1
 Energy Change          TolE            ....  1.000e-08 Eh
 1-El. energy change                    ....  1.000e-05 Eh
 Orbital Gradient       TolG            ....  1.000e-05
 Orbital Rotation angle TolX            ....  1.000e-05
 DIIS Error             TolErr          ....  5.000e-07


Diagonalization of the overlap matrix:
Smallest eigenvalue                        ... 5.936e-07
Time for diagonalization                   ...    0.049 sec
Threshold for overlap eigenvalues          ... 1.000e-08
Number of eigenvalues below threshold      ... 0
Time for construction of square roots      ...    0.029 sec
Total time needed                          ...    0.080 sec

Time for model grid setup =    0.078 sec

------------------------------
INITIAL GUESS: MODEL POTENTIAL
------------------------------
Loading Hartree-Fock densities                     ... done
Calculating cut-offs                               ... done
Initializing the effective Hamiltonian             ... done
Setting up the integral package (SHARK)            ... done
Starting the Coulomb interaction                   ... done (   0.1 sec)
Reading the grid                                   ... done
Mapping shells                                     ... done
Starting the XC term evaluation                    ... done (   0.1 sec)
Transforming the Hamiltonian                       ... done (   0.0 sec)
Diagonalizing the Hamiltonian                      ... done (   0.1 sec)
Back transforming the eigenvectors                 ... done (   0.0 sec)
Now organizing SCF variables                       ... done
                      ------------------
                      INITIAL GUESS DONE (   0.4 sec)
                      ------------------
--------------
SCF ITERATIONS
--------------
ITER       Energy         Delta-E        Max-DP      RMS-DP      [F,P]     Damp
               ***  Starting incremental Fock matrix formation  ***
  0   -344.3437226970   0.000000000000 0.06887607  0.00130068  0.2442984 0.7000
  1   -344.4734987554  -0.129776058441 0.06034150  0.00103744  0.1584630 0.7000
                               ***Turning on DIIS***
  2   -344.5539518983  -0.080453142850 0.04505879  0.00075441  0.1095268 0.7000
  3   -345.4991996913  -0.945247793000 0.12899794  0.00197777  0.0818613 0.0000
  4   -344.6200431321   0.879156559182 0.02450784  0.00027343  0.0080971 0.0000
                      *** Initiating the SOSCF procedure ***
                           *** Shutting down DIIS ***
                      *** Re-Reading the Fockian *** 
                      *** Removing any level shift *** 
ITER      Energy       Delta-E        Grad      Rot      Max-DP    RMS-DP
  5   -344.70975953  -0.0897163959  0.001446  0.001446  0.008538  0.000100
               *** Restarting incremental Fock matrix formation ***
  6   -344.72242102  -0.0126614930  0.000485  0.000724  0.001439  0.000026
  7   -344.72244303  -0.0000220108  0.000206  0.000557  0.000861  0.000016
  8   -344.72244726  -0.0000042251  0.000068  0.000071  0.000313  0.000004
  9   -344.72244761  -0.0000003516  0.000022  0.000027  0.000083  0.000001
 10   -344.72244765  -0.0000000417  0.000009  0.000032  0.000058  0.000001
 11   -344.72244766  -0.0000000097  0.000004  0.000016  0.000045  0.000001
                  ***Gradient check signals convergence***
              ***Rediagonalizing the Fockian in SOSCF/NRSCF***

               *****************************************************
               *                     SUCCESS                       *
               *           SCF CONVERGED AFTER  12 CYCLES          *
               *****************************************************


----------------
TOTAL SCF ENERGY
----------------

Total Energy       :         -344.72244766 Eh           -9380.37469 eV

Components:
Nuclear Repulsion  :          348.69735552 Eh            9488.53743 eV
Electronic Energy  :         -693.41980318 Eh          -18868.91212 eV
One Electron Energy:        -1158.72070316 Eh          -31530.39331 eV
Two Electron Energy:          465.30089998 Eh           12661.48119 eV

Virial components:
Potential Energy   :         -688.99269908 Eh          -18748.44449 eV
Kinetic Energy     :          344.27025142 Eh            9368.06980 eV
Virial Ratio       :            2.00131349


---------------
SCF CONVERGENCE
---------------

  Last Energy change         ...   -7.0486e-12  Tolerance :   1.0000e-08
  Last MAX-Density change    ...    4.7041e-05  Tolerance :   1.0000e-07
  Last RMS-Density change    ...    8.2045e-07  Tolerance :   5.0000e-09
  Last Orbital Gradient      ...    1.7071e-06  Tolerance :   1.0000e-05
  Last Orbital Rotation      ...    8.3274e-06  Tolerance :   1.0000e-05

             **** THE GBW FILE WAS UPDATED (TZ_o-cresol.gbw) ****
             **** DENSITY TZ_o-cresol.scfp WAS UPDATED ****
             **** ENERGY FILE WAS UPDATED (TZ_o-cresol.en.tmp) ****
             **** THE GBW FILE WAS UPDATED (TZ_o-cresol.gbw) ****
             **** DENSITY TZ_o-cresol.scfp WAS UPDATED ****
----------------
ORBITAL ENERGIES
----------------

  NO   OCC          E(Eh)            E(eV) 
   0   2.0000     -20.589869      -560.2788 
   1   2.0000     -11.297760      -307.4277 
   2   2.0000     -11.235934      -305.7453 
   3   2.0000     -11.235257      -305.7269 
   4   2.0000     -11.232722      -305.6579 
   5   2.0000     -11.231571      -305.6266 
   6   2.0000     -11.224187      -305.4256 
   7   2.0000     -11.217518      -305.2442 
   8   2.0000      -1.403868       -38.2012 
   9   2.0000      -1.150385       -31.3036 
  10   2.0000      -1.047358       -28.5000 
  11   2.0000      -1.005241       -27.3540 
  12   2.0000      -0.931148       -25.3378 
  13   2.0000      -0.844765       -22.9872 
  14   2.0000      -0.801150       -21.8004 
  15   2.0000      -0.729615       -19.8538 
  16   2.0000      -0.674958       -18.3665 
  17   2.0000      -0.652069       -17.7437 
  18   2.0000      -0.603734       -16.4284 
  19   2.0000      -0.600454       -16.3392 
  20   2.0000      -0.582467       -15.8497 
  21   2.0000      -0.562641       -15.3103 
  22   2.0000      -0.550953       -14.9922 
  23   2.0000      -0.541949       -14.7472 
  24   2.0000      -0.502315       -13.6687 
  25   2.0000      -0.486652       -13.2425 
  26   2.0000      -0.477904       -13.0044 
  27   2.0000      -0.334776        -9.1097 
  28   2.0000      -0.310250        -8.4423 
  29   0.0000       0.026788         0.7289 
  30   0.0000       0.033290         0.9059 
  31   0.0000       0.034111         0.9282 
  32   0.0000       0.045519         1.2386 
  33   0.0000       0.049144         1.3373 
  34   0.0000       0.051900         1.4123 
  35   0.0000       0.065962         1.7949 
  36   0.0000       0.068861         1.8738 
  37   0.0000       0.092821         2.5258 
  38   0.0000       0.098257         2.6737 
  39   0.0000       0.104147         2.8340 
  40   0.0000       0.105181         2.8621 
  41   0.0000       0.108764         2.9596 
  42   0.0000       0.113564         3.0902 
  43   0.0000       0.119993         3.2652 
  44   0.0000       0.120742         3.2856 
  45   0.0000       0.125901         3.4260 
  46   0.0000       0.130673         3.5558 
  47   0.0000       0.133350         3.6286 
  48   0.0000       0.135349         3.6830 
  49   0.0000       0.142169         3.8686 
  50   0.0000       0.143254         3.8981 
  51   0.0000       0.150272         4.0891 
  52   0.0000       0.154545         4.2054 
  53   0.0000       0.160243         4.3604 
  54   0.0000       0.160455         4.3662 
  55   0.0000       0.165099         4.4926 
  56   0.0000       0.170773         4.6470 
  57   0.0000       0.172871         4.7041 
  58   0.0000       0.181226         4.9314 
  59   0.0000       0.182714         4.9719 
  60   0.0000       0.209589         5.7032 
  61   0.0000       0.223207         6.0738 
  62   0.0000       0.225559         6.1378 
  63   0.0000       0.234273         6.3749 
  64   0.0000       0.236927         6.4471 
  65   0.0000       0.246599         6.7103 
  66   0.0000       0.251905         6.8547 
  67   0.0000       0.258992         7.0475 
  68   0.0000       0.261677         7.1206 
  69   0.0000       0.266137         7.2420 
  70   0.0000       0.274245         7.4626 
  71   0.0000       0.286652         7.8002 
  72   0.0000       0.290210         7.8970 
  73   0.0000       0.290864         7.9148 
  74   0.0000       0.310149         8.4396 
  75   0.0000       0.313513         8.5311 
  76   0.0000       0.323852         8.8125 
  77   0.0000       0.326310         8.8793 
  78   0.0000       0.328638         8.9427 
  79   0.0000       0.334418         9.1000 
  80   0.0000       0.335690         9.1346 
  81   0.0000       0.350232         9.5303 
  82   0.0000       0.352166         9.5829 
  83   0.0000       0.354325         9.6417 
  84   0.0000       0.363519         9.8919 
  85   0.0000       0.365894         9.9565 
  86   0.0000       0.379317        10.3217 
  87   0.0000       0.384288        10.4570 
  88   0.0000       0.385668        10.4946 
  89   0.0000       0.387734        10.5508 
  90   0.0000       0.405822        11.0430 
  91   0.0000       0.409311        11.1379 
  92   0.0000       0.411194        11.1892 
  93   0.0000       0.417535        11.3617 
  94   0.0000       0.419059        11.4032 
  95   0.0000       0.425687        11.5835 
  96   0.0000       0.427389        11.6299 
  97   0.0000       0.442924        12.0526 
  98   0.0000       0.444648        12.0995 
  99   0.0000       0.451959        12.2984 
 100   0.0000       0.455179        12.3861 
 101   0.0000       0.457109        12.4386 
 102   0.0000       0.463770        12.6198 
 103   0.0000       0.467004        12.7078 
 104   0.0000       0.471334        12.8257 
 105   0.0000       0.481660        13.1066 
 106   0.0000       0.482764        13.1367 
 107   0.0000       0.484641        13.1878 
 108   0.0000       0.486607        13.2412 
 109   0.0000       0.493045        13.4164 
 110   0.0000       0.496985        13.5237 
 111   0.0000       0.501420        13.6443 
 112   0.0000       0.508260        13.8305 
 113   0.0000       0.512332        13.9413 
 114   0.0000       0.522921        14.2294 
 115   0.0000       0.526132        14.3168 
 116   0.0000       0.533094        14.5062 
 117   0.0000       0.536667        14.6035 
 118   0.0000       0.538487        14.6530 
 119   0.0000       0.546896        14.8818 
 120   0.0000       0.551996        15.0206 
 121   0.0000       0.555000        15.1023 
 122   0.0000       0.563567        15.3354 
 123   0.0000       0.569596        15.4995 
 124   0.0000       0.576903        15.6983 
 125   0.0000       0.588028        16.0010 
 126   0.0000       0.601816        16.3763 
 127   0.0000       0.623214        16.9585 
 128   0.0000       0.629832        17.1386 
 129   0.0000       0.632596        17.2138 
 130   0.0000       0.640508        17.4291 
 131   0.0000       0.645170        17.5560 
 132   0.0000       0.646665        17.5967 
 133   0.0000       0.668139        18.1810 
 134   0.0000       0.684038        18.6136 
 135   0.0000       0.684445        18.6247 
 136   0.0000       0.691110        18.8061 
 137   0.0000       0.696622        18.9561 
 138   0.0000       0.702163        19.1068 
 139   0.0000       0.708290        19.2735 
 140   0.0000       0.726436        19.7673 
 141   0.0000       0.752698        20.4820 
 142   0.0000       0.757537        20.6136 
 143   0.0000       0.762115        20.7382 
 144   0.0000       0.762679        20.7536 
 145   0.0000       0.768551        20.9133 
 146   0.0000       0.768804        20.9202 
 147   0.0000       0.786814        21.4103 
 148   0.0000       0.813579        22.1386 
 149   0.0000       0.814241        22.1566 
 150   0.0000       0.814915        22.1750 
 151   0.0000       0.828082        22.5333 
 152   0.0000       0.841475        22.8977 
 153   0.0000       0.844680        22.9849 
 154   0.0000       0.850106        23.1326 
 155   0.0000       0.855473        23.2786 
 156   0.0000       0.861922        23.4541 
 157   0.0000       0.863574        23.4990 
 158   0.0000       0.871830        23.7237 
 159   0.0000       0.878028        23.8924 
 160   0.0000       0.880331        23.9550 
 161   0.0000       0.887121        24.1398 
 162   0.0000       0.893497        24.3133 
 163   0.0000       0.899497        24.4766 
 164   0.0000       0.900874        24.5140 
 165   0.0000       0.910533        24.7769 
 166   0.0000       0.927338        25.2341 
 167   0.0000       0.929565        25.2948 
 168   0.0000       0.934837        25.4382 
 169   0.0000       0.938232        25.5306 
 170   0.0000       0.951984        25.9048 
 171   0.0000       0.952728        25.9250 
 172   0.0000       0.953703        25.9516 
 173   0.0000       0.963466        26.2172 
 174   0.0000       0.963545        26.2194 
 175   0.0000       0.975206        26.5367 
 176   0.0000       0.991220        26.9725 
 177   0.0000       0.999147        27.1882 
 178   0.0000       1.003870        27.3167 
 179   0.0000       1.008448        27.4413 
 180   0.0000       1.018593        27.7173 
 181   0.0000       1.026622        27.9358 
 182   0.0000       1.026844        27.9419 
 183   0.0000       1.037435        28.2300 
 184   0.0000       1.041038        28.3281 
 185   0.0000       1.042595        28.3705 
 186   0.0000       1.051836        28.6219 
 187   0.0000       1.063468        28.9384 
 188   0.0000       1.074544        29.2398 
 189   0.0000       1.075817        29.2745 
 190   0.0000       1.082826        29.4652 
 191   0.0000       1.089913        29.6581 
 192   0.0000       1.092775        29.7359 
 193   0.0000       1.103075        30.0162 
 194   0.0000       1.107942        30.1486 
 195   0.0000       1.119581        30.4654 
 196   0.0000       1.121904        30.5286 
 197   0.0000       1.123679        30.5769 
 198   0.0000       1.129605        30.7381 
 199   0.0000       1.149749        31.2863 
 200   0.0000       1.161380        31.6028 
 201   0.0000       1.162455        31.6320 
 202   0.0000       1.163204        31.6524 
 203   0.0000       1.164996        31.7011 
 204   0.0000       1.182316        32.1725 
 205   0.0000       1.183925        32.2162 
 206   0.0000       1.194986        32.5172 
 207   0.0000       1.205739        32.8098 
 208   0.0000       1.220490        33.2112 
 209   0.0000       1.221624        33.2421 
 210   0.0000       1.227767        33.4092 
 211   0.0000       1.229966        33.4691 
 212   0.0000       1.237831        33.6831 
 213   0.0000       1.243931        33.8491 
 214   0.0000       1.255493        34.1637 
 215   0.0000       1.262704        34.3599 
 216   0.0000       1.273317        34.6487 
 217   0.0000       1.275574        34.7101 
 218   0.0000       1.287023        35.0217 
 219   0.0000       1.295259        35.2458 
 220   0.0000       1.299073        35.3496 
 221   0.0000       1.327513        36.1235 
 222   0.0000       1.331835        36.2411 
 223   0.0000       1.335940        36.3528 
 224   0.0000       1.357374        36.9360 
 225   0.0000       1.358642        36.9705 
 226   0.0000       1.373029        37.3620 
 227   0.0000       1.385622        37.7047 
 228   0.0000       1.393413        37.9167 
 229   0.0000       1.402572        38.1659 
 230   0.0000       1.407690        38.3052 
 231   0.0000       1.410617        38.3848 
 232   0.0000       1.431662        38.9575 
 233   0.0000       1.432080        38.9689 
 234   0.0000       1.443762        39.2868 
 235   0.0000       1.468913        39.9712 
 236   0.0000       1.470725        40.0205 
 237   0.0000       1.491015        40.5726 
 238   0.0000       1.498969        40.7890 
 239   0.0000       1.510184        41.0942 
 240   0.0000       1.511933        41.1418 
 241   0.0000       1.529318        41.6149 
 242   0.0000       1.534873        41.7660 
 243   0.0000       1.549439        42.1624 
 244   0.0000       1.556683        42.3595 
 245   0.0000       1.576436        42.8970 
 246   0.0000       1.585262        43.1372 
 247   0.0000       1.600581        43.5540 
 248   0.0000       1.608683        43.7745 
 249   0.0000       1.634947        44.4892 
 250   0.0000       1.647721        44.8368 
 251   0.0000       1.653087        44.9828 
 252   0.0000       1.662278        45.2329 
 253   0.0000       1.672885        45.5215 
 254   0.0000       1.682959        45.7957 
 255   0.0000       1.692068        46.0435 
 256   0.0000       1.700711        46.2787 
 257   0.0000       1.726117        46.9700 
 258   0.0000       1.728584        47.0372 
 259   0.0000       1.737302        47.2744 
 260   0.0000       1.753570        47.7171 
 261   0.0000       1.755827        47.7785 
 262   0.0000       1.762506        47.9602 
 263   0.0000       1.768038        48.1108 
 264   0.0000       1.786912        48.6243 
 265   0.0000       1.790145        48.7123 
 266   0.0000       1.798580        48.9418 
 267   0.0000       1.811941        49.3054 
 268   0.0000       1.815570        49.4042 
 269   0.0000       1.830450        49.8091 
 270   0.0000       1.836781        49.9814 
 271   0.0000       1.850737        50.3611 
 272   0.0000       1.862138        50.6714 
 273   0.0000       1.865726        50.7690 
 274   0.0000       1.881417        51.1960 
 275   0.0000       1.897984        51.6468 
 276   0.0000       1.912487        52.0414 
 277   0.0000       1.924090        52.3572 
 278   0.0000       1.929732        52.5107 
 279   0.0000       1.942348        52.8540 
 280   0.0000       1.949210        53.0407 
 281   0.0000       1.960262        53.3414 
 282   0.0000       1.990935        54.1761 
 283   0.0000       1.994827        54.2820 
 284   0.0000       1.998679        54.3868 
 285   0.0000       2.020221        54.9730 
 286   0.0000       2.025929        55.1283 
 287   0.0000       2.042878        55.5895 
 288   0.0000       2.053206        55.8706 
 289   0.0000       2.064112        56.1673 
 290   0.0000       2.073951        56.4351 
 291   0.0000       2.082494        56.6675 
 292   0.0000       2.086400        56.7738 
 293   0.0000       2.103141        57.2294 
 294   0.0000       2.108816        57.3838 
 295   0.0000       2.127867        57.9022 
 296   0.0000       2.128844        57.9288 
 297   0.0000       2.140710        58.2517 
 298   0.0000       2.140761        58.2531 
 299   0.0000       2.151150        58.5358 
 300   0.0000       2.180330        59.3298 
 301   0.0000       2.186922        59.5092 
 302   0.0000       2.194937        59.7273 
 303   0.0000       2.214282        60.2537 
 304   0.0000       2.218033        60.3557 
 305   0.0000       2.252450        61.2923 
 306   0.0000       2.253954        61.3332 
 307   0.0000       2.265691        61.6526 
 308   0.0000       2.276676        61.9515 
 309   0.0000       2.301197        62.6188 
 310   0.0000       2.309552        62.8461 
 311   0.0000       2.323583        63.2279 
 312   0.0000       2.345397        63.8215 
 313   0.0000       2.351924        63.9991 
 314   0.0000       2.358216        64.1703 
 315   0.0000       2.362401        64.2842 
 316   0.0000       2.381324        64.7991 
 317   0.0000       2.420067        65.8534 
 318   0.0000       2.446214        66.5649 
 319   0.0000       2.466282        67.1110 
 320   0.0000       2.478644        67.4473 
 321   0.0000       2.484979        67.6197 
 322   0.0000       2.515035        68.4376 
 323   0.0000       2.533443        68.9385 
 324   0.0000       2.561033        69.6892 
 325   0.0000       2.585029        70.3422 
 326   0.0000       2.590728        70.4973 
 327   0.0000       2.610083        71.0240 
 328   0.0000       2.617977        71.2388 
 329   0.0000       2.666093        72.5481 
 330   0.0000       2.669053        72.6286 
 331   0.0000       2.718050        73.9619 
 332   0.0000       2.723306        74.1049 
 333   0.0000       2.758615        75.0657 
 334   0.0000       2.773977        75.4838 
 335   0.0000       2.784467        75.7692 
 336   0.0000       2.815897        76.6244 
 337   0.0000       2.832970        77.0890 
 338   0.0000       2.868376        78.0525 
 339   0.0000       2.895326        78.7858 
 340   0.0000       2.907685        79.1221 
 341   0.0000       2.931240        79.7631 
 342   0.0000       2.992679        81.4349 
 343   0.0000       3.005681        81.7887 
 344   0.0000       3.053364        83.0863 
 345   0.0000       3.066401        83.4410 
 346   0.0000       3.079517        83.7979 
 347   0.0000       3.160347        85.9974 
 348   0.0000       3.175875        86.4199 
 349   0.0000       3.211729        87.3956 
 350   0.0000       3.213851        87.4533 
 351   0.0000       3.230793        87.9144 
 352   0.0000       3.248372        88.3927 
 353   0.0000       3.278108        89.2019 
 354   0.0000       3.286799        89.4383 
 355   0.0000       3.308518        90.0294 
 356   0.0000       3.350343        91.1675 
 357   0.0000       3.354549        91.2819 
 358   0.0000       3.374692        91.8301 
 359   0.0000       3.394148        92.3595 
 360   0.0000       3.398563        92.4796 
 361   0.0000       3.402777        92.5943 
 362   0.0000       3.416689        92.9728 
 363   0.0000       3.440995        93.6342 
 364   0.0000       3.458998        94.1241 
 365   0.0000       3.481077        94.7249 
 366   0.0000       3.485124        94.8350 
 367   0.0000       3.499523        95.2269 
 368   0.0000       3.507614        95.4470 
 369   0.0000       3.518637        95.7470 
 370   0.0000       3.522960        95.8646 
 371   0.0000       3.541361        96.3653 
 372   0.0000       3.543896        96.4343 
 373   0.0000       3.561839        96.9226 
 374   0.0000       3.574414        97.2647 
 375   0.0000       3.598118        97.9098 
 376   0.0000       3.600567        97.9764 
 377   0.0000       3.626196        98.6738 
 378   0.0000       3.651616        99.3655 
 379   0.0000       3.655836        99.4804 
 380   0.0000       3.661984        99.6476 
 381   0.0000       3.680555       100.1530 
 382   0.0000       3.684457       100.2592 
 383   0.0000       3.694693       100.5377 
 384   0.0000       3.707042       100.8737 
 385   0.0000       3.737628       101.7060 
 386   0.0000       3.759447       102.2998 
 387   0.0000       3.770419       102.5983 
 388   0.0000       3.774231       102.7021 
 389   0.0000       3.785698       103.0141 
 390   0.0000       3.790656       103.1490 
 391   0.0000       3.813930       103.7823 
 392   0.0000       3.840197       104.4971 
 393   0.0000       3.845705       104.6470 
 394   0.0000       3.851848       104.8141 
 395   0.0000       3.883159       105.6661 
 396   0.0000       3.894466       105.9738 
 397   0.0000       3.903480       106.2191 
 398   0.0000       3.910874       106.4203 
 399   0.0000       3.923547       106.7651 
 400   0.0000       3.938266       107.1657 
 401   0.0000       3.951310       107.5206 
 402   0.0000       3.952950       107.5652 
 403   0.0000       3.970491       108.0426 
 404   0.0000       3.981044       108.3297 
 405   0.0000       3.993441       108.6670 
 406   0.0000       4.007693       109.0549 
 407   0.0000       4.021801       109.4388 
 408   0.0000       4.034719       109.7903 
 409   0.0000       4.046591       110.1133 
 410   0.0000       4.048063       110.1534 
 411   0.0000       4.055627       110.3592 
 412   0.0000       4.080491       111.0358 
 413   0.0000       4.113010       111.9207 
 414   0.0000       4.124024       112.2204 
 415   0.0000       4.138761       112.6214 
 416   0.0000       4.147227       112.8518 
 417   0.0000       4.163931       113.3063 
 418   0.0000       4.166669       113.3808 
 419   0.0000       4.173415       113.5644 
 420   0.0000       4.186497       113.9204 
 421   0.0000       4.216375       114.7334 
 422   0.0000       4.233497       115.1993 
 423   0.0000       4.251505       115.6893 
 424   0.0000       4.276540       116.3706 
 425   0.0000       4.283433       116.5581 
 426   0.0000       4.291097       116.7667 
 427   0.0000       4.309510       117.2677 
 428   0.0000       4.313043       117.3639 
 429   0.0000       4.334955       117.9601 
 430   0.0000       4.336813       118.0107 
 431   0.0000       4.366714       118.8243 
 432   0.0000       4.373671       119.0136 
 433   0.0000       4.373919       119.0204 
 434   0.0000       4.391327       119.4941 
 435   0.0000       4.397908       119.6732 
 436   0.0000       4.402116       119.7877 
 437   0.0000       4.409025       119.9757 
 438   0.0000       4.423100       120.3587 
 439   0.0000       4.441117       120.8489 
 440   0.0000       4.472054       121.6908 
 441   0.0000       4.486855       122.0935 
 442   0.0000       4.489281       122.1596 
 443   0.0000       4.509133       122.6997 
 444   0.0000       4.509444       122.7082 
 445   0.0000       4.533771       123.3702 
 446   0.0000       4.539958       123.5385 
 447   0.0000       4.554980       123.9473 
 448   0.0000       4.584596       124.7532 
 449   0.0000       4.624071       125.8274 
 450   0.0000       4.639615       126.2503 
 451   0.0000       4.666829       126.9909 
 452   0.0000       4.683828       127.4534 
 453   0.0000       4.687527       127.5541 
 454   0.0000       4.722072       128.4941 
 455   0.0000       4.725920       128.5988 
 456   0.0000       4.742823       129.0588 
 457   0.0000       4.751711       129.3006 
 458   0.0000       4.777203       129.9943 
 459   0.0000       4.801321       130.6506 
 460   0.0000       4.804206       130.7291 
 461   0.0000       4.824888       131.2919 
 462   0.0000       4.844063       131.8137 
 463   0.0000       4.859733       132.2401 
 464   0.0000       4.861146       132.2785 
 465   0.0000       4.909379       133.5910 
 466   0.0000       4.916465       133.7838 
 467   0.0000       4.949181       134.6740 
 468   0.0000       4.955305       134.8407 
 469   0.0000       4.956767       134.8805 
 470   0.0000       4.972734       135.3150 
 471   0.0000       5.020032       136.6020 
 472   0.0000       5.049232       137.3966 
 473   0.0000       5.056091       137.5832 
 474   0.0000       5.080686       138.2525 
 475   0.0000       5.101842       138.8282 
 476   0.0000       5.108429       139.0074 
 477   0.0000       5.128221       139.5460 
 478   0.0000       5.142646       139.9385 
 479   0.0000       5.145835       140.0253 
 480   0.0000       5.167875       140.6250 
 481   0.0000       5.180337       140.9641 
 482   0.0000       5.193590       141.3248 
 483   0.0000       5.220493       142.0568 
 484   0.0000       5.223417       142.1364 
 485   0.0000       5.228048       142.2624 
 486   0.0000       5.278392       143.6324 
 487   0.0000       5.310160       144.4968 
 488   0.0000       5.325237       144.9071 
 489   0.0000       5.329850       145.0326 
 490   0.0000       5.345625       145.4619 
 491   0.0000       5.387300       146.5959 
 492   0.0000       5.394790       146.7997 
 493   0.0000       5.429161       147.7350 
 494   0.0000       5.442204       148.0899 
 495   0.0000       5.450168       148.3066 
 496   0.0000       5.494296       149.5074 
 497   0.0000       5.502816       149.7392 
 498   0.0000       5.533637       150.5779 
 499   0.0000       5.575971       151.7299 
 500   0.0000       5.599312       152.3650 
 501   0.0000       5.616750       152.8395 
 502   0.0000       5.650141       153.7481 
 503   0.0000       5.678717       154.5257 
 504   0.0000       5.743572       156.2905 
 505   0.0000       5.752164       156.5243 
 506   0.0000       5.782826       157.3587 
 507   0.0000       5.795099       157.6927 
 508   0.0000       5.825514       158.5203 
 509   0.0000       5.861262       159.4930 
 510   0.0000       5.961764       162.2278 
 511   0.0000       6.081572       165.4880 
 512   0.0000       6.103470       166.0839 
 513   0.0000       6.133679       166.9059 
 514   0.0000       6.176144       168.0614 
 515   0.0000       6.194114       168.5504 
 516   0.0000       6.200591       168.7267 
 517   0.0000       6.253714       170.1722 
 518   0.0000       6.290849       171.1827 
 519   0.0000       6.313705       171.8046 
 520   0.0000       6.346815       172.7056 
 521   0.0000       6.448610       175.4756 
 522   0.0000       6.485536       176.4804 
 523   0.0000       6.525164       177.5587 
 524   0.0000       6.684653       181.8987 
 525   0.0000       6.719274       182.8407 
 526   0.0000       6.771599       184.2646 
 527   0.0000       6.821637       185.6262 
 528   0.0000       6.899652       187.7491 
 529   0.0000       6.901716       187.8052 
 530   0.0000       6.957761       189.3303 
 531   0.0000       7.000781       190.5009 
 532   0.0000       7.055403       191.9873 
 533   0.0000       7.085434       192.8045 
 534   0.0000       7.274065       197.9374 
 535   0.0000       7.320311       199.1958 
 536   0.0000       7.439471       202.4383 
 537   0.0000       7.492703       203.8868 
 538   0.0000       7.678123       208.9324 
 539   0.0000       7.680890       209.0076 
 540   0.0000       7.764806       211.2911 
 541   0.0000       8.025058       218.3729 
 542   0.0000       8.418810       229.0875 
 543   0.0000       8.727342       237.4831 
 544   0.0000      16.185917       440.4412 
 545   0.0000      16.287109       443.1948 
 546   0.0000      16.529934       449.8024 
 547   0.0000      18.767036       510.6770 
 548   0.0000      19.013394       517.3808 
 549   0.0000      19.813575       539.1548 
 550   0.0000      20.145248       548.1801 
 551   0.0000      20.733536       564.1882 

                    ********************************
                    * MULLIKEN POPULATION ANALYSIS *
                    ********************************

-----------------------
MULLIKEN ATOMIC CHARGES
-----------------------
   0 C :   -0.580653
   1 C :   -0.327785
   2 C :   -0.691410
   3 C :   -0.895681
   4 C :    0.996410
   5 C :    0.573479
   6 C :   -0.866253
   7 O :   -0.757392
   8 H :    0.641350
   9 H :    0.275586
  10 H :    0.026225
  11 H :    0.690648
  12 H :    0.271356
  13 H :    0.271356
  14 H :    0.268785
  15 H :    0.103978
Sum of atomic charges:    0.0000000

--------------------------------
MULLIKEN REDUCED ORBITAL CHARGES
--------------------------------
  0 C s       :     3.363997  s :     3.363997
      pz      :     1.000846  p :     3.088616
      px      :     1.068710
      py      :     1.019060
      dz2     :     0.007021  d :     0.138205
      dxz     :     0.028148
      dyz     :     0.006611
      dx2y2   :    -0.016938
      dxy     :     0.113364
      f0      :     0.002233  f :    -0.010166
      f+1     :     0.000378
      f-1     :     0.000642
      f+2     :     0.000050
      f-2     :    -0.000006
      f+3     :    -0.000801
      f-3     :    -0.012663
  1 C s       :     3.388209  s :     3.388209
      pz      :     0.956394  p :     3.029215
      px      :     1.048436
      py      :     1.024385
      dz2     :    -0.026778  d :    -0.081897
      dxz     :     0.002384
      dyz     :     0.046693
      dx2y2   :    -0.107563
      dxy     :     0.003368
      f0      :     0.002166  f :    -0.007742
      f+1     :     0.000942
      f-1     :     0.000055
      f+2     :     0.000156
      f-2     :     0.000192
      f+3     :     0.002260
      f-3     :    -0.013513
  2 C s       :     3.665747  s :     3.665747
      pz      :     0.995558  p :     2.932016
      px      :     0.866887
      py      :     1.069572
      dz2     :    -0.025077  d :     0.109628
      dxz     :     0.009512
      dyz     :     0.032349
      dx2y2   :    -0.008658
      dxy     :     0.101502
      f0      :     0.002372  f :    -0.015981
      f+1     :     0.000675
      f-1     :     0.000874
      f+2     :    -0.000005
      f-2     :    -0.001156
      f+3     :    -0.001575
      f-3     :    -0.017167
  3 C s       :     3.713417  s :     3.713417
      pz      :     1.038566  p :     3.012871
      px      :     1.012503
      py      :     0.961802
      dz2     :     0.012583  d :     0.203260
      dxz     :     0.013592
      dyz     :     0.014748
      dx2y2   :     0.056995
      dxy     :     0.105342
      f0      :     0.001972  f :    -0.033867
      f+1     :    -0.001319
      f-1     :     0.000557
      f+2     :    -0.000592
      f-2     :     0.000338
      f+3     :    -0.001731
      f-3     :    -0.033092
  4 C s       :     2.789394  s :     2.789394
      pz      :     0.946669  p :     2.258089
      px      :     0.780757
      py      :     0.530663
      dz2     :    -0.007032  d :     0.058544
      dxz     :    -0.052628
      dyz     :    -0.000816
      dx2y2   :     0.076523
      dxy     :     0.042496
      f0      :    -0.000199  f :    -0.102437
      f+1     :    -0.002422
      f-1     :    -0.002239
      f+2     :    -0.003346
      f-2     :    -0.002686
      f+3     :    -0.015476
      f-3     :    -0.076069
  5 C s       :     3.197798  s :     3.197798
      pz      :     0.950408  p :     2.289842
      px      :     0.810562
      py      :     0.528872
      dz2     :    -0.058496  d :    -0.017016
      dxz     :    -0.019573
      dyz     :     0.053038
      dx2y2   :    -0.015630
      dxy     :     0.023645
      f0      :     0.005338  f :    -0.044103
      f+1     :     0.000186
      f-1     :    -0.001682
      f+2     :     0.000506
      f-2     :     0.005887
      f+3     :    -0.007026
      f-3     :    -0.047311
  6 C s       :     3.339467  s :     3.339467
      pz      :     1.250406  p :     3.422979
      px      :     0.914892
      py      :     1.257681
      dz2     :     0.034547  d :     0.095452
      dxz     :    -0.024851
      dyz     :     0.041097
      dx2y2   :     0.020608
      dxy     :     0.024051
      f0      :     0.002803  f :     0.008355
      f+1     :    -0.000886
      f-1     :     0.002080
      f+2     :     0.002541
      f-2     :     0.000940
      f+3     :     0.001195
      f-3     :    -0.000317
  7 O s       :     4.116586  s :     4.116586
      pz      :     1.852009  p :     4.614677
      px      :     1.539524
      py      :     1.223143
      dz2     :    -0.003802  d :     0.022389
      dxz     :     0.003820
      dyz     :     0.008788
      dx2y2   :     0.002007
      dxy     :     0.011577
      f0      :     0.000602  f :     0.003739
      f+1     :     0.000197
      f-1     :     0.000718
      f+2     :     0.000189
      f-2     :     0.000546
      f+3     :     0.000417
      f-3     :     0.001070
  8 H s       :     0.369244  s :     0.369244
      pz      :     0.018679  p :    -0.014887
      px      :    -0.000277
      py      :    -0.033289
      dz2     :    -0.001253  d :     0.004293
      dxz     :     0.000218
      dyz     :     0.003589
      dx2y2   :    -0.000293
      dxy     :     0.002032
  9 H s       :     0.687702  s :     0.687702
      pz      :     0.013627  p :     0.032265
      px      :     0.007194
      py      :     0.011444
      dz2     :    -0.001419  d :     0.004447
      dxz     :     0.003702
      dyz     :    -0.000305
      dx2y2   :     0.001965
      dxy     :     0.000504
 10 H s       :     0.888721  s :     0.888721
      pz      :     0.025522  p :     0.083294
      px      :     0.007342
      py      :     0.050429
      dz2     :    -0.001275  d :     0.001759
      dxz     :     0.001623
      dyz     :     0.001488
      dx2y2   :     0.000318
      dxy     :    -0.000394
 11 H s       :     0.325876  s :     0.325876
      pz      :     0.015149  p :    -0.018822
      px      :    -0.019504
      py      :    -0.014467
      dz2     :    -0.001459  d :     0.002298
      dxz     :     0.000660
      dyz     :     0.002855
      dx2y2   :    -0.000954
      dxy     :     0.001197
 12 H s       :     0.663134  s :     0.663134
      pz      :     0.022478  p :     0.058172
      px      :     0.019021
      py      :     0.016673
      dz2     :     0.002534  d :     0.007338
      dxz     :     0.001798
      dyz     :    -0.000045
      dx2y2   :     0.002155
      dxy     :     0.000896
 13 H s       :     0.663134  s :     0.663134
      pz      :     0.022478  p :     0.058172
      px      :     0.019021
      py      :     0.016673
      dz2     :     0.002534  d :     0.007338
      dxz     :     0.001798
      dyz     :    -0.000045
      dx2y2   :     0.002155
      dxy     :     0.000896
 14 H s       :     0.673037  s :     0.673037
      pz      :     0.012265  p :     0.049954
      px      :     0.023616
      py      :     0.014073
      dz2     :     0.000093  d :     0.008223
      dxz     :     0.000903
      dyz     :     0.003032
      dx2y2   :     0.002898
      dxy     :     0.001297
 15 H s       :     0.752655  s :     0.752655
      pz      :     0.046804  p :     0.114196
      px      :     0.013733
      py      :     0.053659
      dz2     :     0.001719  d :     0.029171
      dxz     :     0.004770
      dyz     :     0.007134
      dx2y2   :     0.013368
      dxy     :     0.002180


                     *******************************
                     * LOEWDIN POPULATION ANALYSIS *
                     *******************************

----------------------
LOEWDIN ATOMIC CHARGES
----------------------
   0 C :    0.189811
   1 C :    0.181729
   2 C :    0.204640
   3 C :    0.208071
   4 C :   -0.110913
   5 C :   -0.355570
   6 C :    0.574284
   7 O :    0.847361
   8 H :   -0.191776
   9 H :   -0.185025
  10 H :   -0.180226
  11 H :   -0.186379
  12 H :   -0.167845
  13 H :   -0.167845
  14 H :   -0.181427
  15 H :   -0.478891

-------------------------------
LOEWDIN REDUCED ORBITAL CHARGES
-------------------------------
  0 C s       :     2.481120  s :     2.481120
      pz      :     0.610682  p :     2.287577
      px      :     0.844959
      py      :     0.831935
      dz2     :     0.069158  d :     0.705824
      dxz     :     0.113735
      dyz     :     0.057046
      dx2y2   :     0.223387
      dxy     :     0.242499
      f0      :     0.019425  f :     0.335669
      f+1     :     0.029569
      f-1     :     0.022623
      f+2     :     0.039262
      f-2     :     0.031663
      f+3     :     0.060578
      f-3     :     0.132548
  1 C s       :     2.483061  s :     2.483061
      pz      :     0.582320  p :     2.265558
      px      :     0.828469
      py      :     0.854770
      dz2     :     0.069274  d :     0.726740
      dxz     :     0.041156
      dyz     :     0.150280
      dx2y2   :     0.290377
      dxy     :     0.175653
      f0      :     0.020214  f :     0.342912
      f+1     :     0.020675
      f-1     :     0.031132
      f+2     :     0.013534
      f-2     :     0.063449
      f+3     :     0.061259
      f-3     :     0.132650
  2 C s       :     2.473963  s :     2.473963
      pz      :     0.578321  p :     2.252435
      px      :     0.846260
      py      :     0.827855
      dz2     :     0.070586  d :     0.722623
      dxz     :     0.110095
      dyz     :     0.074809
      dx2y2   :     0.199818
      dxy     :     0.267314
      f0      :     0.019968  f :     0.346339
      f+1     :     0.028687
      f-1     :     0.024064
      f+2     :     0.058377
      f-2     :     0.019280
      f+3     :     0.066433
      f-3     :     0.129530
  3 C s       :     2.476213  s :     2.476213
      pz      :     0.629269  p :     2.288429
      px      :     0.829471
      py      :     0.829689
      dz2     :     0.070097  d :     0.687961
      dxz     :     0.100600
      dyz     :     0.070711
      dx2y2   :     0.193822
      dxy     :     0.252732
      f0      :     0.019966  f :     0.339326
      f+1     :     0.029051
      f-1     :     0.024701
      f+2     :     0.055363
      f-2     :     0.022600
      f+3     :     0.066702
      f-3     :     0.120943
  4 C s       :     2.453609  s :     2.453609
      pz      :     0.602285  p :     2.245531
      px      :     0.799599
      py      :     0.843647
      dz2     :     0.082625  d :     0.910770
      dxz     :     0.145999
      dyz     :     0.123679
      dx2y2   :     0.284960
      dxy     :     0.273506
      f0      :     0.035420  f :     0.501004
      f+1     :     0.029894
      f-1     :     0.034670
      f+2     :     0.057771
      f-2     :     0.069399
      f+3     :     0.075096
      f-3     :     0.198755
  5 C s       :     2.449717  s :     2.449717
      pz      :     0.585386  p :     2.169745
      px      :     0.857873
      py      :     0.726487
      dz2     :     0.097675  d :     1.076225
      dxz     :     0.157038
      dyz     :     0.178435
      dx2y2   :     0.313217
      dxy     :     0.329861
      f0      :     0.043234  f :     0.659884
      f+1     :     0.039383
      f-1     :     0.046705
      f+2     :     0.076015
      f-2     :     0.089793
      f+3     :     0.121626
      f-3     :     0.243128
  6 C s       :     2.439807  s :     2.439807
      pz      :     0.765008  p :     2.258222
      px      :     0.730438
      py      :     0.762777
      dz2     :     0.086636  d :     0.537997
      dxz     :     0.118575
      dyz     :     0.077484
      dx2y2   :     0.109848
      dxy     :     0.145453
      f0      :     0.015908  f :     0.189690
      f+1     :     0.025124
      f-1     :     0.018998
      f+2     :     0.030187
      f-2     :     0.012810
      f+3     :     0.037013
      f-3     :     0.049649
  7 O s       :     2.968367  s :     2.968367
      pz      :     1.397516  p :     3.850252
      px      :     1.316301
      py      :     1.136435
      dz2     :     0.028749  d :     0.264938
      dxz     :     0.015213
      dyz     :     0.048900
      dx2y2   :     0.070685
      dxy     :     0.101391
      f0      :     0.005895  f :     0.069081
      f+1     :     0.003268
      f-1     :     0.007487
      f+2     :     0.004240
      f-2     :     0.008029
      f+3     :     0.012712
      f-3     :     0.027450
  8 H s       :     0.674601  s :     0.674601
      pz      :     0.091484  p :     0.302910
      px      :     0.084696
      py      :     0.126731
      dz2     :     0.022804  d :     0.214264
      dxz     :     0.013524
      dyz     :     0.051894
      dx2y2   :     0.065981
      dxy     :     0.060060
  9 H s       :     0.673817  s :     0.673817
      pz      :     0.085354  p :     0.298313
      px      :     0.138130
      py      :     0.074829
      dz2     :     0.022868  d :     0.212894
      dxz     :     0.058410
      dyz     :     0.004995
      dx2y2   :     0.045056
      dxy     :     0.081564
 10 H s       :     0.660483  s :     0.660483
      pz      :     0.082336  p :     0.300549
      px      :     0.102133
      py      :     0.116080
      dz2     :     0.024530  d :     0.219194
      dxz     :     0.022506
      dyz     :     0.040768
      dx2y2   :     0.080102
      dxy     :     0.051288
 11 H s       :     0.665256  s :     0.665256
      pz      :     0.090385  p :     0.301675
      px      :     0.092065
      py      :     0.119224
      dz2     :     0.023724  d :     0.219448
      dxz     :     0.022568
      dyz     :     0.044613
      dx2y2   :     0.075759
      dxy     :     0.052784
 12 H s       :     0.630568  s :     0.630568
      pz      :     0.127742  p :     0.309912
      px      :     0.080881
      py      :     0.101290
      dz2     :     0.078960  d :     0.227365
      dxz     :     0.038990
      dyz     :     0.047142
      dx2y2   :     0.038882
      dxy     :     0.023391
 13 H s       :     0.630568  s :     0.630568
      pz      :     0.127742  p :     0.309912
      px      :     0.080881
      py      :     0.101290
      dz2     :     0.078960  d :     0.227365
      dxz     :     0.038990
      dyz     :     0.047142
      dx2y2   :     0.038882
      dxy     :     0.023391
 14 H s       :     0.633772  s :     0.633772
      pz      :     0.085984  p :     0.314597
      px      :     0.089445
      py      :     0.139168
      dz2     :     0.016859  d :     0.233058
      dxz     :     0.009320
      dyz     :     0.080369
      dx2y2   :     0.075050
      dxy     :     0.051460
 15 H s       :     0.570419  s :     0.570419
      pz      :     0.148841  p :     0.525235
      px      :     0.206674
      py      :     0.169720
      dz2     :     0.036937  d :     0.383236
      dxz     :     0.061032
      dyz     :     0.063728
      dx2y2   :     0.124774
      dxy     :     0.096766


                      *****************************
                      * MAYER POPULATION ANALYSIS *
                      *****************************

  NA   - Mulliken gross atomic population
  ZA   - Total nuclear charge
  QA   - Mulliken gross atomic charge
  VA   - Mayer's total valence
  BVA  - Mayer's bonded valence
  FA   - Mayer's free valence

  ATOM       NA         ZA         QA         VA         BVA        FA
  0 C      6.5807     6.0000    -0.5807     2.9563     2.9563    -0.0000
  1 C      6.3278     6.0000    -0.3278     3.0342     3.0342    -0.0000
  2 C      6.6914     6.0000    -0.6914     2.9894     2.9894     0.0000
  3 C      6.8957     6.0000    -0.8957     2.8547     2.8547    -0.0000
  4 C      5.0036     6.0000     0.9964     2.4265     2.4265     0.0000
  5 C      5.4265     6.0000     0.5735     2.8939     2.8939    -0.0000
  6 C      6.8663     6.0000    -0.8663     3.6428     3.6428     0.0000
  7 O      8.7574     8.0000    -0.7574     1.5517     1.5517     0.0000
  8 H      0.3586     1.0000     0.6414     0.3486     0.3486    -0.0000
  9 H      0.7244     1.0000     0.2756     0.9888     0.9888     0.0000
 10 H      0.9738     1.0000     0.0262     1.3973     1.3973     0.0000
 11 H      0.3094     1.0000     0.6906     0.2437     0.2437     0.0000
 12 H      0.7286     1.0000     0.2714     1.0191     1.0191     0.0000
 13 H      0.7286     1.0000     0.2714     1.0191     1.0191     0.0000
 14 H      0.7312     1.0000     0.2688     1.0197     1.0197     0.0000
 15 H      0.8960     1.0000     0.1040     1.1210     1.1210     0.0000

  Mayer bond orders larger than 0.100000
B(  0-C ,  1-C ) :   1.1561 B(  0-C ,  2-C ) :   1.0750 B(  0-C ,  3-C ) :   0.2915 
B(  0-C ,  4-C ) :   0.2376 B(  0-C ,  8-H ) :   0.4657 B(  0-C ,  9-H ) :  -0.1434 
B(  1-C ,  2-C ) :  -0.2393 B(  1-C ,  3-C ) :   1.1848 B(  1-C ,  5-C ) :  -0.3036 
B(  1-C ,  9-H ) :   1.0373 B(  1-C , 11-H ) :   0.1319 B(  2-C ,  4-C ) :   0.7677 
B(  2-C ,  5-C ) :  -0.3775 B(  2-C ,  6-C ) :   0.1152 B(  2-C , 10-H ) :   1.5983 
B(  3-C ,  4-C ) :   0.2887 B(  3-C ,  5-C ) :   1.1166 B(  3-C ,  7-O ) :  -0.1254 
B(  3-C ,  9-H ) :  -0.1036 B(  3-C , 11-H ) :   0.2282 B(  4-C ,  5-C ) :   1.1218 
B(  4-C ,  6-C ) :   0.3553 B(  4-C , 10-H ) :  -0.1400 B(  5-C ,  6-C ) :   0.1873 
B(  5-C ,  7-O ) :   0.6409 B(  6-C , 12-H ) :   0.9881 B(  6-C , 13-H ) :   0.9881 
B(  6-C , 14-H ) :   1.0102 B(  7-O , 15-H ) :   1.0972 B(  9-H , 10-H ) :   0.1062 


-------
TIMINGS
-------

Total SCF time: 0 days 0 hours 5 min 45 sec 

Total time                  ....     345.160 sec
Sum of individual times     ....     344.071 sec  ( 99.7%)

Fock matrix formation       ....     341.978 sec  ( 99.1%)
Diagonalization             ....       0.544 sec  (  0.2%)
Density matrix formation    ....       0.030 sec  (  0.0%)
Population analysis         ....       0.334 sec  (  0.1%)
Initial guess               ....       0.297 sec  (  0.1%)
Orbital Transformation      ....       0.000 sec  (  0.0%)
Orbital Orthonormalization  ....       0.000 sec  (  0.0%)
DIIS solution               ....       0.245 sec  (  0.1%)
SOSCF solution              ....       0.565 sec  (  0.2%)

Maximum memory used throughout the entire SCF-calculation: 255.2 MB


           ************************************************************
           *        Program running with 16 parallel MPI-processes    *
           *              working on a common directory               *
           ************************************************************

------------------------------------------------------------------------------
                                ORCA  MP2 
------------------------------------------------------------------------------

Freezing NCore=16 chemical core electrons

-------------
RI-MP2 ENERGY
-------------
Dimension of the basis                    ...  552
Memory devoted to MP2                     ...  256 MB   
Data format for buffers                   ... DOUBLE
Compression type for matrix containers    ... UNCOMPRESSED
Overall scaling of the MP2 energy         ...   1.000e+00
Calculating two index integrals           ... done (    0.009 sec)
Cholesky decomposition of V**-1           ... done (    0.146 sec)

-----------------
RI-TRANSFORMATION (AUX index driven)
-----------------

Dimension of the orbital-basis         ... 552
Dimension of the aux-basis             ... 1216
Transformation of internal/external MOs...    8-  28 to   29- 551
Number Format for Storage              ... Double (8 Byte)
Integral mode                          ... Direct

First Phase: integral generation and transformation of MO indices
  Aux angular momentum 0               ... done (    0.067 sec)
  Aux angular momentum 1               ... done (    0.124 sec)
  Aux angular momentum 2               ... done (    0.171 sec)
  Aux angular momentum 3               ... done (    0.143 sec)
  Aux angular momentum 4               ... done (    0.068 sec)
Closing buffer VIA ( 0.10 GB; CompressionRatio= 1.00)
  Phase 1 completed in     0.701 sec
Second Phase: sorting and transformation of aux index

IA-Transformation
Memory available                       ... 196 MB 
Max. # MO pairs treated in a batch     ... 2    
# of internal orbitals                 ... 21
# batches for internal orbitals        ... 1
Closing buffer IAV ( 0.10 GB; CompressionRatio= 1.00)
(ia|v) transformation done in     0.127 sec

  Phase 2 completed in     0.187 sec
RI-Integral transformation completed in     0.893 sec
Opening buffers                              ... done

Starting loop over batches of integrals:

Operator 0  - window                       ... (  8- 28)x( 29-551)
Operator 0  - Memory available             ...   256 MB
Operator 0  - Memory needed per MO         ...   4.9 MB
Operator 0  - Number of orbitals per batch ... 2
Operator 0  - Number of batches            ... 1

OPERATOR  0   PASS   0:  MOs     8 ...    9 +   10 ...   11 +   12 ...   13 +   14 ...   15
                            +   16 ...   17 +   18 ...   19 +   20 ...   21 +   22 ...   23
                            +   24 ...   25 +   26 ...   27 +   28 ...   28
  Reading integrals       ... ok
Time spent in pair loops =     0.065 sec
Deleting buffer (Ka|jb)[aa] ...done

-----------------------------------------------
 RI-MP2 CORRELATION ENERGY:     -1.385245921 Eh
-----------------------------------------------


-------
TIMINGS
-------

Total time                :    1.794 sec
Integral trafo            :    0.907 sec ( 50.6%)
I/O of integrals          :    0.004 sec (  0.2%)
K(i,j) Operators          :    0.046 sec (  2.6%)
T(i,j) pair energies      :    0.006 sec (  0.3%)
V-calculation             :    0.009 sec (  0.5%)
V**(-1/2)                 :    0.146 sec (  8.2%)
Gamma(ia|P)               :    0.000 sec (  0.0%)
Gamma-Trafo               :    0.000 sec (  0.0%)
D(virtual)                :    0.000 sec (  0.0%)
D(internal)               :    0.000 sec (  0.0%)
W(virtual)                :    0.000 sec (  0.0%)
W(internal)               :    0.000 sec (  0.0%)
L(virtual)                :    0.000 sec (  0.0%)
L(internal)               :    0.000 sec (  0.0%)
G(D)                      :    0.000 sec (  0.0%)
G(Z)                      :    0.000 sec (  0.0%)
Z-Vector Solution         :    0.000 sec (  0.0%)
3-Index Derivative        :    0.000 sec (  0.0%)
2-Index Derivative        :    0.000 sec (  0.0%)
Separable Gradient        :    0.000 sec (  0.0%)


---------------------------------------
MP2 TOTAL ENERGY:     -346.107693581 Eh
---------------------------------------

Maximum memory used throughout the entire MP2-calculation: 131.6 MB

-------------------------   --------------------
FINAL SINGLE POINT ENERGY      -346.107693580820
-------------------------   --------------------


                            ***************************************
                            *     ORCA property calculations      *
                            ***************************************


  WARNING: The energy has been calculated at the MP2 level but the densities
           used in the property calculations are still SCF densities
           MP2 response densities have not been calculated 
           use %mp2 Density relaxed end
           or  %mp2 Density unrelaxed end

                                    ---------------------
                                    Active property flags
                                    ---------------------
   (+) Dipole Moment


------------------------------------------------------------------------------
                       ORCA ELECTRIC PROPERTIES CALCULATION
------------------------------------------------------------------------------

Dipole Moment Calculation                       ... on
Quadrupole Moment Calculation                   ... off
Polarizability Calculation                      ... off
GBWName                                         ... TZ_o-cresol.gbw
Electron density                                ... TZ_o-cresol.scfp
The origin for moment calculation is the CENTER OF MASS  = ( 0.038794,  0.025508  0.000000)

-------------
DIPOLE MOMENT
-------------
                                X             Y             Z
Electronic contribution:      2.60156       1.67842      -0.00000
Nuclear contribution   :     -2.25007      -1.47946       0.00000
                        -----------------------------------------
Total Dipole Moment    :      0.35149       0.19895      -0.00000
                        -----------------------------------------
Magnitude (a.u.)       :      0.40389
Magnitude (Debye)      :      1.02660



--------------------
Rotational spectrum 
--------------------
 
Rotational constants in cm-1:     0.109448     0.073564     0.044351 
Rotational constants in MHz :  3281.171262  2205.403046  1329.617708 

 Dipole components along the rotational axes: 
x,y,z [a.u.] :    -0.186275     0.358369    -0.000000 
x,y,z [Debye]:    -0.473474     0.910901    -0.000000 

 

Timings for individual modules:

Sum of individual times         ...      364.369 sec (=   6.073 min)
GTO integral calculation        ...        8.267 sec (=   0.138 min)   2.3 %
SCF iterations                  ...      351.447 sec (=   5.857 min)  96.5 %
MP2 module                      ...        4.655 sec (=   0.078 min)   1.3 %
                             ****ORCA TERMINATED NORMALLY****
TOTAL RUN TIME: 0 days 0 hours 6 minutes 10 seconds 459 msec
