 Entering Gaussian System, Link 0=g16
 Input=3B-69_10a_imidazole_trimer_mol1.gjf
 Output=3B-69_10a_imidazole_trimer_mol1.log
 Initial command:
 /arc/software/Gaussian/g16.c01/l1.exe "/tmp/slurm/4832759/Gau-2472387.inp" -scrdir="/tmp/slurm/4832759/"
 Entering Link 1 = /arc/software/Gaussian/g16.c01/l1.exe PID=   2472388.
  
 Copyright (c) 1988-2019, Gaussian, Inc.  All Rights Reserved.
  
 This is part of the Gaussian(R) 16 program.  It is based on
 the Gaussian(R) 09 system (copyright 2009, Gaussian, Inc.),
 the Gaussian(R) 03 system (copyright 2003, Gaussian, Inc.),
 the Gaussian(R) 98 system (copyright 1998, Gaussian, Inc.),
 the Gaussian(R) 94 system (copyright 1995, Gaussian, Inc.),
 the Gaussian 92(TM) system (copyright 1992, Gaussian, Inc.),
 the Gaussian 90(TM) system (copyright 1990, Gaussian, Inc.),
 the Gaussian 88(TM) system (copyright 1988, Gaussian, Inc.),
 the Gaussian 86(TM) system (copyright 1986, Carnegie Mellon
 University), and the Gaussian 82(TM) system (copyright 1983,
 Carnegie Mellon University). Gaussian is a federally registered
 trademark of Gaussian, Inc.
  
 This software contains proprietary and confidential information,
 including trade secrets, belonging to Gaussian, Inc.
  
 This software is provided under written license and may be
 used, copied, transmitted, or stored only in accord with that
 written license.
  
 The following legend is applicable only to US Government
 contracts under FAR:
  
                    RESTRICTED RIGHTS LEGEND
  
 Use, reproduction and disclosure by the US Government is
 subject to restrictions as set forth in subparagraphs (a)
 and (c) of the Commercial Computer Software - Restricted
 Rights clause in FAR 52.227-19.
  
 Gaussian, Inc.
 340 Quinnipiac St., Bldg. 40, Wallingford CT 06492
  
  
 ---------------------------------------------------------------
 Warning -- This program may not be used in any manner that
 competes with the business of Gaussian, Inc. or will provide
 assistance to any competitor of Gaussian, Inc.  The licensee
 of this program is prohibited from giving any competitor of
 Gaussian, Inc. access to this program.  By using this program,
 the user acknowledges that Gaussian, Inc. is engaged in the
 business of creating and licensing software in the field of
 computational chemistry and represents and warrants to the
 licensee that it is not a competitor of Gaussian, Inc. and that
 it will not use this program in any manner prohibited above.
 ---------------------------------------------------------------
  

 Cite this work as:
 Gaussian 16, Revision C.01,
 M. J. Frisch, G. W. Trucks, H. B. Schlegel, G. E. Scuseria, 
 M. A. Robb, J. R. Cheeseman, G. Scalmani, V. Barone, 
 G. A. Petersson, H. Nakatsuji, X. Li, M. Caricato, A. V. Marenich, 
 J. Bloino, B. G. Janesko, R. Gomperts, B. Mennucci, H. P. Hratchian, 
 J. V. Ortiz, A. F. Izmaylov, J. L. Sonnenberg, D. Williams-Young, 
 F. Ding, F. Lipparini, F. Egidi, J. Goings, B. Peng, A. Petrone, 
 T. Henderson, D. Ranasinghe, V. G. Zakrzewski, J. Gao, N. Rega, 
 G. Zheng, W. Liang, M. Hada, M. Ehara, K. Toyota, R. Fukuda, 
 J. Hasegawa, M. Ishida, T. Nakajima, Y. Honda, O. Kitao, H. Nakai, 
 T. Vreven, K. Throssell, J. A. Montgomery, Jr., J. E. Peralta, 
 F. Ogliaro, M. J. Bearpark, J. J. Heyd, E. N. Brothers, K. N. Kudin, 
 V. N. Staroverov, T. A. Keith, R. Kobayashi, J. Normand, 
 K. Raghavachari, A. P. Rendell, J. C. Burant, S. S. Iyengar, 
 J. Tomasi, M. Cossi, J. M. Millam, M. Klene, C. Adamo, R. Cammi, 
 J. W. Ochterski, R. L. Martin, K. Morokuma, O. Farkas, 
 J. B. Foresman, and D. J. Fox, Gaussian, Inc., Wallingford CT, 2019.
 
 ******************************************
 Gaussian 16:  ES64L-G16RevC.01  3-Jul-2019
                 8-Apr-2025 
 ******************************************
 %nprocs=16
 Will use up to   16 processors via shared memory.
 %mem=30GB
 %chk=3B-69_10a_imidazole_trimer_mol1.chk
 ----------------------------------------------------------------------
 #t hf aug-cc-pvdz symm=none int=(grid=ultrafine) guess=(read,tcheck) s
 table=(opt,rrhf)
 ----------------------------------------------------------------------
 -----
 title
 -----
 Symbolic Z-matrix:
 Charge =  0 Multiplicity = 1
 N                     1.22516   1.7901    0.79367 
 C                     0.31457   1.19168   1.59033 
 N                     0.09897   1.8928    2.69279 
 C                     0.91828   2.99557   2.59282 
 C                     1.62276   2.94325   1.42272 
 H                     1.61915   1.41035  -0.09321 
 H                    -0.16546   0.25821   1.35379 
 H                     0.96725   3.74456   3.36083 
 H                     2.35778   3.61008   1.01224 
 N                     1.58804   3.5759    7.75786 
 C                     2.49863   4.17432   6.9612 
 N                     2.71422   3.4732    5.85873 
 C                     1.89491   2.37043   5.9587 
 C                     1.19044   2.42275   7.1288 
 H                     1.19404   3.95565   8.64473 
 H                     2.97866   5.10779   7.19773 
 H                     1.84594   1.62144   5.19069 
 H                     0.45541   1.75592   7.53928 
 N                    -1.15275   0.8929    5.06943 
 C                    -2.06334   1.49132   5.86609 
 N                    -2.27893   0.7902    6.96855 
 C                    -1.45962  -0.31257   6.86858 
 C                    -0.75515  -0.26025   5.69848 
 H                    -0.75875   1.27265   4.18255 
 H                    -2.54337   2.42479   5.62955 
 H                    -1.41065  -1.06156   7.63659 
 H                    -0.02012  -0.92708   5.28801 
 
                    Distance matrix (angstroms):
                    1          2          3          4          5
     1  N    0.000000
     2  C    1.349793   0.000000
     3  N    2.210317   1.324189   0.000000
     4  C    2.187302   2.150228   1.377445   0.000000
     5  C    1.372426   2.192590   2.244648   1.366810   0.000000
     6  H    1.042112   2.141041   3.210219   3.196706   2.155888
     7  H    2.143416   1.075984   2.129490   3.194186   3.226750
     8  H    3.236783   3.174565   2.151553   1.073882   2.197288
     9  H    2.154754   3.218318   3.297802   2.224413   1.073971
    10  N    7.198659   6.733842   5.541212   5.240509   6.366744
    11  C    6.733842   6.520158   5.402123   4.792664   5.740854
    12  N    5.541212   5.402123   4.400041   3.757620   4.598953
    13  C    5.240508   4.792663   3.757619   3.560021   4.580102
    14  C    6.366744   5.740854   4.598953   4.580103   5.746065
    15  H    8.144313   7.627428   6.393760   6.133795   7.305222
    16  H    7.422523   7.340042   6.238845   5.469167   6.314622
    17  H    4.443829   3.936038   3.060234   3.081832   3.999324
    18  H    6.789473   5.977308   4.861506   5.120393   6.339147
    19  N    4.974084   3.787668   2.866185   3.852785   5.020544
    20  C    6.052511   4.901666   3.860905   4.676225   5.953061
    21  N    7.169909   5.984372   5.015206   5.850883   7.114427
    22  C    6.966623   5.768058   4.972940   5.905958   7.053998
    23  C    5.672980   4.486569   3.794645   4.800608   5.847990
    24  H    3.960828   2.806811   1.827474   2.882380   4.009882
    25  H    6.163633   5.099380   3.986168   4.640099   5.943303
    26  H    7.867977   6.679132   5.953857   6.879233   7.990765
    27  H    5.397488   4.274811   3.834200   4.850962   5.711305
                    6          7          8          9         10
     6  H    0.000000
     7  H    2.570228   0.000000
     8  H    4.219472   4.179217   0.000000
     9  H    2.570302   4.209330   2.732678   0.000000
    10  N    8.144314   7.422524   4.443829   6.789473   0.000000
    11  C    7.627429   7.340043   3.936038   5.977308   1.349793
    12  N    6.393761   6.238846   3.060234   4.861506   2.210317
    13  C    6.133795   5.469168   3.081831   5.120392   2.187302
    14  C    7.305223   6.314623   3.999324   6.339147   1.372426
    15  H    9.111037   8.287169   5.292975   7.728428   1.042111
    16  H    8.287169   8.219214   4.541576   6.394438   2.143416
    17  H    5.292976   4.541577   2.937357   4.655756   3.236783
    18  H    7.728429   6.394439   4.655756   7.046923   2.154754
    19  N    5.882518   3.896604   3.942793   6.013953   4.683805
    20  C    7.005748   5.048098   4.531869   6.898930   4.610509
    21  N    8.090000   6.022896   5.681685   8.057818   4.830796
    22  C    7.804733   5.693291   5.886789   8.016014   5.019885
    23  C    6.478569   4.415069   4.946687   6.828660   4.944452
    24  H    4.894437   3.063161   3.124837   5.022668   4.857487
    25  H    7.148822   5.350758   4.383298   6.837082   4.787820
    26  H    8.662558   6.539564   6.858226   8.939089   5.523844
    27  H    6.091658   4.111458   5.149089   6.672515   5.381749
                   11         12         13         14         15
    11  C    0.000000
    12  N    1.324189   0.000000
    13  C    2.150227   1.377444   0.000000
    14  C    2.192590   2.244648   1.366810   0.000000
    15  H    2.141040   3.210218   3.196705   2.155887   0.000000
    16  H    1.075984   2.129490   3.194185   3.226750   2.570228
    17  H    3.174565   2.151553   1.073882   2.197288   4.219471
    18  H    3.218318   3.297802   2.224414   1.073971   2.570302
    19  N    5.261083   4.715332   3.501731   3.474474   5.260292
    20  C    5.404557   5.172324   4.055754   3.612346   4.940074
    21  N    5.854688   5.775961   4.575794   3.837630   4.989112
    22  C    5.984018   5.724752   4.390818   3.817393   5.330514
    23  C    5.643305   5.099100   3.743128   3.609655   5.500328
    24  H    5.172141   4.439991   3.376649   3.715168   5.560843
    25  H    5.500527   5.365993   4.450797   4.023559   5.040147
    26  H    6.569094   6.382738   5.051793   4.377657   5.742227
    27  H    5.930259   5.211990   3.871795   4.009411   6.048384
                   16         17         18         19         20
    16  H    0.000000
    17  H    4.179217   0.000000
    18  H    4.209330   2.732678   0.000000
    19  N    6.274027   3.088302   3.071014   0.000000
    20  C    6.346164   3.969325   3.035403   1.349793   0.000000
    21  N    6.807078   4.567967   2.955498   2.210317   1.324189
    22  C    7.013339   4.181207   2.897555   2.187302   2.150227
    23  C    6.708567   3.250274   2.986457   1.372426   2.192590
    24  H    6.145550   2.814680   3.602134   1.042112   2.141040
    25  H    6.336432   4.483745   3.617611   2.143416   1.075984
    26  H    7.584156   4.877124   3.380801   3.236783   3.174565
    27  H    7.004242   3.160168   3.534523   2.154753   3.218318
                   21         22         23         24         25
    21  N    0.000000
    22  C    1.377443   0.000000
    23  C    2.244647   1.366810   0.000000
    24  H    3.210219   3.196705   2.155888   0.000000
    25  H    2.129490   3.194185   3.226750   2.570228   0.000000
    26  H    2.151553   1.073882   2.197287   4.219471   4.179217
    27  H    3.297801   2.224413   1.073971   2.570302   4.209329
                   26         27
    26  H    0.000000
    27  H    2.732677   0.000000
 Symmetry turned off by external request.
 Rotational constants (GHZ):           0.5930794           0.4180554           0.2649298
   453 basis functions,   777 primitive gaussians,   483 cartesian basis functions
    54 alpha electrons       54 beta electrons
       nuclear repulsion energy       909.7023165504 Hartrees.
 NAtoms=   27 NActive=   27 NUniq=   27 SFac= 1.00D+00 NAtFMM=   60 NAOKFM=F Big=F
 ExpMin= 2.97D-02 ExpMax= 9.05D+03 ExpMxC= 3.09D+02 IAcc=3 IRadAn=         5 AccDes= 0.00D+00
 Harris functional with IExCor=  205 and IRadAn=       5 diagonalized for initial guess.
 HarFok:  IExCor=  205 AccDes= 0.00D+00 IRadAn=         5 IDoV= 1 UseB2=F ITyADJ=14
 ICtDFT=  3500011 ScaDFX=  1.000000  1.000000  1.000000  1.000000
 FoFCou: FMM=F IPFlag=           0 FMFlag=      100000 FMFlg1=           0
         NFxFlg=           0 DoJE=T BraDBF=F KetDBF=T FulRan=T
         wScrn=  0.000000 ICntrl=       500 IOpCl=  0 I1Cent=   200000004 NGrid=           0
         NMat0=    1 NMatS0=      1 NMatT0=    0 NMatD0=    1 NMtDS0=    0 NMtDT0=    0
 Symmetry not used in FoFCou.
 SCF Done:  E(RHF) =  -674.549592043     A.U. after   14 cycles
            NFock= 14  Conv=0.53D-08     -V/T= 2.0014

 **********************************************************************

            Population analysis using the SCF Density.

 **********************************************************************

 Alpha  occ. eigenvalues --  -15.65400 -15.62500 -15.59102 -15.57861 -15.54548
 Alpha  occ. eigenvalues --  -15.53132 -11.32686 -11.29366 -11.28012 -11.27749
 Alpha  occ. eigenvalues --  -11.26400 -11.25124 -11.24326 -11.23535 -11.22850
 Alpha  occ. eigenvalues --   -1.36732  -1.33655  -1.31852  -1.19003  -1.15618
 Alpha  occ. eigenvalues --   -1.13840  -1.02909  -0.99978  -0.98809  -0.84681
 Alpha  occ. eigenvalues --   -0.82247  -0.81395  -0.79700  -0.79142  -0.77830
 Alpha  occ. eigenvalues --   -0.77694  -0.74903  -0.73605  -0.62828  -0.62110
 Alpha  occ. eigenvalues --   -0.61956  -0.59861  -0.59447  -0.59298  -0.58694
 Alpha  occ. eigenvalues --   -0.58478  -0.58032  -0.56780  -0.56131  -0.55255
 Alpha  occ. eigenvalues --   -0.46617  -0.42760  -0.42416  -0.41303  -0.39019
 Alpha  occ. eigenvalues --   -0.37228  -0.33755  -0.31221  -0.29779
 Alpha virt. eigenvalues --    0.01920   0.03356   0.03749   0.04838   0.04952
 Alpha virt. eigenvalues --    0.05241   0.06155   0.06285   0.07328   0.07646
 Alpha virt. eigenvalues --    0.08380   0.08810   0.10006   0.11012   0.11054
 Alpha virt. eigenvalues --    0.11621   0.11947   0.12699   0.12970   0.13276
 Alpha virt. eigenvalues --    0.13754   0.14199   0.14564   0.14646   0.14953
 Alpha virt. eigenvalues --    0.15313   0.15994   0.16341   0.16568   0.17002
 Alpha virt. eigenvalues --    0.17046   0.17286   0.17641   0.18001   0.18444
 Alpha virt. eigenvalues --    0.18657   0.18828   0.19209   0.19546   0.20125
 Alpha virt. eigenvalues --    0.20544   0.21053   0.21561   0.21991   0.22323
 Alpha virt. eigenvalues --    0.22798   0.23007   0.23764   0.24458   0.24903
 Alpha virt. eigenvalues --    0.25171   0.25810   0.26306   0.27389   0.27653
 Alpha virt. eigenvalues --    0.28005   0.28316   0.28605   0.29040   0.29303
 Alpha virt. eigenvalues --    0.30048   0.30159   0.30776   0.31545   0.31657
 Alpha virt. eigenvalues --    0.32377   0.32881   0.33094   0.33392   0.34538
 Alpha virt. eigenvalues --    0.35197   0.35344   0.36131   0.36557   0.36918
 Alpha virt. eigenvalues --    0.37389   0.38110   0.38461   0.38687   0.39228
 Alpha virt. eigenvalues --    0.39433   0.39683   0.40426   0.41253   0.41540
 Alpha virt. eigenvalues --    0.42187   0.42739   0.43096   0.43555   0.44284
 Alpha virt. eigenvalues --    0.44378   0.44955   0.45174   0.45750   0.46121
 Alpha virt. eigenvalues --    0.46867   0.47319   0.47976   0.48745   0.49092
 Alpha virt. eigenvalues --    0.49344   0.50041   0.50623   0.51141   0.51615
 Alpha virt. eigenvalues --    0.52217   0.52761   0.53360   0.54180   0.54706
 Alpha virt. eigenvalues --    0.55677   0.55866   0.56589   0.57034   0.58158
 Alpha virt. eigenvalues --    0.59209   0.59851   0.59954   0.60514   0.60830
 Alpha virt. eigenvalues --    0.61382   0.62127   0.62451   0.62774   0.62979
 Alpha virt. eigenvalues --    0.63875   0.64195   0.64384   0.64602   0.65185
 Alpha virt. eigenvalues --    0.65707   0.65746   0.66392   0.66897   0.67464
 Alpha virt. eigenvalues --    0.68045   0.68545   0.68786   0.69366   0.69617
 Alpha virt. eigenvalues --    0.70351   0.70544   0.71229   0.71413   0.72127
 Alpha virt. eigenvalues --    0.72755   0.73831   0.73901   0.74219   0.74839
 Alpha virt. eigenvalues --    0.75042   0.75789   0.76210   0.77195   0.77656
 Alpha virt. eigenvalues --    0.78604   0.78803   0.79313   0.80263   0.80419
 Alpha virt. eigenvalues --    0.81308   0.82036   0.83197   0.83846   0.84255
 Alpha virt. eigenvalues --    0.84640   0.85593   0.86770   0.87085   0.87259
 Alpha virt. eigenvalues --    0.88031   0.88892   0.89173   0.89855   0.90416
 Alpha virt. eigenvalues --    0.90630   0.90992   0.91359   0.92085   0.92545
 Alpha virt. eigenvalues --    0.93600   0.94625   0.95702   0.96244   0.97423
 Alpha virt. eigenvalues --    0.97717   0.99648   0.99700   1.00556   1.01447
 Alpha virt. eigenvalues --    1.01575   1.03094   1.03999   1.04492   1.05150
 Alpha virt. eigenvalues --    1.06506   1.07163   1.07549   1.08301   1.08780
 Alpha virt. eigenvalues --    1.09795   1.10345   1.10667   1.11925   1.12838
 Alpha virt. eigenvalues --    1.13354   1.14436   1.14600   1.15542   1.16080
 Alpha virt. eigenvalues --    1.17301   1.18081   1.18668   1.19176   1.19972
 Alpha virt. eigenvalues --    1.20878   1.20997   1.21549   1.22843   1.24452
 Alpha virt. eigenvalues --    1.25414   1.26101   1.27099   1.28388   1.30213
 Alpha virt. eigenvalues --    1.30818   1.31683   1.31944   1.34211   1.35637
 Alpha virt. eigenvalues --    1.37493   1.38888   1.40767   1.42491   1.43221
 Alpha virt. eigenvalues --    1.44689   1.45780   1.46718   1.47516   1.51688
 Alpha virt. eigenvalues --    1.52175   1.54352   1.55666   1.57680   1.58485
 Alpha virt. eigenvalues --    1.59539   1.59780   1.60701   1.62285   1.62665
 Alpha virt. eigenvalues --    1.63093   1.64685   1.65883   1.66218   1.66673
 Alpha virt. eigenvalues --    1.68588   1.69713   1.70806   1.72038   1.73369
 Alpha virt. eigenvalues --    1.73842   1.74518   1.76344   1.77335   1.77403
 Alpha virt. eigenvalues --    1.79278   1.79500   1.81217   1.82505   1.82645
 Alpha virt. eigenvalues --    1.83068   1.84612   1.85832   1.87191   1.87435
 Alpha virt. eigenvalues --    1.87947   1.89777   1.90659   1.92181   1.92757
 Alpha virt. eigenvalues --    1.93461   1.93986   1.95887   1.96463   1.98743
 Alpha virt. eigenvalues --    1.99207   2.00008   2.01848   2.02806   2.04024
 Alpha virt. eigenvalues --    2.04932   2.07438   2.07835   2.09276   2.10327
 Alpha virt. eigenvalues --    2.11275   2.12585   2.13321   2.13752   2.14775
 Alpha virt. eigenvalues --    2.15073   2.15362   2.17333   2.18489   2.19279
 Alpha virt. eigenvalues --    2.19853   2.20996   2.21495   2.22345   2.23988
 Alpha virt. eigenvalues --    2.25822   2.26559   2.28140   2.29317   2.29782
 Alpha virt. eigenvalues --    2.31353   2.32393   2.34213   2.34805   2.35884
 Alpha virt. eigenvalues --    2.37241   2.38158   2.39247   2.39988   2.41304
 Alpha virt. eigenvalues --    2.44611   2.47564   2.49977   2.52816   2.53993
 Alpha virt. eigenvalues --    2.54701   2.55305   2.56361   2.58521   2.58927
 Alpha virt. eigenvalues --    2.60352   2.61031   2.62799   2.63711   2.66665
 Alpha virt. eigenvalues --    2.69239   2.70067   2.72325   2.72675   2.75635
 Alpha virt. eigenvalues --    2.77289   2.78000   2.78708   2.79196   2.79579
 Alpha virt. eigenvalues --    2.80803   2.80967   2.82932   2.83394   2.84145
 Alpha virt. eigenvalues --    2.84516   2.86472   2.87092   2.89120   2.90029
 Alpha virt. eigenvalues --    2.90906   2.91901   2.95083   2.97422   2.99272
 Alpha virt. eigenvalues --    2.99756   3.01075   3.02187   3.03165   3.04356
 Alpha virt. eigenvalues --    3.05486   3.08563   3.09502   3.10176   3.11746
 Alpha virt. eigenvalues --    3.14696   3.18365   3.19161   3.23031   3.25437
 Alpha virt. eigenvalues --    3.28954   3.31392   3.33905   3.35318   3.36567
 Alpha virt. eigenvalues --    3.37966   3.39108   3.40513   3.42334   3.44017
 Alpha virt. eigenvalues --    3.56698   3.61244   3.63550   3.83934   3.85140
 Alpha virt. eigenvalues --    3.88857   4.15310   4.23687   4.27962
          Condensed to atoms (all electrons):
 Mulliken charges:
               1
     1  N   -0.657772
     2  C    0.661912
     3  N   -0.725339
     4  C    0.725462
     5  C    0.666191
     6  H   -0.028548
     7  H   -0.198389
     8  H   -0.270454
     9  H   -0.242744
    10  N   -0.609402
    11  C    0.773130
    12  N   -0.874026
    13  C    0.690228
    14  C    0.728689
    15  H   -0.037839
    16  H   -0.186059
    17  H   -0.296295
    18  H   -0.274545
    19  N   -0.153884
    20  C    0.674307
    21  N   -0.875896
    22  C    0.464389
    23  C    0.979394
    24  H    0.037132
    25  H   -0.284493
    26  H   -0.291405
    27  H   -0.393743
 Sum of Mulliken charges =   0.00000
 Mulliken charges with hydrogens summed into heavy atoms:
               1
     1  N   -0.686320
     2  C    0.463522
     3  N   -0.725339
     4  C    0.455007
     5  C    0.423447
    10  N   -0.647241
    11  C    0.587071
    12  N   -0.874026
    13  C    0.393933
    14  C    0.454144
    19  N   -0.116752
    20  C    0.389814
    21  N   -0.875896
    22  C    0.172984
    23  C    0.585651
 Electronic spatial extent (au):  <R**2>=          14729.1668
 Charge=              0.0000 electrons
 Dipole moment (field-independent basis, Debye):
    X=              2.6090    Y=              0.9796    Z=             -4.8798  Tot=              5.6195
 NROrb=    453 NOA=    54 NOB=    54 NVA=   399 NVB=   399

 **** Warning!!: The largest alpha MO coefficient is  0.69421126D+02

    12 initial guesses have been made.
 Iteration     1 Dimension    12 NMult     0 NNew     12
 New state      1 was old state      6
 Iteration     2 Dimension    24 NMult    12 NNew     12
 Iteration     3 Dimension    27 NMult    24 NNew      3
 Iteration     4 Dimension    30 NMult    27 NNew      3
 Iteration     5 Dimension    33 NMult    30 NNew      3
 Iteration     6 Dimension    36 NMult    33 NNew      3
 Iteration     7 Dimension    39 NMult    36 NNew      3
 Iteration     8 Dimension    42 NMult    39 NNew      3
 Iteration     9 Dimension    45 NMult    42 NNew      3
 Iteration    10 Dimension    48 NMult    45 NNew      3
 Iteration    11 Dimension    51 NMult    48 NNew      3
 Iteration    12 Dimension    54 NMult    51 NNew      3
 ***********************************************************************
 Stability analysis using <AA,BB:AA,BB> singles matrix:
 ***********************************************************************
 Ground to excited state transition densities written to RWF  633

 Eigenvectors of the stability matrix:
 
 Excited state symmetry could not be determined.
 Eigenvector   1:      Singlet-?Sym  Eigenvalue= 0.2131882  <S**2>=0.000
      53 -> 56         0.42231
      53 -> 78        -0.12147
      54 -> 55        -0.11853
      54 -> 56        -0.34950
      54 -> 57        -0.20606
      54 -> 58         0.11525
      54 -> 59         0.11300
 The wavefunction is stable under the perturbations considered.
 The wavefunction is already stable.

 **********************************************************************

            Population analysis using the SCF Density.

 **********************************************************************

 Alpha  occ. eigenvalues --  -15.65400 -15.62500 -15.59102 -15.57861 -15.54548
 Alpha  occ. eigenvalues --  -15.53132 -11.32686 -11.29366 -11.28012 -11.27749
 Alpha  occ. eigenvalues --  -11.26400 -11.25124 -11.24326 -11.23535 -11.22850
 Alpha  occ. eigenvalues --   -1.36732  -1.33655  -1.31852  -1.19003  -1.15618
 Alpha  occ. eigenvalues --   -1.13840  -1.02909  -0.99978  -0.98809  -0.84681
 Alpha  occ. eigenvalues --   -0.82247  -0.81395  -0.79700  -0.79142  -0.77830
 Alpha  occ. eigenvalues --   -0.77694  -0.74903  -0.73605  -0.62828  -0.62110
 Alpha  occ. eigenvalues --   -0.61956  -0.59861  -0.59447  -0.59298  -0.58694
 Alpha  occ. eigenvalues --   -0.58478  -0.58032  -0.56780  -0.56131  -0.55255
 Alpha  occ. eigenvalues --   -0.46617  -0.42760  -0.42416  -0.41303  -0.39019
 Alpha  occ. eigenvalues --   -0.37228  -0.33755  -0.31221  -0.29779
 Alpha virt. eigenvalues --    0.01920   0.03356   0.03749   0.04838   0.04952
 Alpha virt. eigenvalues --    0.05241   0.06155   0.06285   0.07328   0.07646
 Alpha virt. eigenvalues --    0.08380   0.08810   0.10006   0.11012   0.11054
 Alpha virt. eigenvalues --    0.11621   0.11947   0.12699   0.12970   0.13276
 Alpha virt. eigenvalues --    0.13754   0.14199   0.14564   0.14646   0.14953
 Alpha virt. eigenvalues --    0.15313   0.15994   0.16341   0.16568   0.17002
 Alpha virt. eigenvalues --    0.17046   0.17286   0.17641   0.18001   0.18444
 Alpha virt. eigenvalues --    0.18657   0.18828   0.19209   0.19546   0.20125
 Alpha virt. eigenvalues --    0.20544   0.21053   0.21561   0.21991   0.22323
 Alpha virt. eigenvalues --    0.22798   0.23007   0.23764   0.24458   0.24903
 Alpha virt. eigenvalues --    0.25171   0.25810   0.26306   0.27389   0.27653
 Alpha virt. eigenvalues --    0.28005   0.28316   0.28605   0.29040   0.29303
 Alpha virt. eigenvalues --    0.30048   0.30159   0.30776   0.31545   0.31657
 Alpha virt. eigenvalues --    0.32377   0.32881   0.33094   0.33392   0.34538
 Alpha virt. eigenvalues --    0.35197   0.35344   0.36131   0.36557   0.36918
 Alpha virt. eigenvalues --    0.37389   0.38110   0.38461   0.38687   0.39228
 Alpha virt. eigenvalues --    0.39433   0.39683   0.40426   0.41253   0.41540
 Alpha virt. eigenvalues --    0.42187   0.42739   0.43096   0.43555   0.44284
 Alpha virt. eigenvalues --    0.44378   0.44955   0.45174   0.45750   0.46121
 Alpha virt. eigenvalues --    0.46867   0.47319   0.47976   0.48745   0.49092
 Alpha virt. eigenvalues --    0.49344   0.50041   0.50623   0.51141   0.51615
 Alpha virt. eigenvalues --    0.52217   0.52761   0.53360   0.54180   0.54706
 Alpha virt. eigenvalues --    0.55677   0.55866   0.56589   0.57034   0.58158
 Alpha virt. eigenvalues --    0.59209   0.59851   0.59954   0.60514   0.60830
 Alpha virt. eigenvalues --    0.61382   0.62127   0.62451   0.62774   0.62979
 Alpha virt. eigenvalues --    0.63875   0.64195   0.64384   0.64602   0.65185
 Alpha virt. eigenvalues --    0.65707   0.65746   0.66392   0.66897   0.67464
 Alpha virt. eigenvalues --    0.68045   0.68545   0.68786   0.69366   0.69617
 Alpha virt. eigenvalues --    0.70351   0.70544   0.71229   0.71413   0.72127
 Alpha virt. eigenvalues --    0.72755   0.73831   0.73901   0.74219   0.74839
 Alpha virt. eigenvalues --    0.75042   0.75789   0.76210   0.77195   0.77656
 Alpha virt. eigenvalues --    0.78604   0.78803   0.79313   0.80263   0.80419
 Alpha virt. eigenvalues --    0.81308   0.82036   0.83197   0.83846   0.84255
 Alpha virt. eigenvalues --    0.84640   0.85593   0.86770   0.87085   0.87259
 Alpha virt. eigenvalues --    0.88031   0.88892   0.89173   0.89855   0.90416
 Alpha virt. eigenvalues --    0.90630   0.90992   0.91359   0.92085   0.92545
 Alpha virt. eigenvalues --    0.93600   0.94625   0.95702   0.96244   0.97423
 Alpha virt. eigenvalues --    0.97717   0.99648   0.99700   1.00556   1.01447
 Alpha virt. eigenvalues --    1.01575   1.03094   1.03999   1.04492   1.05150
 Alpha virt. eigenvalues --    1.06506   1.07163   1.07549   1.08301   1.08780
 Alpha virt. eigenvalues --    1.09795   1.10345   1.10667   1.11925   1.12838
 Alpha virt. eigenvalues --    1.13354   1.14436   1.14600   1.15542   1.16080
 Alpha virt. eigenvalues --    1.17301   1.18081   1.18668   1.19176   1.19972
 Alpha virt. eigenvalues --    1.20878   1.20997   1.21549   1.22843   1.24452
 Alpha virt. eigenvalues --    1.25414   1.26101   1.27099   1.28388   1.30213
 Alpha virt. eigenvalues --    1.30818   1.31683   1.31944   1.34211   1.35637
 Alpha virt. eigenvalues --    1.37493   1.38888   1.40767   1.42491   1.43221
 Alpha virt. eigenvalues --    1.44689   1.45780   1.46718   1.47516   1.51688
 Alpha virt. eigenvalues --    1.52175   1.54352   1.55666   1.57680   1.58485
 Alpha virt. eigenvalues --    1.59539   1.59780   1.60701   1.62285   1.62665
 Alpha virt. eigenvalues --    1.63093   1.64685   1.65883   1.66218   1.66673
 Alpha virt. eigenvalues --    1.68588   1.69713   1.70806   1.72038   1.73369
 Alpha virt. eigenvalues --    1.73842   1.74518   1.76344   1.77335   1.77403
 Alpha virt. eigenvalues --    1.79278   1.79500   1.81217   1.82505   1.82645
 Alpha virt. eigenvalues --    1.83068   1.84612   1.85832   1.87191   1.87435
 Alpha virt. eigenvalues --    1.87947   1.89777   1.90659   1.92181   1.92757
 Alpha virt. eigenvalues --    1.93461   1.93986   1.95887   1.96463   1.98743
 Alpha virt. eigenvalues --    1.99207   2.00008   2.01848   2.02806   2.04024
 Alpha virt. eigenvalues --    2.04932   2.07438   2.07835   2.09276   2.10327
 Alpha virt. eigenvalues --    2.11275   2.12585   2.13321   2.13752   2.14775
 Alpha virt. eigenvalues --    2.15073   2.15362   2.17333   2.18489   2.19279
 Alpha virt. eigenvalues --    2.19853   2.20996   2.21495   2.22345   2.23988
 Alpha virt. eigenvalues --    2.25822   2.26559   2.28140   2.29317   2.29782
 Alpha virt. eigenvalues --    2.31353   2.32393   2.34213   2.34805   2.35884
 Alpha virt. eigenvalues --    2.37241   2.38158   2.39247   2.39988   2.41304
 Alpha virt. eigenvalues --    2.44611   2.47564   2.49977   2.52816   2.53993
 Alpha virt. eigenvalues --    2.54701   2.55305   2.56361   2.58521   2.58927
 Alpha virt. eigenvalues --    2.60352   2.61031   2.62799   2.63711   2.66665
 Alpha virt. eigenvalues --    2.69239   2.70067   2.72325   2.72675   2.75635
 Alpha virt. eigenvalues --    2.77289   2.78000   2.78708   2.79196   2.79579
 Alpha virt. eigenvalues --    2.80803   2.80967   2.82932   2.83394   2.84145
 Alpha virt. eigenvalues --    2.84516   2.86472   2.87092   2.89120   2.90029
 Alpha virt. eigenvalues --    2.90906   2.91901   2.95083   2.97422   2.99272
 Alpha virt. eigenvalues --    2.99756   3.01075   3.02187   3.03165   3.04356
 Alpha virt. eigenvalues --    3.05486   3.08563   3.09502   3.10176   3.11746
 Alpha virt. eigenvalues --    3.14696   3.18365   3.19161   3.23031   3.25437
 Alpha virt. eigenvalues --    3.28954   3.31392   3.33905   3.35318   3.36567
 Alpha virt. eigenvalues --    3.37966   3.39108   3.40513   3.42334   3.44017
 Alpha virt. eigenvalues --    3.56698   3.61244   3.63550   3.83934   3.85140
 Alpha virt. eigenvalues --    3.88857   4.15310   4.23687   4.27962
          Condensed to atoms (all electrons):
 Mulliken charges:
               1
     1  N   -0.657772
     2  C    0.661912
     3  N   -0.725339
     4  C    0.725462
     5  C    0.666191
     6  H   -0.028548
     7  H   -0.198389
     8  H   -0.270454
     9  H   -0.242744
    10  N   -0.609402
    11  C    0.773130
    12  N   -0.874026
    13  C    0.690228
    14  C    0.728689
    15  H   -0.037839
    16  H   -0.186059
    17  H   -0.296295
    18  H   -0.274545
    19  N   -0.153884
    20  C    0.674307
    21  N   -0.875896
    22  C    0.464389
    23  C    0.979394
    24  H    0.037132
    25  H   -0.284493
    26  H   -0.291405
    27  H   -0.393743
 Sum of Mulliken charges =   0.00000
 Mulliken charges with hydrogens summed into heavy atoms:
               1
     1  N   -0.686320
     2  C    0.463522
     3  N   -0.725339
     4  C    0.455007
     5  C    0.423447
    10  N   -0.647241
    11  C    0.587071
    12  N   -0.874026
    13  C    0.393933
    14  C    0.454144
    19  N   -0.116752
    20  C    0.389814
    21  N   -0.875896
    22  C    0.172984
    23  C    0.585651
 Electronic spatial extent (au):  <R**2>=          14729.1668
 Charge=              0.0000 electrons
 Dipole moment (field-independent basis, Debye):
    X=              2.6090    Y=              0.9796    Z=             -4.8798  Tot=              5.6195
 Unable to Open any file for archive entry.
 1\1\GINC-SE059\Stability\RHF\Aug-CC-pVDZ\C9H12N6\OHZDE\08-Apr-2025\0\\
 #t hf aug-cc-pvdz symm=none int=(grid=ultrafine) guess=(read,tcheck) s
 table=(opt,rrhf)\\title\\0,1\N,0,1.225156,1.790098,0.793667\C,0,0.3145
 68,1.191681,1.590327\N,0,0.098973,1.892803,2.692789\C,0,0.918281,2.995
 57,2.592821\C,0,1.622758,2.943251,1.422717\H,0,1.619151,1.410346,-0.09
 3212\H,0,-0.165462,0.258212,1.353791\H,0,0.967252,3.744556,3.360834\H,
 0,2.357781,3.610084,1.012244\N,0,1.588037,3.575902,7.757855\C,0,2.4986
 25,4.174319,6.961195\N,0,2.71422,3.473197,5.858733\C,0,1.894912,2.3704
 31,5.9587\C,0,1.190435,2.422749,7.128805\H,0,1.194042,3.955654,8.64473
 3\H,0,2.978655,5.107788,7.19773\H,0,1.845941,1.621444,5.190688\H,0,0.4
 55412,1.755916,7.539278\N,0,-1.152747,0.892902,5.069428\C,0,-2.063336,
 1.491319,5.866087\N,0,-2.27893,0.790197,6.96855\C,0,-1.459623,-0.31256
 9,6.868582\C,0,-0.755146,-0.260251,5.698478\H,0,-0.758752,1.272654,4.1
 82549\H,0,-2.543365,2.424788,5.629552\H,0,-1.410652,-1.061556,7.636594
 \H,0,-0.020123,-0.927084,5.288005\\Version=ES64L-G16RevC.01\HF=-674.54
 9592\RMSD=5.304e-09\Dipole=1.0264626,0.3853873,-1.9198599\Quadrupole=-
 7.5197235,13.8504828,-6.3307593,0.4167102,8.9332581,8.1891337\PG=Unkno
 wn\\@
 The archive entry for this job was punched.


 IT TAKES GREATER CHARACTER TO CARRY OFF GOOD FORTUNE THAN BAD.
                     FRENCH PROVERB.
 Job cpu time:       0 days  2 hours  9 minutes 38.5 seconds.
 Elapsed time:       0 days  0 hours  8 minutes 27.6 seconds.
 File lengths (MBytes):  RWF=    885 Int=      0 D2E=      0 Chk=     26 Scr=      1
 Normal termination of Gaussian 16 at Tue Apr  8 19:10:04 2025.
 Initial command:
 /arc/software/Gaussian/g16.c01/l1.exe "/tmp/slurm/4832759/Gau-2472387.inp" -scrdir="/tmp/slurm/4832759/"
 Entering Link 1 = /arc/software/Gaussian/g16.c01/l1.exe PID=   2473482.
  
 Copyright (c) 1988-2019, Gaussian, Inc.  All Rights Reserved.
  
 This is part of the Gaussian(R) 16 program.  It is based on
 the Gaussian(R) 09 system (copyright 2009, Gaussian, Inc.),
 the Gaussian(R) 03 system (copyright 2003, Gaussian, Inc.),
 the Gaussian(R) 98 system (copyright 1998, Gaussian, Inc.),
 the Gaussian(R) 94 system (copyright 1995, Gaussian, Inc.),
 the Gaussian 92(TM) system (copyright 1992, Gaussian, Inc.),
 the Gaussian 90(TM) system (copyright 1990, Gaussian, Inc.),
 the Gaussian 88(TM) system (copyright 1988, Gaussian, Inc.),
 the Gaussian 86(TM) system (copyright 1986, Carnegie Mellon
 University), and the Gaussian 82(TM) system (copyright 1983,
 Carnegie Mellon University). Gaussian is a federally registered
 trademark of Gaussian, Inc.
  
 This software contains proprietary and confidential information,
 including trade secrets, belonging to Gaussian, Inc.
  
 This software is provided under written license and may be
 used, copied, transmitted, or stored only in accord with that
 written license.
  
 The following legend is applicable only to US Government
 contracts under FAR:
  
                    RESTRICTED RIGHTS LEGEND
  
 Use, reproduction and disclosure by the US Government is
 subject to restrictions as set forth in subparagraphs (a)
 and (c) of the Commercial Computer Software - Restricted
 Rights clause in FAR 52.227-19.
  
 Gaussian, Inc.
 340 Quinnipiac St., Bldg. 40, Wallingford CT 06492
  
  
 ---------------------------------------------------------------
 Warning -- This program may not be used in any manner that
 competes with the business of Gaussian, Inc. or will provide
 assistance to any competitor of Gaussian, Inc.  The licensee
 of this program is prohibited from giving any competitor of
 Gaussian, Inc. access to this program.  By using this program,
 the user acknowledges that Gaussian, Inc. is engaged in the
 business of creating and licensing software in the field of
 computational chemistry and represents and warrants to the
 licensee that it is not a competitor of Gaussian, Inc. and that
 it will not use this program in any manner prohibited above.
 ---------------------------------------------------------------
  

 Cite this work as:
 Gaussian 16, Revision C.01,
 M. J. Frisch, G. W. Trucks, H. B. Schlegel, G. E. Scuseria, 
 M. A. Robb, J. R. Cheeseman, G. Scalmani, V. Barone, 
 G. A. Petersson, H. Nakatsuji, X. Li, M. Caricato, A. V. Marenich, 
 J. Bloino, B. G. Janesko, R. Gomperts, B. Mennucci, H. P. Hratchian, 
 J. V. Ortiz, A. F. Izmaylov, J. L. Sonnenberg, D. Williams-Young, 
 F. Ding, F. Lipparini, F. Egidi, J. Goings, B. Peng, A. Petrone, 
 T. Henderson, D. Ranasinghe, V. G. Zakrzewski, J. Gao, N. Rega, 
 G. Zheng, W. Liang, M. Hada, M. Ehara, K. Toyota, R. Fukuda, 
 J. Hasegawa, M. Ishida, T. Nakajima, Y. Honda, O. Kitao, H. Nakai, 
 T. Vreven, K. Throssell, J. A. Montgomery, Jr., J. E. Peralta, 
 F. Ogliaro, M. J. Bearpark, J. J. Heyd, E. N. Brothers, K. N. Kudin, 
 V. N. Staroverov, T. A. Keith, R. Kobayashi, J. Normand, 
 K. Raghavachari, A. P. Rendell, J. C. Burant, S. S. Iyengar, 
 J. Tomasi, M. Cossi, J. M. Millam, M. Klene, C. Adamo, R. Cammi, 
 J. W. Ochterski, R. L. Martin, K. Morokuma, O. Farkas, 
 J. B. Foresman, and D. J. Fox, Gaussian, Inc., Wallingford CT, 2019.
 
 ******************************************
 Gaussian 16:  ES64L-G16RevC.01  3-Jul-2019
                 8-Apr-2025 
 ******************************************
 %nprocs=16
 Will use up to   16 processors via shared memory.
 %mem=30GB
 %chk=3B-69_10a_imidazole_trimer_mol1.chk
 ----------------------------------------------------------------------
 #t hf aug-cc-pvdz iop(5/13=1,5/36=2,99/5=2) pseudo=read geom=check gue
 ss=(read,tcheck) scf=(maxcycle=1)
 ----------------------------------------------------------------------
 -----
 title
 -----
 Structure from the checkpoint file:  "3B-69_10a_imidazole_trimer_mol1.chk"
 Charge =  0 Multiplicity = 1
 Z-Matrix found in chk file.
 N,0,1.225156,1.790098,0.793667
 C,0,0.314568,1.191681,1.590327
 N,0,0.098973,1.892803,2.692789
 C,0,0.918281,2.99557,2.592821
 C,0,1.622758,2.943251,1.422717
 H,0,1.619151,1.410346,-0.093212
 H,0,-0.165462,0.258212,1.353791
 H,0,0.967252,3.744556,3.360834
 H,0,2.357781,3.610084,1.012244
 N,0,1.588037,3.575902,7.757855
 C,0,2.498625,4.174319,6.961195
 N,0,2.71422,3.473197,5.858733
 C,0,1.894912,2.370431,5.9587
 C,0,1.190435,2.422749,7.128805
 H,0,1.194042,3.955654,8.644733
 H,0,2.978655,5.107788,7.19773
 H,0,1.845941,1.621444,5.190688
 H,0,0.455412,1.755916,7.539278
 N,0,-1.152747,0.892902,5.069428
 C,0,-2.063336,1.491319,5.866087
 N,0,-2.27893,0.790197,6.96855
 C,0,-1.459623,-0.312569,6.868582
 C,0,-0.755146,-0.260251,5.698478
 H,0,-0.758752,1.272654,4.182549
 H,0,-2.543365,2.424788,5.629552
 H,0,-1.410652,-1.061556,7.636594
 H,0,-0.020123,-0.927084,5.288005
 Recover connectivity data from disk.
                    Distance matrix (angstroms):
                    1          2          3          4          5
     1  N    0.000000
     2  C    1.349793   0.000000
     3  N    2.210317   1.324189   0.000000
     4  C    2.187302   2.150228   1.377445   0.000000
     5  C    1.372426   2.192590   2.244648   1.366810   0.000000
     6  H    1.042112   2.141041   3.210219   3.196706   2.155888
     7  H    2.143416   1.075984   2.129490   3.194186   3.226750
     8  H    3.236783   3.174565   2.151553   1.073882   2.197288
     9  H    2.154754   3.218318   3.297802   2.224413   1.073971
    10  N    7.198659   6.733842   5.541212   5.240509   6.366744
    11  C    6.733842   6.520158   5.402123   4.792664   5.740854
    12  N    5.541212   5.402123   4.400041   3.757620   4.598953
    13  C    5.240508   4.792663   3.757619   3.560021   4.580102
    14  C    6.366744   5.740854   4.598953   4.580103   5.746065
    15  H    8.144313   7.627428   6.393760   6.133795   7.305222
    16  H    7.422523   7.340042   6.238845   5.469167   6.314622
    17  H    4.443829   3.936038   3.060234   3.081832   3.999324
    18  H    6.789473   5.977308   4.861506   5.120393   6.339147
    19  N    4.974084   3.787668   2.866185   3.852785   5.020544
    20  C    6.052511   4.901666   3.860905   4.676225   5.953061
    21  N    7.169909   5.984372   5.015206   5.850883   7.114427
    22  C    6.966623   5.768058   4.972940   5.905958   7.053998
    23  C    5.672980   4.486569   3.794645   4.800608   5.847990
    24  H    3.960828   2.806811   1.827474   2.882380   4.009882
    25  H    6.163633   5.099380   3.986168   4.640099   5.943303
    26  H    7.867977   6.679132   5.953857   6.879233   7.990765
    27  H    5.397488   4.274811   3.834200   4.850962   5.711305
                    6          7          8          9         10
     6  H    0.000000
     7  H    2.570228   0.000000
     8  H    4.219472   4.179217   0.000000
     9  H    2.570302   4.209330   2.732678   0.000000
    10  N    8.144314   7.422524   4.443829   6.789473   0.000000
    11  C    7.627429   7.340043   3.936038   5.977308   1.349793
    12  N    6.393761   6.238846   3.060234   4.861506   2.210317
    13  C    6.133795   5.469168   3.081831   5.120392   2.187302
    14  C    7.305223   6.314623   3.999324   6.339147   1.372426
    15  H    9.111037   8.287169   5.292975   7.728428   1.042111
    16  H    8.287169   8.219214   4.541576   6.394438   2.143416
    17  H    5.292976   4.541577   2.937357   4.655756   3.236783
    18  H    7.728429   6.394439   4.655756   7.046923   2.154754
    19  N    5.882518   3.896604   3.942793   6.013953   4.683805
    20  C    7.005748   5.048098   4.531869   6.898930   4.610509
    21  N    8.090000   6.022896   5.681685   8.057818   4.830796
    22  C    7.804733   5.693291   5.886789   8.016014   5.019885
    23  C    6.478569   4.415069   4.946687   6.828660   4.944452
    24  H    4.894437   3.063161   3.124837   5.022668   4.857487
    25  H    7.148822   5.350758   4.383298   6.837082   4.787820
    26  H    8.662558   6.539564   6.858226   8.939089   5.523844
    27  H    6.091658   4.111458   5.149089   6.672515   5.381749
                   11         12         13         14         15
    11  C    0.000000
    12  N    1.324189   0.000000
    13  C    2.150227   1.377444   0.000000
    14  C    2.192590   2.244648   1.366810   0.000000
    15  H    2.141040   3.210218   3.196705   2.155887   0.000000
    16  H    1.075984   2.129490   3.194185   3.226750   2.570228
    17  H    3.174565   2.151553   1.073882   2.197288   4.219471
    18  H    3.218318   3.297802   2.224414   1.073971   2.570302
    19  N    5.261083   4.715332   3.501731   3.474474   5.260292
    20  C    5.404557   5.172324   4.055754   3.612346   4.940074
    21  N    5.854688   5.775961   4.575794   3.837630   4.989112
    22  C    5.984018   5.724752   4.390818   3.817393   5.330514
    23  C    5.643305   5.099100   3.743128   3.609655   5.500328
    24  H    5.172141   4.439991   3.376649   3.715168   5.560843
    25  H    5.500527   5.365993   4.450797   4.023559   5.040147
    26  H    6.569094   6.382738   5.051793   4.377657   5.742227
    27  H    5.930259   5.211990   3.871795   4.009411   6.048384
                   16         17         18         19         20
    16  H    0.000000
    17  H    4.179217   0.000000
    18  H    4.209330   2.732678   0.000000
    19  N    6.274027   3.088302   3.071014   0.000000
    20  C    6.346164   3.969325   3.035403   1.349793   0.000000
    21  N    6.807078   4.567967   2.955498   2.210317   1.324189
    22  C    7.013339   4.181207   2.897555   2.187302   2.150227
    23  C    6.708567   3.250274   2.986457   1.372426   2.192590
    24  H    6.145550   2.814680   3.602134   1.042112   2.141040
    25  H    6.336432   4.483745   3.617611   2.143416   1.075984
    26  H    7.584156   4.877124   3.380801   3.236783   3.174565
    27  H    7.004242   3.160168   3.534523   2.154753   3.218318
                   21         22         23         24         25
    21  N    0.000000
    22  C    1.377443   0.000000
    23  C    2.244647   1.366810   0.000000
    24  H    3.210219   3.196705   2.155888   0.000000
    25  H    2.129490   3.194185   3.226750   2.570228   0.000000
    26  H    2.151553   1.073882   2.197287   4.219471   4.179217
    27  H    3.297801   2.224413   1.073971   2.570302   4.209329
                   26         27
    26  H    0.000000
    27  H    2.732677   0.000000
 Framework group  C1[X(C9H12N6)]
 Deg. of freedom    75
                         Standard orientation:                         
 ---------------------------------------------------------------------
 Center     Atomic      Atomic             Coordinates (Angstroms)
 Number     Number       Type             X           Y           Z
 ---------------------------------------------------------------------
      1          7           0       -4.130794   -0.274913   -0.310035
      2          6           0       -3.140647   -1.189700   -0.241379
      3          7           0       -2.059767   -0.692223    0.339732
      4          6           0       -2.379053    0.609900    0.655779
      5          6           0       -3.657746    0.881958    0.256910
      6          1           0       -5.053383   -0.392661   -0.780102
      7          1           0       -3.226042   -2.193056   -0.620492
      8          1           0       -1.679448    1.272574    1.129740
      9          1           0       -4.239776    1.782194    0.321943
     10          7           0        2.518431    2.427922    0.240585
     11          6           0        1.528283    3.342709    0.171929
     12          7           0        0.447403    2.845232   -0.409183
     13          6           0        0.766688    1.543109   -0.725229
     14          6           0        2.045382    1.271051   -0.326360
     15          1           0        3.441018    2.545669    0.710652
     16          1           0        1.613677    4.346065    0.551042
     17          1           0        0.067084    0.880435   -1.199190
     18          1           0        2.627412    0.370815   -0.391393
     19          7           0        0.567009   -1.829760    0.194554
     20          6           0        1.487882   -1.968428    1.171644
     21          7           0        2.649926   -2.380274    0.688409
     22          6           0        2.458297   -2.508390   -0.669610
     23          6           0        1.173548   -2.168477   -0.989057
     24          1           0       -0.399541   -1.454987    0.300973
     25          1           0        1.294428   -1.761117    2.209593
     26          1           0        3.244604   -2.817118   -1.332656
     27          1           0        0.668711   -2.133093   -1.936316
 ---------------------------------------------------------------------
 Rotational constants (GHZ):           0.5930794           0.4180554           0.2649298
 ======================================================================================================
                                       Pseudopotential Parameters
 ======================================================================================================
  Center     Atomic      Valence      Angular      Power
  Number     Number     Electrons     Momentum     of R      Exponent        Coefficient   SO-Coeffient
 ======================================================================================================
    1          7            7
                                      G and up 
                                                     0        0.0000010       -0.00039818    0.00000000
                                                     2        0.1200000       -0.37616123    0.00000000
                                                     2        0.1400000        2.13837358    0.00000000
                                                     2        0.1600000       -3.36562035    0.00000000
                                                     2        0.2000000        2.53463289    0.00000000
                                                     2        0.3000000       -1.98118833    0.00000000
                                                     2        0.5000000        4.06642919    0.00000000
                                                     2        0.7000000       -6.15327959    0.00000000
                                                     2        1.2000000       10.22492851    0.00000000
                                                     2        2.0000000      -14.94707511    0.00000000
                                      S - G
                                                     0        0.0000010        0.02721443    0.00000000
                                                     2        0.1200000       -0.60186009    0.00000000
                                                     2        0.1600000        1.10088134    0.00000000
                                                     2        0.2600000       -0.59857981    0.00000000
                                                     2        0.6000000        0.21288222    0.00000000
                                                     2        3.0000000        5.09059205    0.00000000
                                      P - G
                                                     0        0.0000010        0.40558062    0.00000000
                                                     2        0.1200000        0.81809854    0.00000000
                                                     2        0.1600000       -2.44952728    0.00000000
                                                     2        0.2800000        4.16638749    0.00000000
                                                     2        0.5000000       -6.02944147    0.00000000
                                                     2        1.1000000        5.78262914    0.00000000
                                      D - G
                                                     0        0.0000010       -0.62770267    0.00000000
                                                     2        0.1600000        0.91438653    0.00000000
                                                     2        0.2600000       -2.00568466    0.00000000
                                                     2        0.5000000        3.30798839    0.00000000
                                                     2        1.1000000       -3.91526108    0.00000000
                                      F - G
                                                     0        0.0000010        0.29726344    0.00000000
                                                     2        0.1200000       -0.41591527    0.00000000
                                                     2        0.1600000        0.51444439    0.00000000
                                                     2        0.4000000       -0.69401726    0.00000000
                                                     2        0.7000000        0.51478123    0.00000000
    2          6            6
                                      G and up 
                                                     0        0.0000010       -0.00007288    0.00000000
                                                     2        0.1200000        0.10466671    0.00000000
                                                     2        0.1400000       -0.65716157    0.00000000
                                                     2        0.1600000        1.18890794    0.00000000
                                                     2        0.2000000       -1.25772850    0.00000000
                                                     2        0.2600000        1.01188378    0.00000000
                                                     2        0.4000000       -1.09380874    0.00000000
                                                     2        0.5000000        0.96944888    0.00000000
                                                     2        1.0000000       -0.79256938    0.00000000
                                                     2        3.0000000        1.06443276    0.00000000
                                      S - G
                                                     0        0.0000010       -0.00635295    0.00000000
                                                     2        0.1200000        0.16918955    0.00000000
                                                     2        0.1600000       -0.38862576    0.00000000
                                                     2        0.2800000        0.25638263    0.00000000
                                                     2        0.5000000        0.29628419    0.00000000
                                                     2        0.9000000       -0.28791512    0.00000000
                                      P - G
                                                     0        0.0000010       -0.04756931    0.00000000
                                                     2        0.1200000        0.28430375    0.00000000
                                                     2        0.1600000       -0.69640032    0.00000000
                                                     2        0.2600000        1.13005668    0.00000000
                                                     2        0.4000000       -1.31433324    0.00000000
                                                     2        0.7000000        0.91526469    0.00000000
                                      D - G
                                                     0        0.0000010       -0.11496411    0.00000000
                                                     2        0.1200000        0.16620776    0.00000000
                                                     2        0.1800000       -0.30959819    0.00000000
                                                     2        0.3000000        0.16621458    0.00000000
                                                     2        0.6000000        0.27350556    0.00000000
                                      F - G
                                                     0        0.0000010        0.12037550    0.00000000
                                                     2        0.1200000       -0.48737077    0.00000000
                                                     2        0.1400000        0.58315350    0.00000000
                                                     2        0.3000000        0.00005188    0.00000000
                                                     2        0.5000000       -1.16063549    0.00000000
                                                     2        0.8000000        2.09053308    0.00000000
    3          7            7
                                      G and up 
                                                     0        0.0000010       -0.00039818    0.00000000
                                                     2        0.1200000       -0.37616123    0.00000000
                                                     2        0.1400000        2.13837358    0.00000000
                                                     2        0.1600000       -3.36562035    0.00000000
                                                     2        0.2000000        2.53463289    0.00000000
                                                     2        0.3000000       -1.98118833    0.00000000
                                                     2        0.5000000        4.06642919    0.00000000
                                                     2        0.7000000       -6.15327959    0.00000000
                                                     2        1.2000000       10.22492851    0.00000000
                                                     2        2.0000000      -14.94707511    0.00000000
                                      S - G
                                                     0        0.0000010        0.02721443    0.00000000
                                                     2        0.1200000       -0.60186009    0.00000000
                                                     2        0.1600000        1.10088134    0.00000000
                                                     2        0.2600000       -0.59857981    0.00000000
                                                     2        0.6000000        0.21288222    0.00000000
                                                     2        3.0000000        5.09059205    0.00000000
                                      P - G
                                                     0        0.0000010        0.40558062    0.00000000
                                                     2        0.1200000        0.81809854    0.00000000
                                                     2        0.1600000       -2.44952728    0.00000000
                                                     2        0.2800000        4.16638749    0.00000000
                                                     2        0.5000000       -6.02944147    0.00000000
                                                     2        1.1000000        5.78262914    0.00000000
                                      D - G
                                                     0        0.0000010       -0.62770267    0.00000000
                                                     2        0.1600000        0.91438653    0.00000000
                                                     2        0.2600000       -2.00568466    0.00000000
                                                     2        0.5000000        3.30798839    0.00000000
                                                     2        1.1000000       -3.91526108    0.00000000
                                      F - G
                                                     0        0.0000010        0.29726344    0.00000000
                                                     2        0.1200000       -0.41591527    0.00000000
                                                     2        0.1600000        0.51444439    0.00000000
                                                     2        0.4000000       -0.69401726    0.00000000
                                                     2        0.7000000        0.51478123    0.00000000
    4          6            6
                                      G and up 
                                                     0        0.0000010       -0.00007288    0.00000000
                                                     2        0.1200000        0.10466671    0.00000000
                                                     2        0.1400000       -0.65716157    0.00000000
                                                     2        0.1600000        1.18890794    0.00000000
                                                     2        0.2000000       -1.25772850    0.00000000
                                                     2        0.2600000        1.01188378    0.00000000
                                                     2        0.4000000       -1.09380874    0.00000000
                                                     2        0.5000000        0.96944888    0.00000000
                                                     2        1.0000000       -0.79256938    0.00000000
                                                     2        3.0000000        1.06443276    0.00000000
                                      S - G
                                                     0        0.0000010       -0.00635295    0.00000000
                                                     2        0.1200000        0.16918955    0.00000000
                                                     2        0.1600000       -0.38862576    0.00000000
                                                     2        0.2800000        0.25638263    0.00000000
                                                     2        0.5000000        0.29628419    0.00000000
                                                     2        0.9000000       -0.28791512    0.00000000
                                      P - G
                                                     0        0.0000010       -0.04756931    0.00000000
                                                     2        0.1200000        0.28430375    0.00000000
                                                     2        0.1600000       -0.69640032    0.00000000
                                                     2        0.2600000        1.13005668    0.00000000
                                                     2        0.4000000       -1.31433324    0.00000000
                                                     2        0.7000000        0.91526469    0.00000000
                                      D - G
                                                     0        0.0000010       -0.11496411    0.00000000
                                                     2        0.1200000        0.16620776    0.00000000
                                                     2        0.1800000       -0.30959819    0.00000000
                                                     2        0.3000000        0.16621458    0.00000000
                                                     2        0.6000000        0.27350556    0.00000000
                                      F - G
                                                     0        0.0000010        0.12037550    0.00000000
                                                     2        0.1200000       -0.48737077    0.00000000
                                                     2        0.1400000        0.58315350    0.00000000
                                                     2        0.3000000        0.00005188    0.00000000
                                                     2        0.5000000       -1.16063549    0.00000000
                                                     2        0.8000000        2.09053308    0.00000000
    5          6            6
                                      G and up 
                                                     0        0.0000010       -0.00007288    0.00000000
                                                     2        0.1200000        0.10466671    0.00000000
                                                     2        0.1400000       -0.65716157    0.00000000
                                                     2        0.1600000        1.18890794    0.00000000
                                                     2        0.2000000       -1.25772850    0.00000000
                                                     2        0.2600000        1.01188378    0.00000000
                                                     2        0.4000000       -1.09380874    0.00000000
                                                     2        0.5000000        0.96944888    0.00000000
                                                     2        1.0000000       -0.79256938    0.00000000
                                                     2        3.0000000        1.06443276    0.00000000
                                      S - G
                                                     0        0.0000010       -0.00635295    0.00000000
                                                     2        0.1200000        0.16918955    0.00000000
                                                     2        0.1600000       -0.38862576    0.00000000
                                                     2        0.2800000        0.25638263    0.00000000
                                                     2        0.5000000        0.29628419    0.00000000
                                                     2        0.9000000       -0.28791512    0.00000000
                                      P - G
                                                     0        0.0000010       -0.04756931    0.00000000
                                                     2        0.1200000        0.28430375    0.00000000
                                                     2        0.1600000       -0.69640032    0.00000000
                                                     2        0.2600000        1.13005668    0.00000000
                                                     2        0.4000000       -1.31433324    0.00000000
                                                     2        0.7000000        0.91526469    0.00000000
                                      D - G
                                                     0        0.0000010       -0.11496411    0.00000000
                                                     2        0.1200000        0.16620776    0.00000000
                                                     2        0.1800000       -0.30959819    0.00000000
                                                     2        0.3000000        0.16621458    0.00000000
                                                     2        0.6000000        0.27350556    0.00000000
                                      F - G
                                                     0        0.0000010        0.12037550    0.00000000
                                                     2        0.1200000       -0.48737077    0.00000000
                                                     2        0.1400000        0.58315350    0.00000000
                                                     2        0.3000000        0.00005188    0.00000000
                                                     2        0.5000000       -1.16063549    0.00000000
                                                     2        0.8000000        2.09053308    0.00000000
    6          1            1
                                      F and up 
                                                     0        0.0000010       -0.00007675    0.00000000
                                                     2        0.1200000        0.05352699    0.00000000
                                                     2        0.1400000       -0.25123645    0.00000000
                                                     2        0.1600000        0.32188106    0.00000000
                                                     2        0.2200000       -0.25206857    0.00000000
                                                     2        0.3000000        0.19290477    0.00000000
                                                     2        0.5000000       -0.10129770    0.00000000
                                                     2        0.9000000        0.00314995    0.00000000
                                                     2        1.5000000        0.18401192    0.00000000
                                      S - F
                                                     0        0.0000010        0.08065976    0.00000000
                                                     2        0.1200000       -0.09231673    0.00000000
                                                     2        0.1600000       -0.03278082    0.00000000
                                                     2        0.2800000        0.38423402    0.00000000
                                                     2        0.6000000       -1.09357590    0.00000000
                                                     2        1.1000000        1.53099489    0.00000000
                                                     2        3.0000000       -2.63300202    0.00000000
                                      P - F
                                                     0        0.0000010       -0.11638665    0.00000000
                                                     2        0.1200000        0.35468655    0.00000000
                                                     2        0.1600000       -0.59160923    0.00000000
                                                     2        0.3000000        0.49390547    0.00000000
                                                     2        0.6000000       -0.37949835    0.00000000
                                                     2        1.6000000        0.89304688    0.00000000
                                      D - F
                                                     0        0.0000010        0.05443663    0.00000000
                                                     2        0.1200000       -0.29679479    0.00000000
                                                     2        0.1400000        0.36849872    0.00000000
                                                     2        0.2400000        0.02793449    0.00000000
                                                     2        0.4000000       -0.46312857    0.00000000
                                                     2        0.7000000        0.97587598    0.00000000
                                                     2        1.5000000       -2.43431102    0.00000000
    7          1            1
                                      F and up 
                                                     0        0.0000010       -0.00007675    0.00000000
                                                     2        0.1200000        0.05352699    0.00000000
                                                     2        0.1400000       -0.25123645    0.00000000
                                                     2        0.1600000        0.32188106    0.00000000
                                                     2        0.2200000       -0.25206857    0.00000000
                                                     2        0.3000000        0.19290477    0.00000000
                                                     2        0.5000000       -0.10129770    0.00000000
                                                     2        0.9000000        0.00314995    0.00000000
                                                     2        1.5000000        0.18401192    0.00000000
                                      S - F
                                                     0        0.0000010        0.08065976    0.00000000
                                                     2        0.1200000       -0.09231673    0.00000000
                                                     2        0.1600000       -0.03278082    0.00000000
                                                     2        0.2800000        0.38423402    0.00000000
                                                     2        0.6000000       -1.09357590    0.00000000
                                                     2        1.1000000        1.53099489    0.00000000
                                                     2        3.0000000       -2.63300202    0.00000000
                                      P - F
                                                     0        0.0000010       -0.11638665    0.00000000
                                                     2        0.1200000        0.35468655    0.00000000
                                                     2        0.1600000       -0.59160923    0.00000000
                                                     2        0.3000000        0.49390547    0.00000000
                                                     2        0.6000000       -0.37949835    0.00000000
                                                     2        1.6000000        0.89304688    0.00000000
                                      D - F
                                                     0        0.0000010        0.05443663    0.00000000
                                                     2        0.1200000       -0.29679479    0.00000000
                                                     2        0.1400000        0.36849872    0.00000000
                                                     2        0.2400000        0.02793449    0.00000000
                                                     2        0.4000000       -0.46312857    0.00000000
                                                     2        0.7000000        0.97587598    0.00000000
                                                     2        1.5000000       -2.43431102    0.00000000
    8          1            1
                                      F and up 
                                                     0        0.0000010       -0.00007675    0.00000000
                                                     2        0.1200000        0.05352699    0.00000000
                                                     2        0.1400000       -0.25123645    0.00000000
                                                     2        0.1600000        0.32188106    0.00000000
                                                     2        0.2200000       -0.25206857    0.00000000
                                                     2        0.3000000        0.19290477    0.00000000
                                                     2        0.5000000       -0.10129770    0.00000000
                                                     2        0.9000000        0.00314995    0.00000000
                                                     2        1.5000000        0.18401192    0.00000000
                                      S - F
                                                     0        0.0000010        0.08065976    0.00000000
                                                     2        0.1200000       -0.09231673    0.00000000
                                                     2        0.1600000       -0.03278082    0.00000000
                                                     2        0.2800000        0.38423402    0.00000000
                                                     2        0.6000000       -1.09357590    0.00000000
                                                     2        1.1000000        1.53099489    0.00000000
                                                     2        3.0000000       -2.63300202    0.00000000
                                      P - F
                                                     0        0.0000010       -0.11638665    0.00000000
                                                     2        0.1200000        0.35468655    0.00000000
                                                     2        0.1600000       -0.59160923    0.00000000
                                                     2        0.3000000        0.49390547    0.00000000
                                                     2        0.6000000       -0.37949835    0.00000000
                                                     2        1.6000000        0.89304688    0.00000000
                                      D - F
                                                     0        0.0000010        0.05443663    0.00000000
                                                     2        0.1200000       -0.29679479    0.00000000
                                                     2        0.1400000        0.36849872    0.00000000
                                                     2        0.2400000        0.02793449    0.00000000
                                                     2        0.4000000       -0.46312857    0.00000000
                                                     2        0.7000000        0.97587598    0.00000000
                                                     2        1.5000000       -2.43431102    0.00000000
    9          1            1
                                      F and up 
                                                     0        0.0000010       -0.00007675    0.00000000
                                                     2        0.1200000        0.05352699    0.00000000
                                                     2        0.1400000       -0.25123645    0.00000000
                                                     2        0.1600000        0.32188106    0.00000000
                                                     2        0.2200000       -0.25206857    0.00000000
                                                     2        0.3000000        0.19290477    0.00000000
                                                     2        0.5000000       -0.10129770    0.00000000
                                                     2        0.9000000        0.00314995    0.00000000
                                                     2        1.5000000        0.18401192    0.00000000
                                      S - F
                                                     0        0.0000010        0.08065976    0.00000000
                                                     2        0.1200000       -0.09231673    0.00000000
                                                     2        0.1600000       -0.03278082    0.00000000
                                                     2        0.2800000        0.38423402    0.00000000
                                                     2        0.6000000       -1.09357590    0.00000000
                                                     2        1.1000000        1.53099489    0.00000000
                                                     2        3.0000000       -2.63300202    0.00000000
                                      P - F
                                                     0        0.0000010       -0.11638665    0.00000000
                                                     2        0.1200000        0.35468655    0.00000000
                                                     2        0.1600000       -0.59160923    0.00000000
                                                     2        0.3000000        0.49390547    0.00000000
                                                     2        0.6000000       -0.37949835    0.00000000
                                                     2        1.6000000        0.89304688    0.00000000
                                      D - F
                                                     0        0.0000010        0.05443663    0.00000000
                                                     2        0.1200000       -0.29679479    0.00000000
                                                     2        0.1400000        0.36849872    0.00000000
                                                     2        0.2400000        0.02793449    0.00000000
                                                     2        0.4000000       -0.46312857    0.00000000
                                                     2        0.7000000        0.97587598    0.00000000
                                                     2        1.5000000       -2.43431102    0.00000000
   10          7            7
                                      G and up 
                                                     0        0.0000010       -0.00039818    0.00000000
                                                     2        0.1200000       -0.37616123    0.00000000
                                                     2        0.1400000        2.13837358    0.00000000
                                                     2        0.1600000       -3.36562035    0.00000000
                                                     2        0.2000000        2.53463289    0.00000000
                                                     2        0.3000000       -1.98118833    0.00000000
                                                     2        0.5000000        4.06642919    0.00000000
                                                     2        0.7000000       -6.15327959    0.00000000
                                                     2        1.2000000       10.22492851    0.00000000
                                                     2        2.0000000      -14.94707511    0.00000000
                                      S - G
                                                     0        0.0000010        0.02721443    0.00000000
                                                     2        0.1200000       -0.60186009    0.00000000
                                                     2        0.1600000        1.10088134    0.00000000
                                                     2        0.2600000       -0.59857981    0.00000000
                                                     2        0.6000000        0.21288222    0.00000000
                                                     2        3.0000000        5.09059205    0.00000000
                                      P - G
                                                     0        0.0000010        0.40558062    0.00000000
                                                     2        0.1200000        0.81809854    0.00000000
[...]
                                                     2        0.2200000       -0.25206857    0.00000000
                                                     2        0.3000000        0.19290477    0.00000000
                                                     2        0.5000000       -0.10129770    0.00000000
                                                     2        0.9000000        0.00314995    0.00000000
                                                     2        1.5000000        0.18401192    0.00000000
                                      S - F
                                                     0        0.0000010        0.08065976    0.00000000
                                                     2        0.1200000       -0.09231673    0.00000000
                                                     2        0.1600000       -0.03278082    0.00000000
                                                     2        0.2800000        0.38423402    0.00000000
                                                     2        0.6000000       -1.09357590    0.00000000
                                                     2        1.1000000        1.53099489    0.00000000
                                                     2        3.0000000       -2.63300202    0.00000000
                                      P - F
                                                     0        0.0000010       -0.11638665    0.00000000
                                                     2        0.1200000        0.35468655    0.00000000
                                                     2        0.1600000       -0.59160923    0.00000000
                                                     2        0.3000000        0.49390547    0.00000000
                                                     2        0.6000000       -0.37949835    0.00000000
                                                     2        1.6000000        0.89304688    0.00000000
                                      D - F
                                                     0        0.0000010        0.05443663    0.00000000
                                                     2        0.1200000       -0.29679479    0.00000000
                                                     2        0.1400000        0.36849872    0.00000000
                                                     2        0.2400000        0.02793449    0.00000000
                                                     2        0.4000000       -0.46312857    0.00000000
                                                     2        0.7000000        0.97587598    0.00000000
                                                     2        1.5000000       -2.43431102    0.00000000
   27          1            1
                                      F and up 
                                                     0        0.0000010       -0.00007675    0.00000000
                                                     2        0.1200000        0.05352699    0.00000000
                                                     2        0.1400000       -0.25123645    0.00000000
                                                     2        0.1600000        0.32188106    0.00000000
                                                     2        0.2200000       -0.25206857    0.00000000
                                                     2        0.3000000        0.19290477    0.00000000
                                                     2        0.5000000       -0.10129770    0.00000000
                                                     2        0.9000000        0.00314995    0.00000000
                                                     2        1.5000000        0.18401192    0.00000000
                                      S - F
                                                     0        0.0000010        0.08065976    0.00000000
                                                     2        0.1200000       -0.09231673    0.00000000
                                                     2        0.1600000       -0.03278082    0.00000000
                                                     2        0.2800000        0.38423402    0.00000000
                                                     2        0.6000000       -1.09357590    0.00000000
                                                     2        1.1000000        1.53099489    0.00000000
                                                     2        3.0000000       -2.63300202    0.00000000
                                      P - F
                                                     0        0.0000010       -0.11638665    0.00000000
                                                     2        0.1200000        0.35468655    0.00000000
                                                     2        0.1600000       -0.59160923    0.00000000
                                                     2        0.3000000        0.49390547    0.00000000
                                                     2        0.6000000       -0.37949835    0.00000000
                                                     2        1.6000000        0.89304688    0.00000000
                                      D - F
                                                     0        0.0000010        0.05443663    0.00000000
                                                     2        0.1200000       -0.29679479    0.00000000
                                                     2        0.1400000        0.36849872    0.00000000
                                                     2        0.2400000        0.02793449    0.00000000
                                                     2        0.4000000       -0.46312857    0.00000000
                                                     2        0.7000000        0.97587598    0.00000000
                                                     2        1.5000000       -2.43431102    0.00000000
 ======================================================================================================
   453 basis functions,   777 primitive gaussians,   483 cartesian basis functions
    54 alpha electrons       54 beta electrons
       nuclear repulsion energy       909.7023165504 Hartrees.
 NAtoms=   27 NActive=   27 NUniq=   27 SFac= 1.00D+00 NAtFMM=   60 NAOKFM=F Big=F
   1 Symmetry operations used in ECPInt.
 ECPInt:  NShTT=   19110 NPrTT=   92946 LenC2=   18618 LenP2D=   60835.
 LDataN:  DoStor=T MaxTD1= 6 Len=  172
 Initial guess from the checkpoint file:  "3B-69_10a_imidazole_trimer_mol1.chk"
 B after Tr=    -8.634404   -4.698670   -1.535315
         Rot=   -0.586152    0.245547    0.693300    0.339806 Ang= 251.77 deg.
 >>>>>>>>>> Convergence criterion not met.
 SCF Done:  E(RHF) =  -675.237414977     A.U. after    2 cycles
            NFock=  1  Conv=0.39D-01     -V/T= 1.9990

 **********************************************************************

            Population analysis using the SCF Density.

 **********************************************************************

 Orbital symmetries:
       Occupied  (A) (A) (A) (A) (A) (A) (A) (A) (A) (A) (A) (A)
                 (A) (A) (A) (A) (A) (A) (A) (A) (A) (A) (A) (A)
                 (A) (A) (A) (A) (A) (A) (A) (A) (A) (A) (A) (A)
                 (A) (A) (A) (A) (A) (A) (A) (A) (A) (A) (A) (A)
                 (A) (A) (A) (A) (A) (A)
       Virtual   (A) (A) (A) (A) (A) (A) (A) (A) (A) (A) (A) (A)
                 (A) (A) (A) (A) (A) (A) (A) (A) (A) (A) (A) (A)
                 (A) (A) (A) (A) (A) (A) (A) (A) (A) (A) (A) (A)
                 (A) (A) (A) (A) (A) (A) (A) (A) (A) (A) (A) (A)
                 (A) (A) (A) (A) (A) (A) (A) (A) (A) (A) (A) (A)
                 (A) (A) (A) (A) (A) (A) (A) (A) (A) (A) (A) (A)
                 (A) (A) (A) (A) (A) (A) (A) (A) (A) (A) (A) (A)
                 (A) (A) (A) (A) (A) (A) (A) (A) (A) (A) (A) (A)
                 (A) (A) (A) (A) (A) (A) (A) (A) (A) (A) (A) (A)
                 (A) (A) (A) (A) (A) (A) (A) (A) (A) (A) (A) (A)
                 (A) (A) (A) (A) (A) (A) (A) (A) (A) (A) (A) (A)
                 (A) (A) (A) (A) (A) (A) (A) (A) (A) (A) (A) (A)
                 (A) (A) (A) (A) (A) (A) (A) (A) (A) (A) (A) (A)
                 (A) (A) (A) (A) (A) (A) (A) (A) (A) (A) (A) (A)
                 (A) (A) (A) (A) (A) (A) (A) (A) (A) (A) (A) (A)
                 (A) (A) (A) (A) (A) (A) (A) (A) (A) (A) (A) (A)
                 (A) (A) (A) (A) (A) (A) (A) (A) (A) (A) (A) (A)
                 (A) (A) (A) (A) (A) (A) (A) (A) (A) (A) (A) (A)
                 (A) (A) (A) (A) (A) (A) (A) (A) (A) (A) (A) (A)
                 (A) (A) (A) (A) (A) (A) (A) (A) (A) (A) (A) (A)
                 (A) (A) (A) (A) (A) (A) (A) (A) (A) (A) (A) (A)
                 (A) (A) (A) (A) (A) (A) (A) (A) (A) (A) (A) (A)
                 (A) (A) (A) (A) (A) (A) (A) (A) (A) (A) (A) (A)
                 (A) (A) (A) (A) (A) (A) (A) (A) (A) (A) (A) (A)
                 (A) (A) (A) (A) (A) (A) (A) (A) (A) (A) (A) (A)
                 (A) (A) (A) (A) (A) (A) (A) (A) (A) (A) (A) (A)
                 (A) (A) (A) (A) (A) (A) (A) (A) (A) (A) (A) (A)
                 (A) (A) (A) (A) (A) (A) (A) (A) (A) (A) (A) (A)
                 (A) (A) (A) (A) (A) (A) (A) (A) (A) (A) (A) (A)
                 (A) (A) (A) (A) (A) (A) (A) (A) (A) (A) (A) (A)
                 (A) (A) (A) (A) (A) (A) (A) (A) (A) (A) (A) (A)
                 (A) (A) (A) (A) (A) (A) (A) (A) (A) (A) (A) (A)
                 (A) (A) (A) (A) (A) (A) (A) (A) (A) (A) (A) (A)
                 (A) (A) (A)
 The electronic state is 1-A.
 Alpha  occ. eigenvalues --  -15.58638 -15.55747 -15.52377 -15.50991 -15.47678
 Alpha  occ. eigenvalues --  -15.46268 -11.32469 -11.29151 -11.27984 -11.27535
 Alpha  occ. eigenvalues --  -11.26377 -11.25095 -11.24294 -11.23514 -11.22826
 Alpha  occ. eigenvalues --   -1.36202  -1.33128  -1.31315  -1.19400  -1.16037
 Alpha  occ. eigenvalues --   -1.14283  -1.03807  -1.00885  -0.99620  -0.87625
 Alpha  occ. eigenvalues --   -0.85193  -0.84304  -0.82509  -0.82008  -0.80559
 Alpha  occ. eigenvalues --   -0.80134  -0.77283  -0.76120  -0.65963  -0.65109
 Alpha  occ. eigenvalues --   -0.64245  -0.62866  -0.62163  -0.61841  -0.61596
 Alpha  occ. eigenvalues --   -0.61037  -0.60325  -0.59692  -0.58545  -0.57646
 Alpha  occ. eigenvalues --   -0.50915  -0.47062  -0.46581  -0.45708  -0.43140
 Alpha  occ. eigenvalues --   -0.41344  -0.35253  -0.32787  -0.31278
 Alpha virt. eigenvalues --    0.01859   0.03397   0.03724   0.04360   0.05004
 Alpha virt. eigenvalues --    0.05061   0.05193   0.05710   0.06679   0.07121
 Alpha virt. eigenvalues --    0.08056   0.08383   0.09574   0.10420   0.10569
 Alpha virt. eigenvalues --    0.11023   0.11317   0.11973   0.12611   0.12682
 Alpha virt. eigenvalues --    0.13361   0.13610   0.14014   0.14353   0.14530
 Alpha virt. eigenvalues --    0.15074   0.15873   0.16142   0.16286   0.16432
 Alpha virt. eigenvalues --    0.16521   0.17116   0.17282   0.17777   0.18128
 Alpha virt. eigenvalues --    0.18306   0.18641   0.18816   0.19226   0.19696
 Alpha virt. eigenvalues --    0.20044   0.20724   0.21099   0.21597   0.22074
 Alpha virt. eigenvalues --    0.22416   0.22583   0.23211   0.23946   0.24682
 Alpha virt. eigenvalues --    0.25079   0.25663   0.26058   0.27209   0.27406
 Alpha virt. eigenvalues --    0.27689   0.28240   0.28417   0.28839   0.28905
 Alpha virt. eigenvalues --    0.29507   0.29821   0.30385   0.30968   0.31093
 Alpha virt. eigenvalues --    0.31774   0.32445   0.32579   0.33018   0.34092
 Alpha virt. eigenvalues --    0.34558   0.34957   0.35666   0.35916   0.36135
 Alpha virt. eigenvalues --    0.36734   0.37338   0.37568   0.37991   0.38265
 Alpha virt. eigenvalues --    0.38568   0.38982   0.39758   0.40664   0.40840
 Alpha virt. eigenvalues --    0.41491   0.42010   0.42123   0.42747   0.43381
 Alpha virt. eigenvalues --    0.43660   0.44510   0.44681   0.45119   0.45540
 Alpha virt. eigenvalues --    0.46284   0.46743   0.46809   0.48242   0.48591
 Alpha virt. eigenvalues --    0.48753   0.49402   0.50148   0.50722   0.50990
 Alpha virt. eigenvalues --    0.51615   0.52288   0.52834   0.53624   0.53930
 Alpha virt. eigenvalues --    0.54979   0.55080   0.55959   0.56310   0.57624
 Alpha virt. eigenvalues --    0.58268   0.58849   0.59100   0.59440   0.60026
 Alpha virt. eigenvalues --    0.60657   0.61312   0.61629   0.61824   0.62119
 Alpha virt. eigenvalues --    0.63230   0.63486   0.63677   0.64118   0.64633
 Alpha virt. eigenvalues --    0.64937   0.65037   0.65537   0.66331   0.66618
 Alpha virt. eigenvalues --    0.67217   0.67562   0.67899   0.68185   0.68449
 Alpha virt. eigenvalues --    0.69165   0.69722   0.70034   0.70601   0.71455
 Alpha virt. eigenvalues --    0.72028   0.72625   0.72964   0.73458   0.73815
 Alpha virt. eigenvalues --    0.74159   0.74774   0.75409   0.76281   0.76698
 Alpha virt. eigenvalues --    0.77618   0.78334   0.78385   0.79235   0.79859
 Alpha virt. eigenvalues --    0.80769   0.81239   0.82530   0.82895   0.83499
 Alpha virt. eigenvalues --    0.83963   0.84681   0.86092   0.86268   0.86715
 Alpha virt. eigenvalues --    0.87504   0.88243   0.88691   0.89329   0.89705
 Alpha virt. eigenvalues --    0.89807   0.90394   0.90821   0.91290   0.92110
 Alpha virt. eigenvalues --    0.92907   0.93874   0.95093   0.95912   0.96587
 Alpha virt. eigenvalues --    0.97108   0.98268   0.99020   0.99948   1.00447
 Alpha virt. eigenvalues --    1.01032   1.01843   1.03393   1.03422   1.04629
 Alpha virt. eigenvalues --    1.05197   1.06158   1.06828   1.07888   1.08204
 Alpha virt. eigenvalues --    1.09421   1.09605   1.10088   1.11383   1.11551
 Alpha virt. eigenvalues --    1.12723   1.13510   1.14237   1.15131   1.16128
 Alpha virt. eigenvalues --    1.16257   1.17387   1.18209   1.18789   1.19244
 Alpha virt. eigenvalues --    1.19636   1.20319   1.20874   1.22372   1.23925
 Alpha virt. eigenvalues --    1.24645   1.25723   1.26833   1.28025   1.28938
 Alpha virt. eigenvalues --    1.29975   1.30268   1.31209   1.33787   1.35062
 Alpha virt. eigenvalues --    1.36806   1.37482   1.39400   1.40387   1.41508
 Alpha virt. eigenvalues --    1.42705   1.44222   1.45415   1.46566   1.49622
 Alpha virt. eigenvalues --    1.50939   1.52671   1.53566   1.54625   1.56182
 Alpha virt. eigenvalues --    1.56721   1.57902   1.58661   1.61036   1.61217
 Alpha virt. eigenvalues --    1.61823   1.63460   1.64554   1.65453   1.65941
 Alpha virt. eigenvalues --    1.67018   1.67510   1.68792   1.70334   1.72114
 Alpha virt. eigenvalues --    1.73477   1.74199   1.76732   1.77091   1.77333
 Alpha virt. eigenvalues --    1.78131   1.79137   1.80331   1.81733   1.82223
 Alpha virt. eigenvalues --    1.82457   1.83877   1.84215   1.85010   1.85734
 Alpha virt. eigenvalues --    1.86553   1.86811   1.87753   1.88340   1.89672
 Alpha virt. eigenvalues --    1.90336   1.91164   1.92812   1.92995   1.94287
 Alpha virt. eigenvalues --    1.96383   1.96699   1.98720   1.98969   2.00609
 Alpha virt. eigenvalues --    2.01133   2.02978   2.04159   2.04795   2.06691
 Alpha virt. eigenvalues --    2.08262   2.08509   2.09217   2.10215   2.11902
 Alpha virt. eigenvalues --    2.12558   2.13623   2.14220   2.14520   2.15397
 Alpha virt. eigenvalues --    2.15825   2.16888   2.18150   2.18279   2.19595
 Alpha virt. eigenvalues --    2.19975   2.20661   2.21811   2.23335   2.23805
 Alpha virt. eigenvalues --    2.24537   2.25192   2.25736   2.26643   2.27560
 Alpha virt. eigenvalues --    2.28858   2.29178   2.30425   2.30568   2.30938
 Alpha virt. eigenvalues --    2.32868   2.33007   2.34492   2.35749   2.36333
 Alpha virt. eigenvalues --    2.37476   2.38772   2.41017   2.42437   2.43088
 Alpha virt. eigenvalues --    2.44187   2.44848   2.46248   2.49698   2.50034
 Alpha virt. eigenvalues --    2.51330   2.51747   2.53526   2.54001   2.54570
 Alpha virt. eigenvalues --    2.55010   2.55906   2.57002   2.58150   2.58780
 Alpha virt. eigenvalues --    2.59731   2.60584   2.61108   2.63197   2.64843
 Alpha virt. eigenvalues --    2.66004   2.66294   2.67274   2.68783   2.70038
 Alpha virt. eigenvalues --    2.72474   2.73873   2.74826   2.74997   2.76516
 Alpha virt. eigenvalues --    2.80686   2.80881   2.81912   2.86532   2.93528
 Alpha virt. eigenvalues --    2.94824   2.95921   2.97928   2.98896   2.99215
 Alpha virt. eigenvalues --    3.00667   3.02195   3.03137   3.04878   3.06759
 Alpha virt. eigenvalues --    3.07809   3.08901   3.12115   3.16053   3.19725
 Alpha virt. eigenvalues --    3.25392   3.29980   3.31982   3.33293   3.37256
 Alpha virt. eigenvalues --    3.38742   3.42610   3.46089   3.66800   3.69148
 Alpha virt. eigenvalues --    3.78620   4.12738   4.17410   4.25882
          Condensed to atoms (all electrons):
 Mulliken charges:
               1
     1  N    0.888214
     2  C   -0.736841
     3  N    0.805638
     4  C   -0.055863
     5  C   -0.537266
     6  H    0.018923
     7  H   -0.125562
     8  H   -0.152473
     9  H   -0.189774
    10  N    0.858537
    11  C   -0.659574
    12  N    0.748635
    13  C   -0.426537
    14  C   -0.199171
    15  H    0.001824
    16  H   -0.102509
    17  H   -0.149532
    18  H   -0.140714
    19  N    1.693581
    20  C   -1.100782
    21  N    0.820498
    22  C   -0.530831
    23  C    0.134839
    24  H   -0.061745
    25  H   -0.266880
    26  H   -0.190706
    27  H   -0.343929
 Sum of Mulliken charges =  -0.00000
 Mulliken charges with hydrogens summed into heavy atoms:
               1
     1  N    0.907137
     2  C   -0.862403
     3  N    0.805638
     4  C   -0.208336
     5  C   -0.727040
    10  N    0.860361
    11  C   -0.762082
    12  N    0.748635
    13  C   -0.576069
    14  C   -0.339884
    19  N    1.631835
    20  C   -1.367662
    21  N    0.820498
    22  C   -0.721537
    23  C   -0.209090
 Electronic spatial extent (au):  <R**2>=           3999.7211
 Charge=             -0.0000 electrons
 Dipole moment (field-independent basis, Debye):
    X=             -5.3436    Y=              1.6701    Z=             -0.6462  Tot=              5.6357

 Test job not archived.
 1\1\GINC-SE059\SP\RHF\Aug-CC-pVDZ\C9H12N6\OHZDE\08-Apr-2025\0\\#t hf a
 ug-cc-pvdz iop(5/13=1,5/36=2,99/5=2) pseudo=read geom=check guess=(rea
 d,tcheck) scf=(maxcycle=1)\\title\\0,1\N,0,1.225156,1.790098,0.793667\
 C,0,0.314568,1.191681,1.590327\N,0,0.098973,1.892803,2.692789\C,0,0.91
 8281,2.99557,2.592821\C,0,1.622758,2.943251,1.422717\H,0,1.619151,1.41
 0346,-0.093212\H,0,-0.165462,0.258212,1.353791\H,0,0.967252,3.744556,3
 .360834\H,0,2.357781,3.610084,1.012244\N,0,1.588037,3.575902,7.757855\
 C,0,2.498625,4.174319,6.961195\N,0,2.71422,3.473197,5.858733\C,0,1.894
 912,2.370431,5.9587\C,0,1.190435,2.422749,7.128805\H,0,1.194042,3.9556
 54,8.644733\H,0,2.978655,5.107788,7.19773\H,0,1.845941,1.621444,5.1906
 88\H,0,0.455412,1.755916,7.539278\N,0,-1.152747,0.892902,5.069428\C,0,
 -2.063336,1.491319,5.866087\N,0,-2.27893,0.790197,6.96855\C,0,-1.45962
 3,-0.312569,6.868582\C,0,-0.755146,-0.260251,5.698478\H,0,-0.758752,1.
 272654,4.182549\H,0,-2.543365,2.424788,5.629552\H,0,-1.410652,-1.06155
 6,7.636594\H,0,-0.020123,-0.927084,5.288005\\Version=ES64L-G16RevC.01\
 State=1-A\HF=-675.237415\RMSD=3.944e-02\Dipole=1.0538695,0.3548146,-1.
 9182597\Quadrupole=-20.1956019,1.319491,18.8761109,-3.5334165,0.758277
 6,11.7563989\PG=C01 [X(C9H12N6)]\\@


 ALL OUR THINKING ABOUT NATURE MUST NECESSARILY MOVE IN CIRCLES OR SPIRALS;
 FOR WE CAN ONLY UNDERSTAND NATURE IF WE THINK ABOUT HER, AND WE CAN ONLY
 THINK BECAUSE OUR BRAIN IS BUILT IN ACCORDANCE WITH NATURE'S LAWS.

                                             -- TIMOTHY FERRIS, "GALAXIES"
 Job cpu time:       0 days  0 hours  6 minutes 40.1 seconds.
 Elapsed time:       0 days  0 hours  0 minutes 27.8 seconds.
 File lengths (MBytes):  RWF=     31 Int=      0 D2E=      0 Chk=     26 Scr=      1
 Normal termination of Gaussian 16 at Tue Apr  8 19:10:32 2025.
