 Entering Gaussian System, Link 0=g16
 Input=A21x12_02_water-dimer_1p4_mol1.gjf
 Output=A21x12_02_water-dimer_1p4_mol1.log
 Initial command:
 /arc/software/Gaussian/g16.c01/l1.exe "/tmp/slurm/4832952/Gau-1242458.inp" -scrdir="/tmp/slurm/4832952/"
 Entering Link 1 = /arc/software/Gaussian/g16.c01/l1.exe PID=   1242459.
  
 Copyright (c) 1988-2019, Gaussian, Inc.  All Rights Reserved.
  
 This is part of the Gaussian(R) 16 program.  It is based on
 the Gaussian(R) 09 system (copyright 2009, Gaussian, Inc.),
 the Gaussian(R) 03 system (copyright 2003, Gaussian, Inc.),
 the Gaussian(R) 98 system (copyright 1998, Gaussian, Inc.),
 the Gaussian(R) 94 system (copyright 1995, Gaussian, Inc.),
 the Gaussian 92(TM) system (copyright 1992, Gaussian, Inc.),
 the Gaussian 90(TM) system (copyright 1990, Gaussian, Inc.),
 the Gaussian 88(TM) system (copyright 1988, Gaussian, Inc.),
 the Gaussian 86(TM) system (copyright 1986, Carnegie Mellon
 University), and the Gaussian 82(TM) system (copyright 1983,
 Carnegie Mellon University). Gaussian is a federally registered
 trademark of Gaussian, Inc.
  
 This software contains proprietary and confidential information,
 including trade secrets, belonging to Gaussian, Inc.
  
 This software is provided under written license and may be
 used, copied, transmitted, or stored only in accord with that
 written license.
  
 The following legend is applicable only to US Government
 contracts under FAR:
  
                    RESTRICTED RIGHTS LEGEND
  
 Use, reproduction and disclosure by the US Government is
 subject to restrictions as set forth in subparagraphs (a)
 and (c) of the Commercial Computer Software - Restricted
 Rights clause in FAR 52.227-19.
  
 Gaussian, Inc.
 340 Quinnipiac St., Bldg. 40, Wallingford CT 06492
  
  
 ---------------------------------------------------------------
 Warning -- This program may not be used in any manner that
 competes with the business of Gaussian, Inc. or will provide
 assistance to any competitor of Gaussian, Inc.  The licensee
 of this program is prohibited from giving any competitor of
 Gaussian, Inc. access to this program.  By using this program,
 the user acknowledges that Gaussian, Inc. is engaged in the
 business of creating and licensing software in the field of
 computational chemistry and represents and warrants to the
 licensee that it is not a competitor of Gaussian, Inc. and that
 it will not use this program in any manner prohibited above.
 ---------------------------------------------------------------
  

 Cite this work as:
 Gaussian 16, Revision C.01,
 M. J. Frisch, G. W. Trucks, H. B. Schlegel, G. E. Scuseria, 
 M. A. Robb, J. R. Cheeseman, G. Scalmani, V. Barone, 
 G. A. Petersson, H. Nakatsuji, X. Li, M. Caricato, A. V. Marenich, 
 J. Bloino, B. G. Janesko, R. Gomperts, B. Mennucci, H. P. Hratchian, 
 J. V. Ortiz, A. F. Izmaylov, J. L. Sonnenberg, D. Williams-Young, 
 F. Ding, F. Lipparini, F. Egidi, J. Goings, B. Peng, A. Petrone, 
 T. Henderson, D. Ranasinghe, V. G. Zakrzewski, J. Gao, N. Rega, 
 G. Zheng, W. Liang, M. Hada, M. Ehara, K. Toyota, R. Fukuda, 
 J. Hasegawa, M. Ishida, T. Nakajima, Y. Honda, O. Kitao, H. Nakai, 
 T. Vreven, K. Throssell, J. A. Montgomery, Jr., J. E. Peralta, 
 F. Ogliaro, M. J. Bearpark, J. J. Heyd, E. N. Brothers, K. N. Kudin, 
 V. N. Staroverov, T. A. Keith, R. Kobayashi, J. Normand, 
 K. Raghavachari, A. P. Rendell, J. C. Burant, S. S. Iyengar, 
 J. Tomasi, M. Cossi, J. M. Millam, M. Klene, C. Adamo, R. Cammi, 
 J. W. Ochterski, R. L. Martin, K. Morokuma, O. Farkas, 
 J. B. Foresman, and D. J. Fox, Gaussian, Inc., Wallingford CT, 2019.
 
 ******************************************
 Gaussian 16:  ES64L-G16RevC.01  3-Jul-2019
                 8-Apr-2025 
 ******************************************
 %nprocs=16
 Will use up to   16 processors via shared memory.
 %mem=30GB
 %chk=A21x12_02_water-dimer_1p4_mol1.chk
 ----------------------------------------------------------------------
 #t hf aug-cc-pvdz symm=none int=(grid=ultrafine) guess=(read,tcheck) s
 table=(opt,rrhf)
 ----------------------------------------------------------------------
 -----
 title
 -----
 Symbolic Z-matrix:
 Charge =  0 Multiplicity = 1
 O                    -0.071     0.        2.07904 
 H                     0.81173   0.        2.45055 
 H                     0.06485   0.        1.12383 
 O                     0.06655   0.       -2.00731 
 H                    -0.40296  -0.76018  -2.35642 
 H                    -0.40296   0.76018  -2.35642 
 
                    Distance matrix (angstroms):
                    1          2          3          4          5
     1  O    0.000000
     2  H    0.957726   0.000000
     3  H    0.964824   1.522506   0.000000
     4  O    4.088659   4.519711   3.131133   0.000000
     5  H    4.512356   5.016006   3.592887   0.959267   0.000000
     6  H    4.512356   5.016006   3.592887   0.959267   1.520357
                    6
     6  H    0.000000
 Symmetry turned off by external request.
 Rotational constants (GHZ):         218.7628025           3.2977667           3.2973493
    82 basis functions,   130 primitive gaussians,    86 cartesian basis functions
    10 alpha electrons       10 beta electrons
       nuclear repulsion energy        31.2838973495 Hartrees.
 NAtoms=    6 NActive=    6 NUniq=    6 SFac= 1.00D+00 NAtFMM=   60 NAOKFM=F Big=F
 ExpMin= 2.97D-02 ExpMax= 1.17D+04 ExpMxC= 4.01D+02 IAcc=3 IRadAn=         5 AccDes= 0.00D+00
 Harris functional with IExCor=  205 and IRadAn=       5 diagonalized for initial guess.
 HarFok:  IExCor=  205 AccDes= 0.00D+00 IRadAn=         5 IDoV= 1 UseB2=F ITyADJ=14
 ICtDFT=  3500011 ScaDFX=  1.000000  1.000000  1.000000  1.000000
 FoFCou: FMM=F IPFlag=           0 FMFlag=      100000 FMFlg1=           0
         NFxFlg=           0 DoJE=T BraDBF=F KetDBF=T FulRan=T
         wScrn=  0.000000 ICntrl=       500 IOpCl=  0 I1Cent=   200000004 NGrid=           0
         NMat0=    1 NMatS0=      1 NMatT0=    0 NMatD0=    1 NMtDS0=    0 NMtDT0=    0
 Symmetry not used in FoFCou.
 SCF Done:  E(RHF) =  -152.085463667     A.U. after   10 cycles
            NFock= 10  Conv=0.93D-08     -V/T= 2.0017

 **********************************************************************

            Population analysis using the SCF Density.

 **********************************************************************

 Alpha  occ. eigenvalues --  -20.58792 -20.56615  -1.36584  -1.34295  -0.72907
 Alpha  occ. eigenvalues --   -0.70599  -0.59619  -0.57348  -0.52009  -0.49790
 Alpha virt. eigenvalues --    0.02997   0.05066   0.05566   0.08558   0.16414
 Alpha virt. eigenvalues --    0.18030   0.20204   0.21424   0.22701   0.23224
 Alpha virt. eigenvalues --    0.24643   0.25807   0.28641   0.31319   0.34120
 Alpha virt. eigenvalues --    0.36406   0.37118   0.42163   0.42349   0.44288
 Alpha virt. eigenvalues --    0.46089   0.51402   0.55254   0.56951   0.63528
 Alpha virt. eigenvalues --    0.65036   0.67246   0.73023   0.80742   0.85171
 Alpha virt. eigenvalues --    0.92641   0.95690   1.11034   1.11894   1.13987
 Alpha virt. eigenvalues --    1.15309   1.16724   1.17767   1.32514   1.34336
 Alpha virt. eigenvalues --    1.45646   1.48201   1.51205   1.51891   1.59626
 Alpha virt. eigenvalues --    1.62537   1.99377   2.01324   2.01645   2.02411
 Alpha virt. eigenvalues --    2.11860   2.12030   2.36302   2.38636   2.47100
 Alpha virt. eigenvalues --    2.51959   2.61834   2.70748   2.70848   2.74757
 Alpha virt. eigenvalues --    2.98211   2.98584   3.68271   3.68578   3.69455
 Alpha virt. eigenvalues --    3.70135   3.71366   3.72589   4.03033   4.04679
 Alpha virt. eigenvalues --    4.29452   4.31777
          Condensed to atoms (all electrons):
 Mulliken charges:
               1
     1  O   -0.317670
     2  H    0.147642
     3  H    0.166830
     4  O   -0.335455
     5  H    0.169326
     6  H    0.169326
 Sum of Mulliken charges =  -0.00000
 Mulliken charges with hydrogens summed into heavy atoms:
               1
     1  O   -0.003197
     4  O    0.003197
 Electronic spatial extent (au):  <R**2>=            338.2448
 Charge=             -0.0000 electrons
 Dipole moment (field-independent basis, Debye):
    X=              0.1246    Y=              0.0000    Z=             -2.3355  Tot=              2.3388
 NROrb=     82 NOA=    10 NOB=    10 NVA=    72 NVB=    72
    12 initial guesses have been made.
 Iteration     1 Dimension    12 NMult     0 NNew     12
 New state      1 was old state      3
 Iteration     2 Dimension    24 NMult    12 NNew     12
 Iteration     3 Dimension    27 NMult    24 NNew      3
 Iteration     4 Dimension    30 NMult    27 NNew      3
 Iteration     5 Dimension    33 NMult    30 NNew      3
 Iteration     6 Dimension    36 NMult    33 NNew      3
 ***********************************************************************
 Stability analysis using <AA,BB:AA,BB> singles matrix:
 ***********************************************************************
 Ground to excited state transition densities written to RWF  633

 Eigenvectors of the stability matrix:
 
 Excited state symmetry could not be determined.
 Eigenvector   1:      Singlet-?Sym  Eigenvalue= 0.3288187  <S**2>=0.000
      10 -> 11        -0.33159
      10 -> 12         0.46903
      10 -> 14         0.17571
      10 -> 16         0.23042
      10 -> 18        -0.10096
      10 -> 20         0.20884
 The wavefunction is stable under the perturbations considered.
 The wavefunction is already stable.

 **********************************************************************

            Population analysis using the SCF Density.

 **********************************************************************

 Alpha  occ. eigenvalues --  -20.58792 -20.56615  -1.36584  -1.34295  -0.72907
 Alpha  occ. eigenvalues --   -0.70599  -0.59619  -0.57348  -0.52009  -0.49790
 Alpha virt. eigenvalues --    0.02997   0.05066   0.05566   0.08558   0.16414
 Alpha virt. eigenvalues --    0.18030   0.20204   0.21424   0.22701   0.23224
 Alpha virt. eigenvalues --    0.24643   0.25807   0.28641   0.31319   0.34120
 Alpha virt. eigenvalues --    0.36406   0.37118   0.42163   0.42349   0.44288
 Alpha virt. eigenvalues --    0.46089   0.51402   0.55254   0.56951   0.63528
 Alpha virt. eigenvalues --    0.65036   0.67246   0.73023   0.80742   0.85171
 Alpha virt. eigenvalues --    0.92641   0.95690   1.11034   1.11894   1.13987
 Alpha virt. eigenvalues --    1.15309   1.16724   1.17767   1.32514   1.34336
 Alpha virt. eigenvalues --    1.45646   1.48201   1.51205   1.51891   1.59626
 Alpha virt. eigenvalues --    1.62537   1.99377   2.01324   2.01645   2.02411
 Alpha virt. eigenvalues --    2.11860   2.12030   2.36302   2.38636   2.47100
 Alpha virt. eigenvalues --    2.51959   2.61834   2.70748   2.70848   2.74757
 Alpha virt. eigenvalues --    2.98211   2.98584   3.68271   3.68578   3.69455
 Alpha virt. eigenvalues --    3.70135   3.71366   3.72589   4.03033   4.04679
 Alpha virt. eigenvalues --    4.29452   4.31777
          Condensed to atoms (all electrons):
 Mulliken charges:
               1
     1  O   -0.317670
     2  H    0.147642
     3  H    0.166830
     4  O   -0.335455
     5  H    0.169326
     6  H    0.169326
 Sum of Mulliken charges =  -0.00000
 Mulliken charges with hydrogens summed into heavy atoms:
               1
     1  O   -0.003197
     4  O    0.003197
 Electronic spatial extent (au):  <R**2>=            338.2448
 Charge=             -0.0000 electrons
 Dipole moment (field-independent basis, Debye):
    X=              0.1246    Y=              0.0000    Z=             -2.3355  Tot=              2.3388
 Unable to Open any file for archive entry.
 1\1\GINC-SE128\Stability\RHF\Aug-CC-pVDZ\H4O2\OHZDE\08-Apr-2025\0\\#t 
 hf aug-cc-pvdz symm=none int=(grid=ultrafine) guess=(read,tcheck) stab
 le=(opt,rrhf)\\title\\0,1\O,0,-0.07100024,0.,2.0790391\H,0,0.81173317,
 0.,2.45055075\H,0,0.064854,0.,1.12382713\O,0,0.06654819,0.,-2.00730585
 \H,0,-0.40296496,-0.76017841,-2.35641827\H,0,-0.40296496,0.76017841,-2
 .35641827\\Version=ES64L-G16RevC.01\HF=-152.0854637\RMSD=9.263e-09\Dip
 ole=0.0490089,0.,-0.9188456\Quadrupole=-0.4724768,-0.1051987,0.5776755
 ,0.,6.2499055,0.\PG=Unknown\\@
 The archive entry for this job was punched.


 THE MOST BEAUTIFUL EXPERIENCE WE CAN HAVE IS THE MYSTERIOUS.
 IT IS THE FUNDAMENTAL EMOTION WHICH STANDS AT AT THE CRADLE 
 OF TRUE ART AND TRUE SCIENCE.

                                    -- ALBERT EINSTEIN
 Job cpu time:       0 days  0 hours  0 minutes 13.5 seconds.
 Elapsed time:       0 days  0 hours  0 minutes  1.6 seconds.
 File lengths (MBytes):  RWF=     55 Int=      0 D2E=      0 Chk=      2 Scr=      1
 Normal termination of Gaussian 16 at Tue Apr  8 19:09:47 2025.
 Initial command:
 /arc/software/Gaussian/g16.c01/l1.exe "/tmp/slurm/4832952/Gau-1242458.inp" -scrdir="/tmp/slurm/4832952/"
 Entering Link 1 = /arc/software/Gaussian/g16.c01/l1.exe PID=   1242670.
  
 Copyright (c) 1988-2019, Gaussian, Inc.  All Rights Reserved.
  
 This is part of the Gaussian(R) 16 program.  It is based on
 the Gaussian(R) 09 system (copyright 2009, Gaussian, Inc.),
 the Gaussian(R) 03 system (copyright 2003, Gaussian, Inc.),
 the Gaussian(R) 98 system (copyright 1998, Gaussian, Inc.),
 the Gaussian(R) 94 system (copyright 1995, Gaussian, Inc.),
 the Gaussian 92(TM) system (copyright 1992, Gaussian, Inc.),
 the Gaussian 90(TM) system (copyright 1990, Gaussian, Inc.),
 the Gaussian 88(TM) system (copyright 1988, Gaussian, Inc.),
 the Gaussian 86(TM) system (copyright 1986, Carnegie Mellon
 University), and the Gaussian 82(TM) system (copyright 1983,
 Carnegie Mellon University). Gaussian is a federally registered
 trademark of Gaussian, Inc.
  
 This software contains proprietary and confidential information,
 including trade secrets, belonging to Gaussian, Inc.
  
 This software is provided under written license and may be
 used, copied, transmitted, or stored only in accord with that
 written license.
  
 The following legend is applicable only to US Government
 contracts under FAR:
  
                    RESTRICTED RIGHTS LEGEND
  
 Use, reproduction and disclosure by the US Government is
 subject to restrictions as set forth in subparagraphs (a)
 and (c) of the Commercial Computer Software - Restricted
 Rights clause in FAR 52.227-19.
  
 Gaussian, Inc.
 340 Quinnipiac St., Bldg. 40, Wallingford CT 06492
  
  
 ---------------------------------------------------------------
 Warning -- This program may not be used in any manner that
 competes with the business of Gaussian, Inc. or will provide
 assistance to any competitor of Gaussian, Inc.  The licensee
 of this program is prohibited from giving any competitor of
 Gaussian, Inc. access to this program.  By using this program,
 the user acknowledges that Gaussian, Inc. is engaged in the
 business of creating and licensing software in the field of
 computational chemistry and represents and warrants to the
 licensee that it is not a competitor of Gaussian, Inc. and that
 it will not use this program in any manner prohibited above.
 ---------------------------------------------------------------
  

 Cite this work as:
 Gaussian 16, Revision C.01,
 M. J. Frisch, G. W. Trucks, H. B. Schlegel, G. E. Scuseria, 
 M. A. Robb, J. R. Cheeseman, G. Scalmani, V. Barone, 
 G. A. Petersson, H. Nakatsuji, X. Li, M. Caricato, A. V. Marenich, 
 J. Bloino, B. G. Janesko, R. Gomperts, B. Mennucci, H. P. Hratchian, 
 J. V. Ortiz, A. F. Izmaylov, J. L. Sonnenberg, D. Williams-Young, 
 F. Ding, F. Lipparini, F. Egidi, J. Goings, B. Peng, A. Petrone, 
 T. Henderson, D. Ranasinghe, V. G. Zakrzewski, J. Gao, N. Rega, 
 G. Zheng, W. Liang, M. Hada, M. Ehara, K. Toyota, R. Fukuda, 
 J. Hasegawa, M. Ishida, T. Nakajima, Y. Honda, O. Kitao, H. Nakai, 
 T. Vreven, K. Throssell, J. A. Montgomery, Jr., J. E. Peralta, 
 F. Ogliaro, M. J. Bearpark, J. J. Heyd, E. N. Brothers, K. N. Kudin, 
 V. N. Staroverov, T. A. Keith, R. Kobayashi, J. Normand, 
 K. Raghavachari, A. P. Rendell, J. C. Burant, S. S. Iyengar, 
 J. Tomasi, M. Cossi, J. M. Millam, M. Klene, C. Adamo, R. Cammi, 
 J. W. Ochterski, R. L. Martin, K. Morokuma, O. Farkas, 
 J. B. Foresman, and D. J. Fox, Gaussian, Inc., Wallingford CT, 2019.
 
 ******************************************
 Gaussian 16:  ES64L-G16RevC.01  3-Jul-2019
                 8-Apr-2025 
 ******************************************
 %nprocs=16
 Will use up to   16 processors via shared memory.
 %mem=30GB
 %chk=A21x12_02_water-dimer_1p4_mol1.chk
 ----------------------------------------------------------------------
 #t hf aug-cc-pvdz iop(5/13=1,5/36=2,99/5=2) pseudo=read geom=check gue
 ss=(read,tcheck) scf=(maxcycle=1)
 ----------------------------------------------------------------------
 -----
 title
 -----
 Structure from the checkpoint file:  "A21x12_02_water-dimer_1p4_mol1.chk"
 Charge =  0 Multiplicity = 1
 Z-Matrix found in chk file.
 O,0,-0.07100024,0.,2.0790391
 H,0,0.81173317,0.,2.45055075
 H,0,0.064854,0.,1.12382713
 O,0,0.06654819,0.,-2.00730585
 H,0,-0.40296496,-0.76017841,-2.35641827
 H,0,-0.40296496,0.76017841,-2.35641827
 Recover connectivity data from disk.
                    Distance matrix (angstroms):
                    1          2          3          4          5
     1  O    0.000000
     2  H    0.957726   0.000000
     3  H    0.964824   1.522506   0.000000
     4  O    4.088659   4.519711   3.131133   0.000000
     5  H    4.512356   5.016006   3.592887   0.959267   0.000000
     6  H    4.512356   5.016006   3.592887   0.959267   1.520357
                    6
     6  H    0.000000
 Framework group  CS[SG(H2O2),X(H2)]
 Deg. of freedom     8
                         Standard orientation:                         
 ---------------------------------------------------------------------
 Center     Atomic      Atomic             Coordinates (Angstroms)
 Number     Number       Type             X           Y           Z
 ---------------------------------------------------------------------
      1          8           0       -0.001820    2.108523    0.000000
      2          1           0        0.892912    2.450128    0.000000
      3          1           0        0.101823    1.149282    0.000000
      4          8           0       -0.001820   -1.980136   -0.000000
      5          1           0       -0.482812   -2.313256    0.760178
      6          1           0       -0.482812   -2.313256   -0.760178
 ---------------------------------------------------------------------
 Rotational constants (GHZ):         218.7628025           3.2977667           3.2973493
 ======================================================================================================
                                       Pseudopotential Parameters
 ======================================================================================================
  Center     Atomic      Valence      Angular      Power
  Number     Number     Electrons     Momentum     of R      Exponent        Coefficient   SO-Coeffient
 ======================================================================================================
    1          8            8
                                      G and up 
                                                     0        0.0000010        0.00049668    0.00000000
                                                     2        0.1200000       -0.01803391    0.00000000
                                                     2        0.1400000        0.04014195    0.00000000
                                                     2        0.2000000       -0.02692147    0.00000000
                                                     2        0.2800000       -0.04241843    0.00000000
                                                     2        0.4000000        0.15412145    0.00000000
                                                     2        0.7000000       -0.40587006    0.00000000
                                                     2        1.1000000        1.75666647    0.00000000
                                      S - G
                                                     0        0.0000010       -0.01088195    0.00000000
                                                     2        0.1200000        0.09867335    0.00000000
                                                     2        0.2400000       -0.08484177    0.00000000
                                                     2        0.6000000       -1.39011554    0.00000000
                                                     2        2.5000000        1.36225910    0.00000000
                                      P - G
                                                     0        0.0000010        0.05874028    0.00000000
                                                     2        0.1200000       -0.11700340    0.00000000
                                                     2        0.1600000        0.08847775    0.00000000
                                                     2        0.3000000        0.04709907    0.00000000
                                                     2        1.2000000       -1.80388338    0.00000000
                                      D - G
                                                     0        0.0000010       -0.00541262    0.00000000
                                                     2        0.1200000       -0.26547906    0.00000000
                                                     2        0.1600000        1.04289661    0.00000000
                                                     2        0.2400000       -1.92800913    0.00000000
                                                     2        0.4000000        2.26691633    0.00000000
                                                     2        0.7000000       -1.97391482    0.00000000
                                      F - G
                                                     0        0.0000010       -0.02604870    0.00000000
                                                     2        0.1200000        0.37362552    0.00000000
                                                     2        0.1600000       -1.43526367    0.00000000
                                                     2        0.2200000        1.76778079    0.00000000
                                                     2        0.5000000       -1.90846303    0.00000000
    2          1            1
                                      F and up 
                                                     0        0.0000010       -0.00007675    0.00000000
                                                     2        0.1200000        0.05352699    0.00000000
                                                     2        0.1400000       -0.25123645    0.00000000
                                                     2        0.1600000        0.32188106    0.00000000
                                                     2        0.2200000       -0.25206857    0.00000000
                                                     2        0.3000000        0.19290477    0.00000000
                                                     2        0.5000000       -0.10129770    0.00000000
                                                     2        0.9000000        0.00314995    0.00000000
                                                     2        1.5000000        0.18401192    0.00000000
                                      S - F
                                                     0        0.0000010        0.08065976    0.00000000
                                                     2        0.1200000       -0.09231673    0.00000000
                                                     2        0.1600000       -0.03278082    0.00000000
                                                     2        0.2800000        0.38423402    0.00000000
                                                     2        0.6000000       -1.09357590    0.00000000
                                                     2        1.1000000        1.53099489    0.00000000
                                                     2        3.0000000       -2.63300202    0.00000000
                                      P - F
                                                     0        0.0000010       -0.11638665    0.00000000
                                                     2        0.1200000        0.35468655    0.00000000
                                                     2        0.1600000       -0.59160923    0.00000000
                                                     2        0.3000000        0.49390547    0.00000000
                                                     2        0.6000000       -0.37949835    0.00000000
                                                     2        1.6000000        0.89304688    0.00000000
                                      D - F
                                                     0        0.0000010        0.05443663    0.00000000
                                                     2        0.1200000       -0.29679479    0.00000000
                                                     2        0.1400000        0.36849872    0.00000000
                                                     2        0.2400000        0.02793449    0.00000000
                                                     2        0.4000000       -0.46312857    0.00000000
                                                     2        0.7000000        0.97587598    0.00000000
                                                     2        1.5000000       -2.43431102    0.00000000
    3          1            1
                                      F and up 
                                                     0        0.0000010       -0.00007675    0.00000000
                                                     2        0.1200000        0.05352699    0.00000000
                                                     2        0.1400000       -0.25123645    0.00000000
                                                     2        0.1600000        0.32188106    0.00000000
                                                     2        0.2200000       -0.25206857    0.00000000
                                                     2        0.3000000        0.19290477    0.00000000
                                                     2        0.5000000       -0.10129770    0.00000000
                                                     2        0.9000000        0.00314995    0.00000000
                                                     2        1.5000000        0.18401192    0.00000000
                                      S - F
                                                     0        0.0000010        0.08065976    0.00000000
                                                     2        0.1200000       -0.09231673    0.00000000
                                                     2        0.1600000       -0.03278082    0.00000000
                                                     2        0.2800000        0.38423402    0.00000000
                                                     2        0.6000000       -1.09357590    0.00000000
                                                     2        1.1000000        1.53099489    0.00000000
                                                     2        3.0000000       -2.63300202    0.00000000
                                      P - F
                                                     0        0.0000010       -0.11638665    0.00000000
                                                     2        0.1200000        0.35468655    0.00000000
                                                     2        0.1600000       -0.59160923    0.00000000
                                                     2        0.3000000        0.49390547    0.00000000
                                                     2        0.6000000       -0.37949835    0.00000000
                                                     2        1.6000000        0.89304688    0.00000000
                                      D - F
                                                     0        0.0000010        0.05443663    0.00000000
                                                     2        0.1200000       -0.29679479    0.00000000
                                                     2        0.1400000        0.36849872    0.00000000
                                                     2        0.2400000        0.02793449    0.00000000
                                                     2        0.4000000       -0.46312857    0.00000000
                                                     2        0.7000000        0.97587598    0.00000000
                                                     2        1.5000000       -2.43431102    0.00000000
    4          8            8
                                      G and up 
                                                     0        0.0000010        0.00049668    0.00000000
                                                     2        0.1200000       -0.01803391    0.00000000
                                                     2        0.1400000        0.04014195    0.00000000
                                                     2        0.2000000       -0.02692147    0.00000000
                                                     2        0.2800000       -0.04241843    0.00000000
                                                     2        0.4000000        0.15412145    0.00000000
                                                     2        0.7000000       -0.40587006    0.00000000
                                                     2        1.1000000        1.75666647    0.00000000
                                      S - G
                                                     0        0.0000010       -0.01088195    0.00000000
                                                     2        0.1200000        0.09867335    0.00000000
                                                     2        0.2400000       -0.08484177    0.00000000
                                                     2        0.6000000       -1.39011554    0.00000000
                                                     2        2.5000000        1.36225910    0.00000000
                                      P - G
                                                     0        0.0000010        0.05874028    0.00000000
                                                     2        0.1200000       -0.11700340    0.00000000
                                                     2        0.1600000        0.08847775    0.00000000
                                                     2        0.3000000        0.04709907    0.00000000
                                                     2        1.2000000       -1.80388338    0.00000000
                                      D - G
                                                     0        0.0000010       -0.00541262    0.00000000
                                                     2        0.1200000       -0.26547906    0.00000000
                                                     2        0.1600000        1.04289661    0.00000000
                                                     2        0.2400000       -1.92800913    0.00000000
                                                     2        0.4000000        2.26691633    0.00000000
                                                     2        0.7000000       -1.97391482    0.00000000
                                      F - G
                                                     0        0.0000010       -0.02604870    0.00000000
                                                     2        0.1200000        0.37362552    0.00000000
                                                     2        0.1600000       -1.43526367    0.00000000
                                                     2        0.2200000        1.76778079    0.00000000
                                                     2        0.5000000       -1.90846303    0.00000000
    5          1            1
                                      F and up 
                                                     0        0.0000010       -0.00007675    0.00000000
                                                     2        0.1200000        0.05352699    0.00000000
                                                     2        0.1400000       -0.25123645    0.00000000
                                                     2        0.1600000        0.32188106    0.00000000
                                                     2        0.2200000       -0.25206857    0.00000000
                                                     2        0.3000000        0.19290477    0.00000000
                                                     2        0.5000000       -0.10129770    0.00000000
                                                     2        0.9000000        0.00314995    0.00000000
                                                     2        1.5000000        0.18401192    0.00000000
                                      S - F
                                                     0        0.0000010        0.08065976    0.00000000
                                                     2        0.1200000       -0.09231673    0.00000000
                                                     2        0.1600000       -0.03278082    0.00000000
                                                     2        0.2800000        0.38423402    0.00000000
                                                     2        0.6000000       -1.09357590    0.00000000
                                                     2        1.1000000        1.53099489    0.00000000
                                                     2        3.0000000       -2.63300202    0.00000000
                                      P - F
                                                     0        0.0000010       -0.11638665    0.00000000
                                                     2        0.1200000        0.35468655    0.00000000
                                                     2        0.1600000       -0.59160923    0.00000000
                                                     2        0.3000000        0.49390547    0.00000000
                                                     2        0.6000000       -0.37949835    0.00000000
                                                     2        1.6000000        0.89304688    0.00000000
                                      D - F
                                                     0        0.0000010        0.05443663    0.00000000
                                                     2        0.1200000       -0.29679479    0.00000000
                                                     2        0.1400000        0.36849872    0.00000000
                                                     2        0.2400000        0.02793449    0.00000000
                                                     2        0.4000000       -0.46312857    0.00000000
                                                     2        0.7000000        0.97587598    0.00000000
                                                     2        1.5000000       -2.43431102    0.00000000
    6          1            1
                                      F and up 
                                                     0        0.0000010       -0.00007675    0.00000000
                                                     2        0.1200000        0.05352699    0.00000000
                                                     2        0.1400000       -0.25123645    0.00000000
                                                     2        0.1600000        0.32188106    0.00000000
                                                     2        0.2200000       -0.25206857    0.00000000
                                                     2        0.3000000        0.19290477    0.00000000
                                                     2        0.5000000       -0.10129770    0.00000000
                                                     2        0.9000000        0.00314995    0.00000000
                                                     2        1.5000000        0.18401192    0.00000000
                                      S - F
                                                     0        0.0000010        0.08065976    0.00000000
                                                     2        0.1200000       -0.09231673    0.00000000
                                                     2        0.1600000       -0.03278082    0.00000000
                                                     2        0.2800000        0.38423402    0.00000000
                                                     2        0.6000000       -1.09357590    0.00000000
                                                     2        1.1000000        1.53099489    0.00000000
                                                     2        3.0000000       -2.63300202    0.00000000
                                      P - F
                                                     0        0.0000010       -0.11638665    0.00000000
                                                     2        0.1200000        0.35468655    0.00000000
                                                     2        0.1600000       -0.59160923    0.00000000
                                                     2        0.3000000        0.49390547    0.00000000
                                                     2        0.6000000       -0.37949835    0.00000000
                                                     2        1.6000000        0.89304688    0.00000000
                                      D - F
                                                     0        0.0000010        0.05443663    0.00000000
                                                     2        0.1200000       -0.29679479    0.00000000
                                                     2        0.1400000        0.36849872    0.00000000
                                                     2        0.2400000        0.02793449    0.00000000
                                                     2        0.4000000       -0.46312857    0.00000000
                                                     2        0.7000000        0.97587598    0.00000000
                                                     2        1.5000000       -2.43431102    0.00000000
 ======================================================================================================
    82 basis functions,   130 primitive gaussians,    86 cartesian basis functions
    10 alpha electrons       10 beta electrons
       nuclear repulsion energy        31.2838973495 Hartrees.
 NAtoms=    6 NActive=    6 NUniq=    5 SFac= 1.44D+00 NAtFMM=   60 NAOKFM=F Big=F
   2 Symmetry operations used in ECPInt.
 ECPInt:  NShTT=     741 NPrTT=    2877 LenC2=     739 LenP2D=    2413.
 LDataN:  DoStor=T MaxTD1= 6 Len=  172
 Initial guess from the checkpoint file:  "A21x12_02_water-dimer_1p4_mol1.chk"
 B after Tr=    -0.001514    0.053427   -0.000000
         Rot=    0.707007    0.707007   -0.011896    0.011896 Ang=  90.02 deg.
 Initial guess orbital symmetries:
       Occupied  (A') (A') (A') (A') (A") (A') (A') (A') (A') (A")
       Virtual   (A') (A') (A") (A') (A') (A') (A") (A') (A") (A')
                 (A') (A') (A") (A') (A') (A") (A') (A') (A") (A')
                 (A") (A') (A") (A') (A') (A") (A') (A') (A") (A')
                 (A') (A') (A") (A') (A") (A') (A') (A") (A') (A')
                 (A") (A') (A") (A') (A') (A') (A") (A") (A') (A")
                 (A") (A') (A') (A') (A") (A') (A') (A') (A") (A')
                 (A') (A') (A") (A') (A") (A') (A') (A") (A') (A')
                 (A") (A')
 >>>>>>>>>> Convergence criterion not met.
 SCF Done:  E(RHF) =  -152.242828057     A.U. after    2 cycles
            NFock=  1  Conv=0.58D-02     -V/T= 2.0086

 **********************************************************************

            Population analysis using the SCF Density.

 **********************************************************************

 Orbital symmetries:
       Occupied  (A') (A') (A') (A') (A") (A') (A') (A') (A') (A")
       Virtual   (A') (A') (A") (A') (A') (A') (A") (A') (A") (A')
                 (A') (A') (A") (A') (A') (A") (A') (A') (A") (A')
                 (A") (A') (A") (A') (A') (A") (A') (A') (A") (A')
                 (A') (A') (A") (A') (A") (A') (A') (A") (A') (A')
                 (A") (A') (A") (A') (A') (A') (A") (A") (A') (A")
                 (A") (A') (A') (A') (A") (A') (A') (A') (A") (A')
                 (A') (A') (A') (A") (A") (A') (A') (A") (A') (A')
                 (A") (A')
 The electronic state is 1-A'.
 Alpha  occ. eigenvalues --  -20.56989 -20.54813  -1.45087  -1.42799  -0.72261
 Alpha  occ. eigenvalues --   -0.69956  -0.59055  -0.56782  -0.51065  -0.48846
 Alpha virt. eigenvalues --    0.03167   0.05049   0.05449   0.08540   0.16339
 Alpha virt. eigenvalues --    0.18090   0.20188   0.21705   0.22558   0.23446
 Alpha virt. eigenvalues --    0.24643   0.25803   0.28690   0.31310   0.34145
 Alpha virt. eigenvalues --    0.36340   0.37071   0.42093   0.42254   0.44158
 Alpha virt. eigenvalues --    0.45926   0.51366   0.55154   0.56783   0.63092
 Alpha virt. eigenvalues --    0.64821   0.66938   0.72621   0.81376   0.85733
 Alpha virt. eigenvalues --    0.93396   0.96506   1.11641   1.12760   1.14781
 Alpha virt. eigenvalues --    1.16236   1.17641   1.18621   1.34856   1.36710
 Alpha virt. eigenvalues --    1.48008   1.50599   1.54744   1.55318   1.62643
 Alpha virt. eigenvalues --    1.65514   2.01006   2.02774   2.03331   2.03987
 Alpha virt. eigenvalues --    2.14131   2.14375   2.38717   2.41074   2.52720
 Alpha virt. eigenvalues --    2.57351   2.64784   2.74354   2.83847   2.87683
 Alpha virt. eigenvalues --    3.06721   3.07626   3.77553   3.77677   3.78676
 Alpha virt. eigenvalues --    3.79420   3.80136   3.81694   4.13090   4.14768
 Alpha virt. eigenvalues --    4.40889   4.43262
          Condensed to atoms (all electrons):
 Mulliken charges:
               1
     1  O   -0.753526
     2  H    0.353229
     3  H    0.392841
     4  O   -0.768197
     5  H    0.387827
     6  H    0.387827
 Sum of Mulliken charges =   0.00000
 Mulliken charges with hydrogens summed into heavy atoms:
               1
     1  O   -0.007457
     4  O    0.007457
 Electronic spatial extent (au):  <R**2>=            339.1585
 Charge=              0.0000 electrons
 Dipole moment (field-independent basis, Debye):
    X=              0.0447    Y=             -2.3013    Z=             -0.0000  Tot=              2.3017

 Test job not archived.
 1\1\GINC-SE128\SP\RHF\Aug-CC-pVDZ\H4O2\OHZDE\08-Apr-2025\0\\#t hf aug-
 cc-pvdz iop(5/13=1,5/36=2,99/5=2) pseudo=read geom=check guess=(read,t
 check) scf=(maxcycle=1)\\title\\0,1\O,0,-0.07100024,0.,2.0790391\H,0,0
 .81173317,0.,2.45055075\H,0,0.064854,0.,1.12382713\O,0,0.06654819,0.,-
 2.00730585\H,0,-0.40296496,-0.76017841,-2.35641827\H,0,-0.40296496,0.7
 6017841,-2.35641827\\Version=ES64L-G16RevC.01\State=1-A'\HF=-152.24282
 81\RMSD=5.845e-03\Dipole=0.0480453,0.,-0.9042993\Quadrupole=-0.4300244
 ,-0.0751542,0.5051786,0.,6.1675509,0.\PG=CS [SG(H2O2),X(H2)]\\@


 THE BEST WAY TO CONVINCE A FOOL THAT HE IS WRONG 
 IS TO LET HIM HAVE HIS OWN WAY.

                                         JOSH BILLINGS
 Job cpu time:       0 days  0 hours  0 minutes  6.5 seconds.
 Elapsed time:       0 days  0 hours  0 minutes  1.0 seconds.
 File lengths (MBytes):  RWF=      6 Int=      0 D2E=      0 Chk=      2 Scr=      1
 Normal termination of Gaussian 16 at Tue Apr  8 19:09:48 2025.
