 Entering Gaussian System, Link 0=g16
 Input=ANI1ccx_1844_conf42_mol1.gjf
 Output=ANI1ccx_1844_conf42_mol1.log
 Initial command:
 /arc/software/Gaussian/g16.c01/l1.exe "/tmp/slurm/4836981/Gau-2208774.inp" -scrdir="/tmp/slurm/4836981/"
 Entering Link 1 = /arc/software/Gaussian/g16.c01/l1.exe PID=   2208775.
  
 Copyright (c) 1988-2019, Gaussian, Inc.  All Rights Reserved.
  
 This is part of the Gaussian(R) 16 program.  It is based on
 the Gaussian(R) 09 system (copyright 2009, Gaussian, Inc.),
 the Gaussian(R) 03 system (copyright 2003, Gaussian, Inc.),
 the Gaussian(R) 98 system (copyright 1998, Gaussian, Inc.),
 the Gaussian(R) 94 system (copyright 1995, Gaussian, Inc.),
 the Gaussian 92(TM) system (copyright 1992, Gaussian, Inc.),
 the Gaussian 90(TM) system (copyright 1990, Gaussian, Inc.),
 the Gaussian 88(TM) system (copyright 1988, Gaussian, Inc.),
 the Gaussian 86(TM) system (copyright 1986, Carnegie Mellon
 University), and the Gaussian 82(TM) system (copyright 1983,
 Carnegie Mellon University). Gaussian is a federally registered
 trademark of Gaussian, Inc.
  
 This software contains proprietary and confidential information,
 including trade secrets, belonging to Gaussian, Inc.
  
 This software is provided under written license and may be
 used, copied, transmitted, or stored only in accord with that
 written license.
  
 The following legend is applicable only to US Government
 contracts under FAR:
  
                    RESTRICTED RIGHTS LEGEND
  
 Use, reproduction and disclosure by the US Government is
 subject to restrictions as set forth in subparagraphs (a)
 and (c) of the Commercial Computer Software - Restricted
 Rights clause in FAR 52.227-19.
  
 Gaussian, Inc.
 340 Quinnipiac St., Bldg. 40, Wallingford CT 06492
  
  
 ---------------------------------------------------------------
 Warning -- This program may not be used in any manner that
 competes with the business of Gaussian, Inc. or will provide
 assistance to any competitor of Gaussian, Inc.  The licensee
 of this program is prohibited from giving any competitor of
 Gaussian, Inc. access to this program.  By using this program,
 the user acknowledges that Gaussian, Inc. is engaged in the
 business of creating and licensing software in the field of
 computational chemistry and represents and warrants to the
 licensee that it is not a competitor of Gaussian, Inc. and that
 it will not use this program in any manner prohibited above.
 ---------------------------------------------------------------
  

 Cite this work as:
 Gaussian 16, Revision C.01,
 M. J. Frisch, G. W. Trucks, H. B. Schlegel, G. E. Scuseria, 
 M. A. Robb, J. R. Cheeseman, G. Scalmani, V. Barone, 
 G. A. Petersson, H. Nakatsuji, X. Li, M. Caricato, A. V. Marenich, 
 J. Bloino, B. G. Janesko, R. Gomperts, B. Mennucci, H. P. Hratchian, 
 J. V. Ortiz, A. F. Izmaylov, J. L. Sonnenberg, D. Williams-Young, 
 F. Ding, F. Lipparini, F. Egidi, J. Goings, B. Peng, A. Petrone, 
 T. Henderson, D. Ranasinghe, V. G. Zakrzewski, J. Gao, N. Rega, 
 G. Zheng, W. Liang, M. Hada, M. Ehara, K. Toyota, R. Fukuda, 
 J. Hasegawa, M. Ishida, T. Nakajima, Y. Honda, O. Kitao, H. Nakai, 
 T. Vreven, K. Throssell, J. A. Montgomery, Jr., J. E. Peralta, 
 F. Ogliaro, M. J. Bearpark, J. J. Heyd, E. N. Brothers, K. N. Kudin, 
 V. N. Staroverov, T. A. Keith, R. Kobayashi, J. Normand, 
 K. Raghavachari, A. P. Rendell, J. C. Burant, S. S. Iyengar, 
 J. Tomasi, M. Cossi, J. M. Millam, M. Klene, C. Adamo, R. Cammi, 
 J. W. Ochterski, R. L. Martin, K. Morokuma, O. Farkas, 
 J. B. Foresman, and D. J. Fox, Gaussian, Inc., Wallingford CT, 2019.
 
 ******************************************
 Gaussian 16:  ES64L-G16RevC.01  3-Jul-2019
                 8-Apr-2025 
 ******************************************
 %nprocs=16
 Will use up to   16 processors via shared memory.
 %mem=30GB
 %chk=ANI1ccx_1844_conf42_mol1.chk
 ----------------------------------------------------------------------
 #t hf aug-cc-pvdz symm=none int=(grid=ultrafine) guess=(read,tcheck) s
 table=(opt,rrhf)
 ----------------------------------------------------------------------
 -----
 title
 -----
 Symbolic Z-matrix:
 Charge =  0 Multiplicity = 1
 H                     2.35013   0.50633  -0.53524 
 H                    -2.28499  -1.68985  -1.31608 
 H                    -2.4852   -0.41573  -0.43566 
 H                     2.73685  -1.67441  -1.16403 
 H                     1.63712  -1.47558  -0.04023 
 H                    -0.00818  -1.92949   1.5765 
 H                     2.81504   1.81881   0.17392 
 H                    -0.80982  -1.52035   0.31775 
 H                    -0.08578   0.46802   1.0782 
 H                     0.65406   1.59337   0.28949 
 H                    -1.49689   1.40971  -0.03609 
 H                    -3.03456   1.77543   0.07343 
 O                     2.57282  -1.25054  -0.28354 
 O                    -0.1095    1.42927   0.91413 
 O                    -2.35043  -1.40607  -0.39389 
 O                     0.06337  -1.39201   0.76782 
 O                     2.2179    1.49524  -0.54418 
 O                    -2.39264   1.26583  -0.4581 
 
                    Distance matrix (angstroms):
                    1          2          3          4          5
     1  H    0.000000
     2  H    5.188184   0.000000
     3  H    4.923466   1.561603   0.000000
     4  H    2.302292   5.024165   5.420757   0.000000
     5  H    2.163648   4.129971   4.274714   1.584890   0.000000
     6  H    3.994278   3.688944   3.532124   3.887256   2.350924
     7  H    1.562579   6.367189   5.784228   3.741498   3.505190
     8  H    3.849710   2.207772   2.143530   3.846849   2.473388
     9  H    2.922039   3.901985   2.971530   4.193429   2.827868
    10  H    2.176809   4.689923   3.797006   4.138735   3.239379
    11  H    3.983066   3.444816   2.113917   5.358041   4.259922
    12  H    5.565607   3.807986   2.315631   6.836803   5.692678
    13  O    1.788722   4.985725   5.128705   0.990878   0.992662
    14  O    3.000377   4.408575   3.296958   4.696092   3.521310
    15  O    5.076663   0.967087   1.000342   5.152237   4.003806
    16  O    3.245133   3.153754   2.982738   3.310478   1.771043
    17  O    0.997754   5.569259   5.077670   3.271117   3.068720
    18  O    4.803817   3.079572   1.684254   5.954411   4.891719
                    6          7          8          9         10
     6  H    0.000000
     7  H    4.897710   0.000000
     8  H    1.547410   4.930544   0.000000
     9  H    2.449973   3.325227   2.248582   0.000000
    10  H    3.808609   2.175782   3.440782   1.560720   0.000000
    11  H    3.995867   4.336382   3.030267   2.029691   2.183187
    12  H    5.014442   5.850624   3.983885   3.378488   3.699422
    13  O    3.253040   3.112691   3.446240   3.446148   3.478194
    14  O    3.424947   3.041805   3.089722   0.975441   1.000062
    15  O    3.105241   6.115908   1.700873   3.287533   4.300068
    16  O    0.973637   4.270099   0.990707   1.891636   3.080617
    17  O    4.602334   0.988400   4.359331   2.999040   1.774889
    18  O    4.476083   5.274956   3.296979   2.884149   3.154130
                   11         12         13         14         15
    11  H    0.000000
    12  H    1.584353   0.000000
    13  O    4.868337   6.381742   0.000000
    14  O    1.681714   3.063103   3.976257   0.000000
    15  O    2.963978   3.287607   4.926942   3.843416   0.000000
    16  O    3.306105   4.484646   2.724460   2.830356   2.678845
    17  O    3.750351   5.296063   2.780865   2.747325   5.413855
    18  O    1.000582   0.976872   5.569415   2.668798   2.673005
                   16         17         18
    16  O    0.000000
    17  O    3.833996   0.000000
    18  O    3.820864   4.617046   0.000000
 Symmetry turned off by external request.
 Rotational constants (GHZ):           2.0253188           1.1112053           0.8150194
   246 basis functions,   390 primitive gaussians,   258 cartesian basis functions
    30 alpha electrons       30 beta electrons
       nuclear repulsion energy       287.6604281723 Hartrees.
 NAtoms=   18 NActive=   18 NUniq=   18 SFac= 1.00D+00 NAtFMM=   60 NAOKFM=F Big=F
 ExpMin= 2.97D-02 ExpMax= 1.17D+04 ExpMxC= 4.01D+02 IAcc=3 IRadAn=         5 AccDes= 0.00D+00
 Harris functional with IExCor=  205 and IRadAn=       5 diagonalized for initial guess.
 HarFok:  IExCor=  205 AccDes= 0.00D+00 IRadAn=         5 IDoV= 1 UseB2=F ITyADJ=14
 ICtDFT=  3500011 ScaDFX=  1.000000  1.000000  1.000000  1.000000
 FoFCou: FMM=F IPFlag=           0 FMFlag=      100000 FMFlg1=           0
         NFxFlg=           0 DoJE=T BraDBF=F KetDBF=T FulRan=T
         wScrn=  0.000000 ICntrl=       500 IOpCl=  0 I1Cent=   200000004 NGrid=           0
         NMat0=    1 NMatS0=      1 NMatT0=    0 NMatD0=    1 NMtDS0=    0 NMtDT0=    0
 Symmetry not used in FoFCou.
 SCF Done:  E(RHF) =  -456.277922083     A.U. after   11 cycles
            NFock= 11  Conv=0.52D-08     -V/T= 2.0021

 **********************************************************************

            Population analysis using the SCF Density.

 **********************************************************************

 Alpha  occ. eigenvalues --  -20.59436 -20.58279 -20.57564 -20.56878 -20.56456
 Alpha  occ. eigenvalues --  -20.54984  -1.37945  -1.35506  -1.35045  -1.34067
 Alpha  occ. eigenvalues --   -1.33273  -1.31587  -0.74031  -0.72445  -0.72304
 Alpha  occ. eigenvalues --   -0.70788  -0.70087  -0.69541  -0.63490  -0.60699
 Alpha  occ. eigenvalues --   -0.59252  -0.58945  -0.57043  -0.55206  -0.52334
 Alpha  occ. eigenvalues --   -0.50925  -0.50793  -0.49786  -0.49353  -0.47958
 Alpha virt. eigenvalues --    0.02706   0.04539   0.04805   0.05207   0.06118
 Alpha virt. eigenvalues --    0.07889   0.08539   0.09002   0.09095   0.10217
 Alpha virt. eigenvalues --    0.10513   0.12603   0.16518   0.18501   0.19729
 Alpha virt. eigenvalues --    0.19876   0.20073   0.21087   0.22270   0.22902
 Alpha virt. eigenvalues --    0.23052   0.23567   0.24708   0.25646   0.26225
 Alpha virt. eigenvalues --    0.27337   0.27428   0.28249   0.28489   0.28957
 Alpha virt. eigenvalues --    0.29431   0.30103   0.30548   0.31386   0.32918
 Alpha virt. eigenvalues --    0.33527   0.35441   0.36858   0.38045   0.38510
 Alpha virt. eigenvalues --    0.39219   0.40765   0.42070   0.44128   0.44950
 Alpha virt. eigenvalues --    0.45485   0.47026   0.48130   0.48623   0.48780
 Alpha virt. eigenvalues --    0.49628   0.51228   0.52449   0.52917   0.53743
 Alpha virt. eigenvalues --    0.55367   0.55642   0.56007   0.56636   0.58529
 Alpha virt. eigenvalues --    0.58827   0.59121   0.59933   0.61115   0.62551
 Alpha virt. eigenvalues --    0.62928   0.64326   0.65553   0.65951   0.66929
 Alpha virt. eigenvalues --    0.67032   0.69120   0.69631   0.70088   0.71451
 Alpha virt. eigenvalues --    0.73527   0.74155   0.79071   0.80947   0.81146
 Alpha virt. eigenvalues --    0.84175   0.85780   0.91129   0.92623   0.93786
 Alpha virt. eigenvalues --    0.95584   0.97587   0.98663   1.01601   1.03828
 Alpha virt. eigenvalues --    1.05360   1.06932   1.07648   1.09389   1.11391
 Alpha virt. eigenvalues --    1.12847   1.18046   1.19010   1.20817   1.20879
 Alpha virt. eigenvalues --    1.23180   1.25365   1.25881   1.26519   1.27101
 Alpha virt. eigenvalues --    1.28185   1.28411   1.31315   1.32323   1.34009
 Alpha virt. eigenvalues --    1.35779   1.37754   1.38348   1.41391   1.43370
 Alpha virt. eigenvalues --    1.44132   1.45941   1.46669   1.48391   1.52470
 Alpha virt. eigenvalues --    1.53035   1.54815   1.56811   1.57172   1.61081
 Alpha virt. eigenvalues --    1.66328   1.69759   1.70192   1.73306   1.74679
 Alpha virt. eigenvalues --    1.78631   1.89450   1.90917   1.93806   1.94974
 Alpha virt. eigenvalues --    1.95582   1.96225   2.00422   2.01951   2.02527
 Alpha virt. eigenvalues --    2.03959   2.06157   2.07049   2.10283   2.12953
 Alpha virt. eigenvalues --    2.15334   2.18575   2.18692   2.20226   2.22266
 Alpha virt. eigenvalues --    2.25987   2.28636   2.32313   2.33546   2.36293
 Alpha virt. eigenvalues --    2.44270   2.45021   2.48321   2.50039   2.50926
 Alpha virt. eigenvalues --    2.51892   2.53781   2.54889   2.56750   2.58126
 Alpha virt. eigenvalues --    2.60205   2.66776   2.74010   2.77054   2.78556
 Alpha virt. eigenvalues --    2.80085   2.80493   2.83804   2.90075   2.92301
 Alpha virt. eigenvalues --    2.96161   3.00447   3.00492   3.04518   3.09239
 Alpha virt. eigenvalues --    3.18076   3.21060   3.22110   3.24608   3.27170
 Alpha virt. eigenvalues --    3.30670   3.73375   3.74284   3.74454   3.75482
 Alpha virt. eigenvalues --    3.76541   3.77080   3.78044   3.79944   3.81752
 Alpha virt. eigenvalues --    3.82476   3.84723   3.85597   3.86068   3.87068
 Alpha virt. eigenvalues --    3.88480   3.90238   3.93430   3.98091   4.13035
 Alpha virt. eigenvalues --    4.15468   4.17000   4.17812   4.22458   4.27406
 Alpha virt. eigenvalues --    4.35450   4.39896   4.41268   4.43353   4.43619
 Alpha virt. eigenvalues --    4.51444
          Condensed to atoms (all electrons):
 Mulliken charges:
               1
     1  H    0.346910
     2  H    0.161213
     3  H    0.373410
     4  H    0.208913
     5  H    0.382675
     6  H    0.257446
     7  H    0.213978
     8  H    0.458430
     9  H    0.329703
    10  H    0.369873
    11  H    0.403814
    12  H    0.173110
    13  O   -0.519811
    14  O   -0.680826
    15  O   -0.520215
    16  O   -0.841054
    17  O   -0.556203
    18  O   -0.561365
 Sum of Mulliken charges =  -0.00000
 Mulliken charges with hydrogens summed into heavy atoms:
               1
    13  O    0.071777
    14  O    0.018750
    15  O    0.014408
    16  O   -0.125178
    17  O    0.004685
    18  O    0.015558
 Electronic spatial extent (au):  <R**2>=           1409.5534
 Charge=             -0.0000 electrons
 Dipole moment (field-independent basis, Debye):
    X=              0.0315    Y=             -2.6323    Z=              0.0051  Tot=              2.6325
 NROrb=    246 NOA=    30 NOB=    30 NVA=   216 NVB=   216

 **** Warning!!: The largest alpha MO coefficient is  0.11078718D+02

    12 initial guesses have been made.
 Iteration     1 Dimension    12 NMult     0 NNew     12
 Iteration     2 Dimension    24 NMult    12 NNew     12
 Iteration     3 Dimension    27 NMult    24 NNew      3
 Iteration     4 Dimension    30 NMult    27 NNew      3
 Iteration     5 Dimension    33 NMult    30 NNew      3
 Iteration     6 Dimension    36 NMult    33 NNew      3
 Iteration     7 Dimension    39 NMult    36 NNew      3
 Iteration     8 Dimension    42 NMult    39 NNew      3
 Iteration     9 Dimension    45 NMult    42 NNew      3
 Iteration    10 Dimension    48 NMult    45 NNew      3
 Iteration    11 Dimension    51 NMult    48 NNew      3
 Iteration    12 Dimension    54 NMult    51 NNew      3
 ***********************************************************************
 Stability analysis using <AA,BB:AA,BB> singles matrix:
 ***********************************************************************
 Ground to excited state transition densities written to RWF  633

 Eigenvectors of the stability matrix:
 
 Excited state symmetry could not be determined.
 Eigenvector   1:      Singlet-?Sym  Eigenvalue= 0.3385735  <S**2>=0.000
      27 -> 31         0.38941
      27 -> 32         0.27373
      27 -> 35        -0.16513
      27 -> 41         0.14406
      27 -> 46         0.19881
      27 -> 47        -0.12031
      29 -> 34        -0.10393
 The wavefunction is stable under the perturbations considered.
 The wavefunction is already stable.

 **********************************************************************

            Population analysis using the SCF Density.

 **********************************************************************

 Alpha  occ. eigenvalues --  -20.59436 -20.58279 -20.57564 -20.56878 -20.56456
 Alpha  occ. eigenvalues --  -20.54984  -1.37945  -1.35506  -1.35045  -1.34067
 Alpha  occ. eigenvalues --   -1.33273  -1.31587  -0.74031  -0.72445  -0.72304
 Alpha  occ. eigenvalues --   -0.70788  -0.70087  -0.69541  -0.63490  -0.60699
 Alpha  occ. eigenvalues --   -0.59252  -0.58945  -0.57043  -0.55206  -0.52334
 Alpha  occ. eigenvalues --   -0.50925  -0.50793  -0.49786  -0.49353  -0.47958
 Alpha virt. eigenvalues --    0.02706   0.04539   0.04805   0.05207   0.06118
 Alpha virt. eigenvalues --    0.07889   0.08539   0.09002   0.09095   0.10217
 Alpha virt. eigenvalues --    0.10513   0.12603   0.16518   0.18501   0.19729
 Alpha virt. eigenvalues --    0.19876   0.20073   0.21087   0.22270   0.22902
 Alpha virt. eigenvalues --    0.23052   0.23567   0.24708   0.25646   0.26225
 Alpha virt. eigenvalues --    0.27337   0.27428   0.28249   0.28489   0.28957
 Alpha virt. eigenvalues --    0.29431   0.30103   0.30548   0.31386   0.32918
 Alpha virt. eigenvalues --    0.33527   0.35441   0.36858   0.38045   0.38510
 Alpha virt. eigenvalues --    0.39219   0.40765   0.42070   0.44128   0.44950
 Alpha virt. eigenvalues --    0.45485   0.47026   0.48130   0.48623   0.48780
 Alpha virt. eigenvalues --    0.49628   0.51228   0.52449   0.52917   0.53743
 Alpha virt. eigenvalues --    0.55367   0.55642   0.56007   0.56636   0.58529
 Alpha virt. eigenvalues --    0.58827   0.59121   0.59933   0.61115   0.62551
 Alpha virt. eigenvalues --    0.62928   0.64326   0.65553   0.65951   0.66929
 Alpha virt. eigenvalues --    0.67032   0.69120   0.69631   0.70088   0.71451
 Alpha virt. eigenvalues --    0.73527   0.74155   0.79071   0.80947   0.81146
 Alpha virt. eigenvalues --    0.84175   0.85780   0.91129   0.92623   0.93786
 Alpha virt. eigenvalues --    0.95584   0.97587   0.98663   1.01601   1.03828
 Alpha virt. eigenvalues --    1.05360   1.06932   1.07648   1.09389   1.11391
 Alpha virt. eigenvalues --    1.12847   1.18046   1.19010   1.20817   1.20879
 Alpha virt. eigenvalues --    1.23180   1.25365   1.25881   1.26519   1.27101
 Alpha virt. eigenvalues --    1.28185   1.28411   1.31315   1.32323   1.34009
 Alpha virt. eigenvalues --    1.35779   1.37754   1.38348   1.41391   1.43370
 Alpha virt. eigenvalues --    1.44132   1.45941   1.46669   1.48391   1.52470
 Alpha virt. eigenvalues --    1.53035   1.54815   1.56811   1.57172   1.61081
 Alpha virt. eigenvalues --    1.66328   1.69759   1.70192   1.73306   1.74679
 Alpha virt. eigenvalues --    1.78631   1.89450   1.90917   1.93806   1.94974
 Alpha virt. eigenvalues --    1.95582   1.96225   2.00422   2.01951   2.02527
 Alpha virt. eigenvalues --    2.03959   2.06157   2.07049   2.10283   2.12953
 Alpha virt. eigenvalues --    2.15334   2.18575   2.18692   2.20226   2.22266
 Alpha virt. eigenvalues --    2.25987   2.28636   2.32313   2.33546   2.36293
 Alpha virt. eigenvalues --    2.44270   2.45021   2.48321   2.50039   2.50926
 Alpha virt. eigenvalues --    2.51892   2.53781   2.54889   2.56750   2.58126
 Alpha virt. eigenvalues --    2.60205   2.66776   2.74010   2.77054   2.78556
 Alpha virt. eigenvalues --    2.80085   2.80493   2.83804   2.90075   2.92301
 Alpha virt. eigenvalues --    2.96161   3.00447   3.00492   3.04518   3.09239
 Alpha virt. eigenvalues --    3.18076   3.21060   3.22110   3.24608   3.27170
 Alpha virt. eigenvalues --    3.30670   3.73375   3.74284   3.74454   3.75482
 Alpha virt. eigenvalues --    3.76541   3.77080   3.78044   3.79944   3.81752
 Alpha virt. eigenvalues --    3.82476   3.84723   3.85597   3.86068   3.87068
 Alpha virt. eigenvalues --    3.88480   3.90238   3.93430   3.98091   4.13035
 Alpha virt. eigenvalues --    4.15468   4.17000   4.17812   4.22458   4.27406
 Alpha virt. eigenvalues --    4.35450   4.39896   4.41268   4.43353   4.43619
 Alpha virt. eigenvalues --    4.51444
          Condensed to atoms (all electrons):
 Mulliken charges:
               1
     1  H    0.346910
     2  H    0.161213
     3  H    0.373410
     4  H    0.208913
     5  H    0.382675
     6  H    0.257446
     7  H    0.213978
     8  H    0.458430
     9  H    0.329703
    10  H    0.369873
    11  H    0.403814
    12  H    0.173110
    13  O   -0.519811
    14  O   -0.680826
    15  O   -0.520215
    16  O   -0.841054
    17  O   -0.556203
    18  O   -0.561365
 Sum of Mulliken charges =  -0.00000
 Mulliken charges with hydrogens summed into heavy atoms:
               1
    13  O    0.071777
    14  O    0.018750
    15  O    0.014408
    16  O   -0.125178
    17  O    0.004685
    18  O    0.015558
 Electronic spatial extent (au):  <R**2>=           1409.5534
 Charge=             -0.0000 electrons
 Dipole moment (field-independent basis, Debye):
    X=              0.0315    Y=             -2.6323    Z=              0.0051  Tot=              2.6325
 Unable to Open any file for archive entry.
 1\1\GINC-SE095\Stability\RHF\Aug-CC-pVDZ\H12O6\OHZDE\08-Apr-2025\0\\#t
  hf aug-cc-pvdz symm=none int=(grid=ultrafine) guess=(read,tcheck) sta
 ble=(opt,rrhf)\\title\\0,1\H,0,2.35013,0.506327,-0.535236\H,0,-2.28499
 ,-1.68985,-1.31608\H,0,-2.4852,-0.415729,-0.435662\H,0,2.73685,-1.6744
 1,-1.16403\H,0,1.63712,-1.47558,-0.0402251\H,0,-0.0081798,-1.92949,1.5
 765\H,0,2.81504,1.81881,0.173918\H,0,-0.809817,-1.52035,0.317747\H,0,-
 0.0857821,0.468018,1.0782\H,0,0.654057,1.59337,0.289488\H,0,-1.49689,1
 .40971,-0.0360874\H,0,-3.03456,1.77543,0.0734299\O,0,2.57282,-1.25054,
 -0.283537\O,0,-0.109497,1.42927,0.914133\O,0,-2.35043,-1.40607,-0.3938
 85\O,0,0.0633748,-1.39201,0.76782\O,0,2.2179,1.49524,-0.544177\O,0,-2.
 39264,1.26583,-0.458101\\Version=ES64L-G16RevC.01\HF=-456.2779221\RMSD
 =5.213e-09\Dipole=0.0124078,-1.0356156,0.0020047\Quadrupole=-1.0583991
 ,0.1777145,0.8806846,-1.7155961,-0.5912638,3.3415199\PG=Unknown\\@
 The archive entry for this job was punched.


 Luck is a matter of preparation meeting opportunity.
                                    -- Oprah Winfrey
 Job cpu time:       0 days  0 hours  7 minutes 48.2 seconds.
 Elapsed time:       0 days  0 hours  0 minutes 34.4 seconds.
 File lengths (MBytes):  RWF=    289 Int=      0 D2E=      0 Chk=      9 Scr=      1
 Normal termination of Gaussian 16 at Tue Apr  8 21:08:46 2025.
 Initial command:
 /arc/software/Gaussian/g16.c01/l1.exe "/tmp/slurm/4836981/Gau-2208774.inp" -scrdir="/tmp/slurm/4836981/"
 Entering Link 1 = /arc/software/Gaussian/g16.c01/l1.exe PID=   2208993.
  
 Copyright (c) 1988-2019, Gaussian, Inc.  All Rights Reserved.
  
 This is part of the Gaussian(R) 16 program.  It is based on
 the Gaussian(R) 09 system (copyright 2009, Gaussian, Inc.),
 the Gaussian(R) 03 system (copyright 2003, Gaussian, Inc.),
 the Gaussian(R) 98 system (copyright 1998, Gaussian, Inc.),
 the Gaussian(R) 94 system (copyright 1995, Gaussian, Inc.),
 the Gaussian 92(TM) system (copyright 1992, Gaussian, Inc.),
 the Gaussian 90(TM) system (copyright 1990, Gaussian, Inc.),
 the Gaussian 88(TM) system (copyright 1988, Gaussian, Inc.),
 the Gaussian 86(TM) system (copyright 1986, Carnegie Mellon
 University), and the Gaussian 82(TM) system (copyright 1983,
 Carnegie Mellon University). Gaussian is a federally registered
 trademark of Gaussian, Inc.
  
 This software contains proprietary and confidential information,
 including trade secrets, belonging to Gaussian, Inc.
  
 This software is provided under written license and may be
 used, copied, transmitted, or stored only in accord with that
 written license.
  
 The following legend is applicable only to US Government
 contracts under FAR:
  
                    RESTRICTED RIGHTS LEGEND
  
 Use, reproduction and disclosure by the US Government is
 subject to restrictions as set forth in subparagraphs (a)
 and (c) of the Commercial Computer Software - Restricted
 Rights clause in FAR 52.227-19.
  
 Gaussian, Inc.
 340 Quinnipiac St., Bldg. 40, Wallingford CT 06492
  
  
 ---------------------------------------------------------------
 Warning -- This program may not be used in any manner that
 competes with the business of Gaussian, Inc. or will provide
 assistance to any competitor of Gaussian, Inc.  The licensee
 of this program is prohibited from giving any competitor of
 Gaussian, Inc. access to this program.  By using this program,
 the user acknowledges that Gaussian, Inc. is engaged in the
 business of creating and licensing software in the field of
 computational chemistry and represents and warrants to the
 licensee that it is not a competitor of Gaussian, Inc. and that
 it will not use this program in any manner prohibited above.
 ---------------------------------------------------------------
  

 Cite this work as:
 Gaussian 16, Revision C.01,
 M. J. Frisch, G. W. Trucks, H. B. Schlegel, G. E. Scuseria, 
 M. A. Robb, J. R. Cheeseman, G. Scalmani, V. Barone, 
 G. A. Petersson, H. Nakatsuji, X. Li, M. Caricato, A. V. Marenich, 
 J. Bloino, B. G. Janesko, R. Gomperts, B. Mennucci, H. P. Hratchian, 
 J. V. Ortiz, A. F. Izmaylov, J. L. Sonnenberg, D. Williams-Young, 
 F. Ding, F. Lipparini, F. Egidi, J. Goings, B. Peng, A. Petrone, 
 T. Henderson, D. Ranasinghe, V. G. Zakrzewski, J. Gao, N. Rega, 
 G. Zheng, W. Liang, M. Hada, M. Ehara, K. Toyota, R. Fukuda, 
 J. Hasegawa, M. Ishida, T. Nakajima, Y. Honda, O. Kitao, H. Nakai, 
 T. Vreven, K. Throssell, J. A. Montgomery, Jr., J. E. Peralta, 
 F. Ogliaro, M. J. Bearpark, J. J. Heyd, E. N. Brothers, K. N. Kudin, 
 V. N. Staroverov, T. A. Keith, R. Kobayashi, J. Normand, 
 K. Raghavachari, A. P. Rendell, J. C. Burant, S. S. Iyengar, 
 J. Tomasi, M. Cossi, J. M. Millam, M. Klene, C. Adamo, R. Cammi, 
 J. W. Ochterski, R. L. Martin, K. Morokuma, O. Farkas, 
 J. B. Foresman, and D. J. Fox, Gaussian, Inc., Wallingford CT, 2019.
 
 ******************************************
 Gaussian 16:  ES64L-G16RevC.01  3-Jul-2019
                 8-Apr-2025 
 ******************************************
 %nprocs=16
 Will use up to   16 processors via shared memory.
 %mem=30GB
 %chk=ANI1ccx_1844_conf42_mol1.chk
 ----------------------------------------------------------------------
 #t hf aug-cc-pvdz iop(5/13=1,5/36=2,99/5=2) pseudo=read geom=check gue
 ss=(read,tcheck) scf=(maxcycle=1)
 ----------------------------------------------------------------------
 -----
 title
 -----
 Structure from the checkpoint file:  "ANI1ccx_1844_conf42_mol1.chk"
 Charge =  0 Multiplicity = 1
 Z-Matrix found in chk file.
 H,0,2.35013,0.506327,-0.535236
 H,0,-2.28499,-1.68985,-1.31608
 H,0,-2.4852,-0.415729,-0.435662
 H,0,2.73685,-1.67441,-1.16403
 H,0,1.63712,-1.47558,-0.0402251
 H,0,-0.0081798,-1.92949,1.5765
 H,0,2.81504,1.81881,0.173918
 H,0,-0.809817,-1.52035,0.317747
 H,0,-0.0857821,0.468018,1.0782
 H,0,0.654057,1.59337,0.289488
 H,0,-1.49689,1.40971,-0.0360874
 H,0,-3.03456,1.77543,0.0734299
 O,0,2.57282,-1.25054,-0.283537
 O,0,-0.109497,1.42927,0.914133
 O,0,-2.35043,-1.40607,-0.393885
 O,0,0.0633748,-1.39201,0.76782
 O,0,2.2179,1.49524,-0.544177
 O,0,-2.39264,1.26583,-0.458101
 Recover connectivity data from disk.
                    Distance matrix (angstroms):
                    1          2          3          4          5
     1  H    0.000000
     2  H    5.188184   0.000000
     3  H    4.923466   1.561603   0.000000
     4  H    2.302292   5.024165   5.420757   0.000000
     5  H    2.163648   4.129971   4.274714   1.584890   0.000000
     6  H    3.994278   3.688944   3.532124   3.887256   2.350924
     7  H    1.562579   6.367189   5.784228   3.741498   3.505190
     8  H    3.849710   2.207772   2.143530   3.846849   2.473388
     9  H    2.922039   3.901985   2.971530   4.193429   2.827868
    10  H    2.176809   4.689923   3.797006   4.138735   3.239379
    11  H    3.983066   3.444816   2.113917   5.358041   4.259922
    12  H    5.565607   3.807986   2.315631   6.836803   5.692678
    13  O    1.788722   4.985725   5.128705   0.990878   0.992662
    14  O    3.000377   4.408575   3.296958   4.696092   3.521310
    15  O    5.076663   0.967087   1.000342   5.152237   4.003806
    16  O    3.245133   3.153754   2.982738   3.310478   1.771043
    17  O    0.997754   5.569259   5.077670   3.271117   3.068720
    18  O    4.803817   3.079572   1.684254   5.954411   4.891719
                    6          7          8          9         10
     6  H    0.000000
     7  H    4.897710   0.000000
     8  H    1.547410   4.930544   0.000000
     9  H    2.449973   3.325227   2.248582   0.000000
    10  H    3.808609   2.175782   3.440782   1.560720   0.000000
    11  H    3.995867   4.336382   3.030267   2.029691   2.183187
    12  H    5.014442   5.850624   3.983885   3.378488   3.699422
    13  O    3.253040   3.112691   3.446240   3.446148   3.478194
    14  O    3.424947   3.041805   3.089722   0.975441   1.000062
    15  O    3.105241   6.115908   1.700873   3.287533   4.300068
    16  O    0.973637   4.270099   0.990707   1.891636   3.080617
    17  O    4.602334   0.988400   4.359331   2.999040   1.774889
    18  O    4.476083   5.274956   3.296979   2.884149   3.154130
                   11         12         13         14         15
    11  H    0.000000
    12  H    1.584353   0.000000
    13  O    4.868337   6.381742   0.000000
    14  O    1.681714   3.063103   3.976257   0.000000
    15  O    2.963978   3.287607   4.926942   3.843416   0.000000
    16  O    3.306105   4.484646   2.724460   2.830356   2.678845
    17  O    3.750351   5.296063   2.780865   2.747325   5.413855
    18  O    1.000582   0.976872   5.569415   2.668798   2.673005
                   16         17         18
    16  O    0.000000
    17  O    3.833996   0.000000
    18  O    3.820864   4.617046   0.000000
 Framework group  C1[X(H12O6)]
 Deg. of freedom    48
                         Standard orientation:                         
 ---------------------------------------------------------------------
 Center     Atomic      Atomic             Coordinates (Angstroms)
 Number     Number       Type             X           Y           Z
 ---------------------------------------------------------------------
      1          1           0        2.350130    0.506325   -0.535236
      2          1           0       -2.284991   -1.689848   -1.316080
      3          1           0       -2.485200   -0.415727   -0.435662
      4          1           0        2.736849   -1.674413   -1.164030
      5          1           0        1.637119   -1.475582   -0.040225
      6          1           0       -0.008181   -1.929490    1.576500
      7          1           0        2.815042    1.818807    0.173918
      8          1           0       -0.809818   -1.520350    0.317747
      9          1           0       -0.085782    0.468018    1.078200
     10          1           0        0.654058    1.593369    0.289488
     11          1           0       -1.496889    1.409711   -0.036087
     12          1           0       -3.034559    1.775432    0.073430
     13          8           0        2.572819   -1.250542   -0.283537
     14          8           0       -0.109496    1.429270    0.914133
     15          8           0       -2.350431   -1.406068   -0.393885
     16          8           0        0.063374   -1.392010    0.767820
     17          8           0        2.217901    1.495238   -0.544177
     18          8           0       -2.392639    1.265832   -0.458101
 ---------------------------------------------------------------------
 Rotational constants (GHZ):           2.0253188           1.1112053           0.8150194
 ======================================================================================================
                                       Pseudopotential Parameters
 ======================================================================================================
  Center     Atomic      Valence      Angular      Power
  Number     Number     Electrons     Momentum     of R      Exponent        Coefficient   SO-Coeffient
 ======================================================================================================
    1          1            1
                                      F and up 
                                                     0        0.0000010       -0.00007675    0.00000000
                                                     2        0.1200000        0.05352699    0.00000000
                                                     2        0.1400000       -0.25123645    0.00000000
                                                     2        0.1600000        0.32188106    0.00000000
                                                     2        0.2200000       -0.25206857    0.00000000
                                                     2        0.3000000        0.19290477    0.00000000
                                                     2        0.5000000       -0.10129770    0.00000000
                                                     2        0.9000000        0.00314995    0.00000000
                                                     2        1.5000000        0.18401192    0.00000000
                                      S - F
                                                     0        0.0000010        0.08065976    0.00000000
                                                     2        0.1200000       -0.09231673    0.00000000
                                                     2        0.1600000       -0.03278082    0.00000000
                                                     2        0.2800000        0.38423402    0.00000000
                                                     2        0.6000000       -1.09357590    0.00000000
                                                     2        1.1000000        1.53099489    0.00000000
                                                     2        3.0000000       -2.63300202    0.00000000
                                      P - F
                                                     0        0.0000010       -0.11638665    0.00000000
                                                     2        0.1200000        0.35468655    0.00000000
                                                     2        0.1600000       -0.59160923    0.00000000
                                                     2        0.3000000        0.49390547    0.00000000
                                                     2        0.6000000       -0.37949835    0.00000000
                                                     2        1.6000000        0.89304688    0.00000000
                                      D - F
                                                     0        0.0000010        0.05443663    0.00000000
                                                     2        0.1200000       -0.29679479    0.00000000
                                                     2        0.1400000        0.36849872    0.00000000
                                                     2        0.2400000        0.02793449    0.00000000
                                                     2        0.4000000       -0.46312857    0.00000000
                                                     2        0.7000000        0.97587598    0.00000000
                                                     2        1.5000000       -2.43431102    0.00000000
    2          1            1
                                      F and up 
                                                     0        0.0000010       -0.00007675    0.00000000
                                                     2        0.1200000        0.05352699    0.00000000
                                                     2        0.1400000       -0.25123645    0.00000000
                                                     2        0.1600000        0.32188106    0.00000000
                                                     2        0.2200000       -0.25206857    0.00000000
                                                     2        0.3000000        0.19290477    0.00000000
                                                     2        0.5000000       -0.10129770    0.00000000
                                                     2        0.9000000        0.00314995    0.00000000
                                                     2        1.5000000        0.18401192    0.00000000
                                      S - F
                                                     0        0.0000010        0.08065976    0.00000000
                                                     2        0.1200000       -0.09231673    0.00000000
                                                     2        0.1600000       -0.03278082    0.00000000
                                                     2        0.2800000        0.38423402    0.00000000
                                                     2        0.6000000       -1.09357590    0.00000000
                                                     2        1.1000000        1.53099489    0.00000000
                                                     2        3.0000000       -2.63300202    0.00000000
                                      P - F
                                                     0        0.0000010       -0.11638665    0.00000000
                                                     2        0.1200000        0.35468655    0.00000000
                                                     2        0.1600000       -0.59160923    0.00000000
                                                     2        0.3000000        0.49390547    0.00000000
                                                     2        0.6000000       -0.37949835    0.00000000
                                                     2        1.6000000        0.89304688    0.00000000
                                      D - F
                                                     0        0.0000010        0.05443663    0.00000000
                                                     2        0.1200000       -0.29679479    0.00000000
                                                     2        0.1400000        0.36849872    0.00000000
                                                     2        0.2400000        0.02793449    0.00000000
                                                     2        0.4000000       -0.46312857    0.00000000
                                                     2        0.7000000        0.97587598    0.00000000
                                                     2        1.5000000       -2.43431102    0.00000000
    3          1            1
                                      F and up 
                                                     0        0.0000010       -0.00007675    0.00000000
                                                     2        0.1200000        0.05352699    0.00000000
                                                     2        0.1400000       -0.25123645    0.00000000
                                                     2        0.1600000        0.32188106    0.00000000
                                                     2        0.2200000       -0.25206857    0.00000000
                                                     2        0.3000000        0.19290477    0.00000000
                                                     2        0.5000000       -0.10129770    0.00000000
                                                     2        0.9000000        0.00314995    0.00000000
                                                     2        1.5000000        0.18401192    0.00000000
                                      S - F
                                                     0        0.0000010        0.08065976    0.00000000
                                                     2        0.1200000       -0.09231673    0.00000000
                                                     2        0.1600000       -0.03278082    0.00000000
                                                     2        0.2800000        0.38423402    0.00000000
                                                     2        0.6000000       -1.09357590    0.00000000
                                                     2        1.1000000        1.53099489    0.00000000
                                                     2        3.0000000       -2.63300202    0.00000000
                                      P - F
                                                     0        0.0000010       -0.11638665    0.00000000
                                                     2        0.1200000        0.35468655    0.00000000
                                                     2        0.1600000       -0.59160923    0.00000000
                                                     2        0.3000000        0.49390547    0.00000000
                                                     2        0.6000000       -0.37949835    0.00000000
                                                     2        1.6000000        0.89304688    0.00000000
                                      D - F
                                                     0        0.0000010        0.05443663    0.00000000
                                                     2        0.1200000       -0.29679479    0.00000000
                                                     2        0.1400000        0.36849872    0.00000000
                                                     2        0.2400000        0.02793449    0.00000000
                                                     2        0.4000000       -0.46312857    0.00000000
                                                     2        0.7000000        0.97587598    0.00000000
                                                     2        1.5000000       -2.43431102    0.00000000
    4          1            1
                                      F and up 
                                                     0        0.0000010       -0.00007675    0.00000000
                                                     2        0.1200000        0.05352699    0.00000000
                                                     2        0.1400000       -0.25123645    0.00000000
                                                     2        0.1600000        0.32188106    0.00000000
                                                     2        0.2200000       -0.25206857    0.00000000
                                                     2        0.3000000        0.19290477    0.00000000
                                                     2        0.5000000       -0.10129770    0.00000000
                                                     2        0.9000000        0.00314995    0.00000000
                                                     2        1.5000000        0.18401192    0.00000000
                                      S - F
                                                     0        0.0000010        0.08065976    0.00000000
                                                     2        0.1200000       -0.09231673    0.00000000
                                                     2        0.1600000       -0.03278082    0.00000000
                                                     2        0.2800000        0.38423402    0.00000000
                                                     2        0.6000000       -1.09357590    0.00000000
                                                     2        1.1000000        1.53099489    0.00000000
                                                     2        3.0000000       -2.63300202    0.00000000
                                      P - F
                                                     0        0.0000010       -0.11638665    0.00000000
                                                     2        0.1200000        0.35468655    0.00000000
                                                     2        0.1600000       -0.59160923    0.00000000
                                                     2        0.3000000        0.49390547    0.00000000
                                                     2        0.6000000       -0.37949835    0.00000000
                                                     2        1.6000000        0.89304688    0.00000000
                                      D - F
                                                     0        0.0000010        0.05443663    0.00000000
                                                     2        0.1200000       -0.29679479    0.00000000
                                                     2        0.1400000        0.36849872    0.00000000
                                                     2        0.2400000        0.02793449    0.00000000
                                                     2        0.4000000       -0.46312857    0.00000000
                                                     2        0.7000000        0.97587598    0.00000000
                                                     2        1.5000000       -2.43431102    0.00000000
    5          1            1
                                      F and up 
                                                     0        0.0000010       -0.00007675    0.00000000
                                                     2        0.1200000        0.05352699    0.00000000
                                                     2        0.1400000       -0.25123645    0.00000000
                                                     2        0.1600000        0.32188106    0.00000000
                                                     2        0.2200000       -0.25206857    0.00000000
                                                     2        0.3000000        0.19290477    0.00000000
                                                     2        0.5000000       -0.10129770    0.00000000
                                                     2        0.9000000        0.00314995    0.00000000
                                                     2        1.5000000        0.18401192    0.00000000
                                      S - F
                                                     0        0.0000010        0.08065976    0.00000000
                                                     2        0.1200000       -0.09231673    0.00000000
                                                     2        0.1600000       -0.03278082    0.00000000
                                                     2        0.2800000        0.38423402    0.00000000
                                                     2        0.6000000       -1.09357590    0.00000000
                                                     2        1.1000000        1.53099489    0.00000000
                                                     2        3.0000000       -2.63300202    0.00000000
                                      P - F
                                                     0        0.0000010       -0.11638665    0.00000000
                                                     2        0.1200000        0.35468655    0.00000000
                                                     2        0.1600000       -0.59160923    0.00000000
                                                     2        0.3000000        0.49390547    0.00000000
                                                     2        0.6000000       -0.37949835    0.00000000
                                                     2        1.6000000        0.89304688    0.00000000
                                      D - F
                                                     0        0.0000010        0.05443663    0.00000000
                                                     2        0.1200000       -0.29679479    0.00000000
                                                     2        0.1400000        0.36849872    0.00000000
                                                     2        0.2400000        0.02793449    0.00000000
                                                     2        0.4000000       -0.46312857    0.00000000
                                                     2        0.7000000        0.97587598    0.00000000
                                                     2        1.5000000       -2.43431102    0.00000000
    6          1            1
                                      F and up 
                                                     0        0.0000010       -0.00007675    0.00000000
                                                     2        0.1200000        0.05352699    0.00000000
                                                     2        0.1400000       -0.25123645    0.00000000
                                                     2        0.1600000        0.32188106    0.00000000
                                                     2        0.2200000       -0.25206857    0.00000000
                                                     2        0.3000000        0.19290477    0.00000000
                                                     2        0.5000000       -0.10129770    0.00000000
                                                     2        0.9000000        0.00314995    0.00000000
                                                     2        1.5000000        0.18401192    0.00000000
                                      S - F
                                                     0        0.0000010        0.08065976    0.00000000
                                                     2        0.1200000       -0.09231673    0.00000000
                                                     2        0.1600000       -0.03278082    0.00000000
                                                     2        0.2800000        0.38423402    0.00000000
                                                     2        0.6000000       -1.09357590    0.00000000
                                                     2        1.1000000        1.53099489    0.00000000
                                                     2        3.0000000       -2.63300202    0.00000000
                                      P - F
                                                     0        0.0000010       -0.11638665    0.00000000
                                                     2        0.1200000        0.35468655    0.00000000
                                                     2        0.1600000       -0.59160923    0.00000000
                                                     2        0.3000000        0.49390547    0.00000000
                                                     2        0.6000000       -0.37949835    0.00000000
                                                     2        1.6000000        0.89304688    0.00000000
                                      D - F
                                                     0        0.0000010        0.05443663    0.00000000
                                                     2        0.1200000       -0.29679479    0.00000000
                                                     2        0.1400000        0.36849872    0.00000000
                                                     2        0.2400000        0.02793449    0.00000000
                                                     2        0.4000000       -0.46312857    0.00000000
                                                     2        0.7000000        0.97587598    0.00000000
                                                     2        1.5000000       -2.43431102    0.00000000
    7          1            1
                                      F and up 
                                                     0        0.0000010       -0.00007675    0.00000000
                                                     2        0.1200000        0.05352699    0.00000000
                                                     2        0.1400000       -0.25123645    0.00000000
                                                     2        0.1600000        0.32188106    0.00000000
                                                     2        0.2200000       -0.25206857    0.00000000
                                                     2        0.3000000        0.19290477    0.00000000
                                                     2        0.5000000       -0.10129770    0.00000000
                                                     2        0.9000000        0.00314995    0.00000000
                                                     2        1.5000000        0.18401192    0.00000000
                                      S - F
                                                     0        0.0000010        0.08065976    0.00000000
                                                     2        0.1200000       -0.09231673    0.00000000
                                                     2        0.1600000       -0.03278082    0.00000000
                                                     2        0.2800000        0.38423402    0.00000000
                                                     2        0.6000000       -1.09357590    0.00000000
                                                     2        1.1000000        1.53099489    0.00000000
                                                     2        3.0000000       -2.63300202    0.00000000
                                      P - F
                                                     0        0.0000010       -0.11638665    0.00000000
                                                     2        0.1200000        0.35468655    0.00000000
                                                     2        0.1600000       -0.59160923    0.00000000
                                                     2        0.3000000        0.49390547    0.00000000
                                                     2        0.6000000       -0.37949835    0.00000000
                                                     2        1.6000000        0.89304688    0.00000000
                                      D - F
                                                     0        0.0000010        0.05443663    0.00000000
                                                     2        0.1200000       -0.29679479    0.00000000
                                                     2        0.1400000        0.36849872    0.00000000
                                                     2        0.2400000        0.02793449    0.00000000
                                                     2        0.4000000       -0.46312857    0.00000000
                                                     2        0.7000000        0.97587598    0.00000000
                                                     2        1.5000000       -2.43431102    0.00000000
    8          1            1
                                      F and up 
                                                     0        0.0000010       -0.00007675    0.00000000
                                                     2        0.1200000        0.05352699    0.00000000
                                                     2        0.1400000       -0.25123645    0.00000000
                                                     2        0.1600000        0.32188106    0.00000000
                                                     2        0.2200000       -0.25206857    0.00000000
                                                     2        0.3000000        0.19290477    0.00000000
                                                     2        0.5000000       -0.10129770    0.00000000
                                                     2        0.9000000        0.00314995    0.00000000
                                                     2        1.5000000        0.18401192    0.00000000
                                      S - F
                                                     0        0.0000010        0.08065976    0.00000000
                                                     2        0.1200000       -0.09231673    0.00000000
                                                     2        0.1600000       -0.03278082    0.00000000
                                                     2        0.2800000        0.38423402    0.00000000
                                                     2        0.6000000       -1.09357590    0.00000000
                                                     2        1.1000000        1.53099489    0.00000000
                                                     2        3.0000000       -2.63300202    0.00000000
                                      P - F
                                                     0        0.0000010       -0.11638665    0.00000000
                                                     2        0.1200000        0.35468655    0.00000000
                                                     2        0.1600000       -0.59160923    0.00000000
                                                     2        0.3000000        0.49390547    0.00000000
                                                     2        0.6000000       -0.37949835    0.00000000
                                                     2        1.6000000        0.89304688    0.00000000
                                      D - F
                                                     0        0.0000010        0.05443663    0.00000000
                                                     2        0.1200000       -0.29679479    0.00000000
                                                     2        0.1400000        0.36849872    0.00000000
                                                     2        0.2400000        0.02793449    0.00000000
                                                     2        0.4000000       -0.46312857    0.00000000
                                                     2        0.7000000        0.97587598    0.00000000
                                                     2        1.5000000       -2.43431102    0.00000000
    9          1            1
                                      F and up 
                                                     0        0.0000010       -0.00007675    0.00000000
                                                     2        0.1200000        0.05352699    0.00000000
                                                     2        0.1400000       -0.25123645    0.00000000
                                                     2        0.1600000        0.32188106    0.00000000
                                                     2        0.2200000       -0.25206857    0.00000000
                                                     2        0.3000000        0.19290477    0.00000000
                                                     2        0.5000000       -0.10129770    0.00000000
                                                     2        0.9000000        0.00314995    0.00000000
                                                     2        1.5000000        0.18401192    0.00000000
                                      S - F
                                                     0        0.0000010        0.08065976    0.00000000
                                                     2        0.1200000       -0.09231673    0.00000000
                                                     2        0.1600000       -0.03278082    0.00000000
                                                     2        0.2800000        0.38423402    0.00000000
                                                     2        0.6000000       -1.09357590    0.00000000
                                                     2        1.1000000        1.53099489    0.00000000
                                                     2        3.0000000       -2.63300202    0.00000000
                                      P - F
                                                     0        0.0000010       -0.11638665    0.00000000
                                                     2        0.1200000        0.35468655    0.00000000
                                                     2        0.1600000       -0.59160923    0.00000000
                                                     2        0.3000000        0.49390547    0.00000000
                                                     2        0.6000000       -0.37949835    0.00000000
                                                     2        1.6000000        0.89304688    0.00000000
                                      D - F
                                                     0        0.0000010        0.05443663    0.00000000
                                                     2        0.1200000       -0.29679479    0.00000000
                                                     2        0.1400000        0.36849872    0.00000000
                                                     2        0.2400000        0.02793449    0.00000000
                                                     2        0.4000000       -0.46312857    0.00000000
                                                     2        0.7000000        0.97587598    0.00000000
                                                     2        1.5000000       -2.43431102    0.00000000
   10          1            1
                                      F and up 
                                                     0        0.0000010       -0.00007675    0.00000000
                                                     2        0.1200000        0.05352699    0.00000000
                                                     2        0.1400000       -0.25123645    0.00000000
                                                     2        0.1600000        0.32188106    0.00000000
                                                     2        0.2200000       -0.25206857    0.00000000
                                                     2        0.3000000        0.19290477    0.00000000
                                                     2        0.5000000       -0.10129770    0.00000000
                                                     2        0.9000000        0.00314995    0.00000000
                                                     2        1.5000000        0.18401192    0.00000000
                                      S - F
                                                     0        0.0000010        0.08065976    0.00000000
                                                     2        0.1200000       -0.09231673    0.00000000
                                                     2        0.1600000       -0.03278082    0.00000000
                                                     2        0.2800000        0.38423402    0.00000000
                                                     2        0.6000000       -1.09357590    0.00000000
                                                     2        1.1000000        1.53099489    0.00000000
                                                     2        3.0000000       -2.63300202    0.00000000
                                      P - F
                                                     0        0.0000010       -0.11638665    0.00000000
                                                     2        0.1200000        0.35468655    0.00000000
                                                     2        0.1600000       -0.59160923    0.00000000
                                                     2        0.3000000        0.49390547    0.00000000
                                                     2        0.6000000       -0.37949835    0.00000000
                                                     2        1.6000000        0.89304688    0.00000000
                                      D - F
                                                     0        0.0000010        0.05443663    0.00000000
                                                     2        0.1200000       -0.29679479    0.00000000
                                                     2        0.1400000        0.36849872    0.00000000
                                                     2        0.2400000        0.02793449    0.00000000
                                                     2        0.4000000       -0.46312857    0.00000000
                                                     2        0.7000000        0.97587598    0.00000000
                                                     2        1.5000000       -2.43431102    0.00000000
   11          1            1
                                      F and up 
                                                     0        0.0000010       -0.00007675    0.00000000
                                                     2        0.1200000        0.05352699    0.00000000
                                                     2        0.1400000       -0.25123645    0.00000000
                                                     2        0.1600000        0.32188106    0.00000000
                                                     2        0.2200000       -0.25206857    0.00000000
                                                     2        0.3000000        0.19290477    0.00000000
                                                     2        0.5000000       -0.10129770    0.00000000
                                                     2        0.9000000        0.00314995    0.00000000
                                                     2        1.5000000        0.18401192    0.00000000
                                      S - F
                                                     0        0.0000010        0.08065976    0.00000000
                                                     2        0.1200000       -0.09231673    0.00000000
                                                     2        0.1600000       -0.03278082    0.00000000
                                                     2        0.2800000        0.38423402    0.00000000
                                                     2        0.6000000       -1.09357590    0.00000000
                                                     2        1.1000000        1.53099489    0.00000000
                                                     2        3.0000000       -2.63300202    0.00000000
                                      P - F
                                                     0        0.0000010       -0.11638665    0.00000000
                                                     2        0.1200000        0.35468655    0.00000000
                                                     2        0.1600000       -0.59160923    0.00000000
                                                     2        0.3000000        0.49390547    0.00000000
                                                     2        0.6000000       -0.37949835    0.00000000
                                                     2        1.6000000        0.89304688    0.00000000
                                      D - F
                                                     0        0.0000010        0.05443663    0.00000000
                                                     2        0.1200000       -0.29679479    0.00000000
                                                     2        0.1400000        0.36849872    0.00000000
                                                     2        0.2400000        0.02793449    0.00000000
                                                     2        0.4000000       -0.46312857    0.00000000
                                                     2        0.7000000        0.97587598    0.00000000
                                                     2        1.5000000       -2.43431102    0.00000000
   12          1            1
                                      F and up 
                                                     0        0.0000010       -0.00007675    0.00000000
                                                     2        0.1200000        0.05352699    0.00000000
                                                     2        0.1400000       -0.25123645    0.00000000
                                                     2        0.1600000        0.32188106    0.00000000
                                                     2        0.2200000       -0.25206857    0.00000000
                                                     2        0.3000000        0.19290477    0.00000000
                                                     2        0.5000000       -0.10129770    0.00000000
                                                     2        0.9000000        0.00314995    0.00000000
                                                     2        1.5000000        0.18401192    0.00000000
                                      S - F
                                                     0        0.0000010        0.08065976    0.00000000
                                                     2        0.1200000       -0.09231673    0.00000000
                                                     2        0.1600000       -0.03278082    0.00000000
                                                     2        0.2800000        0.38423402    0.00000000
                                                     2        0.6000000       -1.09357590    0.00000000
                                                     2        1.1000000        1.53099489    0.00000000
                                                     2        3.0000000       -2.63300202    0.00000000
                                      P - F
                                                     0        0.0000010       -0.11638665    0.00000000
                                                     2        0.1200000        0.35468655    0.00000000
                                                     2        0.1600000       -0.59160923    0.00000000
                                                     2        0.3000000        0.49390547    0.00000000
                                                     2        0.6000000       -0.37949835    0.00000000
                                                     2        1.6000000        0.89304688    0.00000000
                                      D - F
                                                     0        0.0000010        0.05443663    0.00000000
                                                     2        0.1200000       -0.29679479    0.00000000
                                                     2        0.1400000        0.36849872    0.00000000
                                                     2        0.2400000        0.02793449    0.00000000
                                                     2        0.4000000       -0.46312857    0.00000000
                                                     2        0.7000000        0.97587598    0.00000000
                                                     2        1.5000000       -2.43431102    0.00000000
   13          8            8
                                      G and up 
                                                     0        0.0000010        0.00049668    0.00000000
                                                     2        0.1200000       -0.01803391    0.00000000
                                                     2        0.1400000        0.04014195    0.00000000
                                                     2        0.2000000       -0.02692147    0.00000000
                                                     2        0.2800000       -0.04241843    0.00000000
                                                     2        0.4000000        0.15412145    0.00000000
                                                     2        0.7000000       -0.40587006    0.00000000
                                                     2        1.1000000        1.75666647    0.00000000
                                      S - G
                                                     0        0.0000010       -0.01088195    0.00000000
                                                     2        0.1200000        0.09867335    0.00000000
                                                     2        0.2400000       -0.08484177    0.00000000
                                                     2        0.6000000       -1.39011554    0.00000000
                                                     2        2.5000000        1.36225910    0.00000000
                                      P - G
                                                     0        0.0000010        0.05874028    0.00000000
                                                     2        0.1200000       -0.11700340    0.00000000
                                                     2        0.1600000        0.08847775    0.00000000
                                                     2        0.3000000        0.04709907    0.00000000
                                                     2        1.2000000       -1.80388338    0.00000000
                                      D - G
                                                     0        0.0000010       -0.00541262    0.00000000
                                                     2        0.1200000       -0.26547906    0.00000000
                                                     2        0.1600000        1.04289661    0.00000000
                                                     2        0.2400000       -1.92800913    0.00000000
                                                     2        0.4000000        2.26691633    0.00000000
                                                     2        0.7000000       -1.97391482    0.00000000
                                      F - G
                                                     0        0.0000010       -0.02604870    0.00000000
                                                     2        0.1200000        0.37362552    0.00000000
                                                     2        0.1600000       -1.43526367    0.00000000
                                                     2        0.2200000        1.76778079    0.00000000
                                                     2        0.5000000       -1.90846303    0.00000000
   14          8            8
                                      G and up 
                                                     0        0.0000010        0.00049668    0.00000000
                                                     2        0.1200000       -0.01803391    0.00000000
                                                     2        0.1400000        0.04014195    0.00000000
                                                     2        0.2000000       -0.02692147    0.00000000
                                                     2        0.2800000       -0.04241843    0.00000000
                                                     2        0.4000000        0.15412145    0.00000000
                                                     2        0.7000000       -0.40587006    0.00000000
                                                     2        1.1000000        1.75666647    0.00000000
                                      S - G
                                                     0        0.0000010       -0.01088195    0.00000000
                                                     2        0.1200000        0.09867335    0.00000000
                                                     2        0.2400000       -0.08484177    0.00000000
                                                     2        0.6000000       -1.39011554    0.00000000
                                                     2        2.5000000        1.36225910    0.00000000
                                      P - G
                                                     0        0.0000010        0.05874028    0.00000000
                                                     2        0.1200000       -0.11700340    0.00000000
                                                     2        0.1600000        0.08847775    0.00000000
                                                     2        0.3000000        0.04709907    0.00000000
                                                     2        1.2000000       -1.80388338    0.00000000
                                      D - G
                                                     0        0.0000010       -0.00541262    0.00000000
                                                     2        0.1200000       -0.26547906    0.00000000
                                                     2        0.1600000        1.04289661    0.00000000
                                                     2        0.2400000       -1.92800913    0.00000000
                                                     2        0.4000000        2.26691633    0.00000000
                                                     2        0.7000000       -1.97391482    0.00000000
                                      F - G
                                                     0        0.0000010       -0.02604870    0.00000000
                                                     2        0.1200000        0.37362552    0.00000000
                                                     2        0.1600000       -1.43526367    0.00000000
                                                     2        0.2200000        1.76778079    0.00000000
                                                     2        0.5000000       -1.90846303    0.00000000
   15          8            8
                                      G and up 
                                                     0        0.0000010        0.00049668    0.00000000
                                                     2        0.1200000       -0.01803391    0.00000000
                                                     2        0.1400000        0.04014195    0.00000000
                                                     2        0.2000000       -0.02692147    0.00000000
                                                     2        0.2800000       -0.04241843    0.00000000
                                                     2        0.4000000        0.15412145    0.00000000
                                                     2        0.7000000       -0.40587006    0.00000000
                                                     2        1.1000000        1.75666647    0.00000000
                                      S - G
                                                     0        0.0000010       -0.01088195    0.00000000
                                                     2        0.1200000        0.09867335    0.00000000
                                                     2        0.2400000       -0.08484177    0.00000000
                                                     2        0.6000000       -1.39011554    0.00000000
                                                     2        2.5000000        1.36225910    0.00000000
                                      P - G
                                                     0        0.0000010        0.05874028    0.00000000
                                                     2        0.1200000       -0.11700340    0.00000000
                                                     2        0.1600000        0.08847775    0.00000000
                                                     2        0.3000000        0.04709907    0.00000000
                                                     2        1.2000000       -1.80388338    0.00000000
                                      D - G
                                                     0        0.0000010       -0.00541262    0.00000000
                                                     2        0.1200000       -0.26547906    0.00000000
                                                     2        0.1600000        1.04289661    0.00000000
                                                     2        0.2400000       -1.92800913    0.00000000
                                                     2        0.4000000        2.26691633    0.00000000
                                                     2        0.7000000       -1.97391482    0.00000000
                                      F - G
                                                     0        0.0000010       -0.02604870    0.00000000
                                                     2        0.1200000        0.37362552    0.00000000
                                                     2        0.1600000       -1.43526367    0.00000000
                                                     2        0.2200000        1.76778079    0.00000000
                                                     2        0.5000000       -1.90846303    0.00000000
   16          8            8
                                      G and up 
                                                     0        0.0000010        0.00049668    0.00000000
                                                     2        0.1200000       -0.01803391    0.00000000
                                                     2        0.1400000        0.04014195    0.00000000
                                                     2        0.2000000       -0.02692147    0.00000000
                                                     2        0.2800000       -0.04241843    0.00000000
                                                     2        0.4000000        0.15412145    0.00000000
                                                     2        0.7000000       -0.40587006    0.00000000
                                                     2        1.1000000        1.75666647    0.00000000
                                      S - G
                                                     0        0.0000010       -0.01088195    0.00000000
                                                     2        0.1200000        0.09867335    0.00000000
                                                     2        0.2400000       -0.08484177    0.00000000
                                                     2        0.6000000       -1.39011554    0.00000000
                                                     2        2.5000000        1.36225910    0.00000000
                                      P - G
                                                     0        0.0000010        0.05874028    0.00000000
                                                     2        0.1200000       -0.11700340    0.00000000
                                                     2        0.1600000        0.08847775    0.00000000
                                                     2        0.3000000        0.04709907    0.00000000
                                                     2        1.2000000       -1.80388338    0.00000000
                                      D - G
                                                     0        0.0000010       -0.00541262    0.00000000
                                                     2        0.1200000       -0.26547906    0.00000000
                                                     2        0.1600000        1.04289661    0.00000000
                                                     2        0.2400000       -1.92800913    0.00000000
                                                     2        0.4000000        2.26691633    0.00000000
                                                     2        0.7000000       -1.97391482    0.00000000
                                      F - G
                                                     0        0.0000010       -0.02604870    0.00000000
                                                     2        0.1200000        0.37362552    0.00000000
                                                     2        0.1600000       -1.43526367    0.00000000
                                                     2        0.2200000        1.76778079    0.00000000
                                                     2        0.5000000       -1.90846303    0.00000000
   17          8            8
                                      G and up 
                                                     0        0.0000010        0.00049668    0.00000000
                                                     2        0.1200000       -0.01803391    0.00000000
                                                     2        0.1400000        0.04014195    0.00000000
                                                     2        0.2000000       -0.02692147    0.00000000
                                                     2        0.2800000       -0.04241843    0.00000000
                                                     2        0.4000000        0.15412145    0.00000000
                                                     2        0.7000000       -0.40587006    0.00000000
                                                     2        1.1000000        1.75666647    0.00000000
                                      S - G
                                                     0        0.0000010       -0.01088195    0.00000000
                                                     2        0.1200000        0.09867335    0.00000000
                                                     2        0.2400000       -0.08484177    0.00000000
                                                     2        0.6000000       -1.39011554    0.00000000
                                                     2        2.5000000        1.36225910    0.00000000
                                      P - G
                                                     0        0.0000010        0.05874028    0.00000000
                                                     2        0.1200000       -0.11700340    0.00000000
                                                     2        0.1600000        0.08847775    0.00000000
                                                     2        0.3000000        0.04709907    0.00000000
                                                     2        1.2000000       -1.80388338    0.00000000
                                      D - G
                                                     0        0.0000010       -0.00541262    0.00000000
                                                     2        0.1200000       -0.26547906    0.00000000
                                                     2        0.1600000        1.04289661    0.00000000
                                                     2        0.2400000       -1.92800913    0.00000000
                                                     2        0.4000000        2.26691633    0.00000000
                                                     2        0.7000000       -1.97391482    0.00000000
                                      F - G
                                                     0        0.0000010       -0.02604870    0.00000000
                                                     2        0.1200000        0.37362552    0.00000000
                                                     2        0.1600000       -1.43526367    0.00000000
                                                     2        0.2200000        1.76778079    0.00000000
                                                     2        0.5000000       -1.90846303    0.00000000
   18          8            8
                                      G and up 
                                                     0        0.0000010        0.00049668    0.00000000
                                                     2        0.1200000       -0.01803391    0.00000000
                                                     2        0.1400000        0.04014195    0.00000000
                                                     2        0.2000000       -0.02692147    0.00000000
                                                     2        0.2800000       -0.04241843    0.00000000
                                                     2        0.4000000        0.15412145    0.00000000
                                                     2        0.7000000       -0.40587006    0.00000000
                                                     2        1.1000000        1.75666647    0.00000000
                                      S - G
                                                     0        0.0000010       -0.01088195    0.00000000
                                                     2        0.1200000        0.09867335    0.00000000
                                                     2        0.2400000       -0.08484177    0.00000000
                                                     2        0.6000000       -1.39011554    0.00000000
                                                     2        2.5000000        1.36225910    0.00000000
                                      P - G
                                                     0        0.0000010        0.05874028    0.00000000
                                                     2        0.1200000       -0.11700340    0.00000000
                                                     2        0.1600000        0.08847775    0.00000000
                                                     2        0.3000000        0.04709907    0.00000000
                                                     2        1.2000000       -1.80388338    0.00000000
                                      D - G
                                                     0        0.0000010       -0.00541262    0.00000000
                                                     2        0.1200000       -0.26547906    0.00000000
                                                     2        0.1600000        1.04289661    0.00000000
                                                     2        0.2400000       -1.92800913    0.00000000
                                                     2        0.4000000        2.26691633    0.00000000
                                                     2        0.7000000       -1.97391482    0.00000000
                                      F - G
                                                     0        0.0000010       -0.02604870    0.00000000
                                                     2        0.1200000        0.37362552    0.00000000
                                                     2        0.1600000       -1.43526367    0.00000000
                                                     2        0.2200000        1.76778079    0.00000000
                                                     2        0.5000000       -1.90846303    0.00000000
 ======================================================================================================
   246 basis functions,   390 primitive gaussians,   258 cartesian basis functions
    30 alpha electrons       30 beta electrons
       nuclear repulsion energy       287.6604281723 Hartrees.
 NAtoms=   18 NActive=   18 NUniq=   18 SFac= 1.00D+00 NAtFMM=   60 NAOKFM=F Big=F
   1 Symmetry operations used in ECPInt.
 ECPInt:  NShTT=    6555 NPrTT=   25059 LenC2=    6494 LenP2D=   18906.
 LDataN:  DoStor=T MaxTD1= 6 Len=  172
 Initial guess from the checkpoint file:  "ANI1ccx_1844_conf42_mol1.chk"
 B after Tr=    -0.000000   -0.000001    0.000000
         Rot=    1.000000   -0.000000   -0.000000    0.000000 Ang=   0.00 deg.
 >>>>>>>>>> Convergence criterion not met.
 SCF Done:  E(RHF) =  -456.751366776     A.U. after    2 cycles
            NFock=  1  Conv=0.57D-02     -V/T= 2.0090

 **********************************************************************

            Population analysis using the SCF Density.

 **********************************************************************

 Orbital symmetries:
       Occupied  (A) (A) (A) (A) (A) (A) (A) (A) (A) (A) (A) (A)
                 (A) (A) (A) (A) (A) (A) (A) (A) (A) (A) (A) (A)
                 (A) (A) (A) (A) (A) (A)
       Virtual   (A) (A) (A) (A) (A) (A) (A) (A) (A) (A) (A) (A)
                 (A) (A) (A) (A) (A) (A) (A) (A) (A) (A) (A) (A)
                 (A) (A) (A) (A) (A) (A) (A) (A) (A) (A) (A) (A)
                 (A) (A) (A) (A) (A) (A) (A) (A) (A) (A) (A) (A)
                 (A) (A) (A) (A) (A) (A) (A) (A) (A) (A) (A) (A)
                 (A) (A) (A) (A) (A) (A) (A) (A) (A) (A) (A) (A)
                 (A) (A) (A) (A) (A) (A) (A) (A) (A) (A) (A) (A)
                 (A) (A) (A) (A) (A) (A) (A) (A) (A) (A) (A) (A)
                 (A) (A) (A) (A) (A) (A) (A) (A) (A) (A) (A) (A)
                 (A) (A) (A) (A) (A) (A) (A) (A) (A) (A) (A) (A)
                 (A) (A) (A) (A) (A) (A) (A) (A) (A) (A) (A) (A)
                 (A) (A) (A) (A) (A) (A) (A) (A) (A) (A) (A) (A)
                 (A) (A) (A) (A) (A) (A) (A) (A) (A) (A) (A) (A)
                 (A) (A) (A) (A) (A) (A) (A) (A) (A) (A) (A) (A)
                 (A) (A) (A) (A) (A) (A) (A) (A) (A) (A) (A) (A)
                 (A) (A) (A) (A) (A) (A) (A) (A) (A) (A) (A) (A)
                 (A) (A) (A) (A) (A) (A) (A) (A) (A) (A) (A) (A)
                 (A) (A) (A) (A) (A) (A) (A) (A) (A) (A) (A) (A)
 The electronic state is 1-A.
 Alpha  occ. eigenvalues --  -20.57588 -20.56446 -20.55722 -20.55045 -20.54612
 Alpha  occ. eigenvalues --  -20.53135  -1.46576  -1.44150  -1.43621  -1.42688
 Alpha  occ. eigenvalues --   -1.41880  -1.40225  -0.73506  -0.71918  -0.71776
 Alpha  occ. eigenvalues --   -0.70264  -0.69556  -0.68996  -0.63060  -0.60209
 Alpha  occ. eigenvalues --   -0.58669  -0.58367  -0.56344  -0.54373  -0.51292
 Alpha  occ. eigenvalues --   -0.49893  -0.49728  -0.48739  -0.48303  -0.46853
 Alpha virt. eigenvalues --    0.03044   0.04371   0.04549   0.05123   0.06133
 Alpha virt. eigenvalues --    0.07893   0.08540   0.09019   0.09133   0.10250
 Alpha virt. eigenvalues --    0.10564   0.12672   0.16574   0.18680   0.19729
 Alpha virt. eigenvalues --    0.19884   0.20181   0.21153   0.22288   0.22969
 Alpha virt. eigenvalues --    0.23132   0.23570   0.24808   0.25660   0.26208
 Alpha virt. eigenvalues --    0.27294   0.27433   0.28339   0.28513   0.28977
 Alpha virt. eigenvalues --    0.29471   0.30133   0.30556   0.31378   0.32913
 Alpha virt. eigenvalues --    0.33491   0.35454   0.36837   0.38125   0.38448
 Alpha virt. eigenvalues --    0.39161   0.40692   0.42090   0.44117   0.44967
 Alpha virt. eigenvalues --    0.45447   0.47055   0.48109   0.48526   0.48744
 Alpha virt. eigenvalues --    0.49602   0.51116   0.52366   0.52726   0.53617
 Alpha virt. eigenvalues --    0.55210   0.55469   0.55893   0.56479   0.58305
 Alpha virt. eigenvalues --    0.58650   0.59015   0.59833   0.60993   0.62368
 Alpha virt. eigenvalues --    0.62771   0.64174   0.65502   0.65771   0.66770
 Alpha virt. eigenvalues --    0.67044   0.69042   0.69645   0.70090   0.71506
 Alpha virt. eigenvalues --    0.73509   0.74108   0.79078   0.80703   0.81097
 Alpha virt. eigenvalues --    0.83892   0.85407   0.91150   0.92924   0.93648
 Alpha virt. eigenvalues --    0.95672   0.97969   0.99190   1.02005   1.04521
 Alpha virt. eigenvalues --    1.06327   1.07749   1.08872   1.10623   1.12740
 Alpha virt. eigenvalues --    1.14089   1.19116   1.20141   1.21976   1.22012
 Alpha virt. eigenvalues --    1.24149   1.26565   1.26950   1.27701   1.28236
 Alpha virt. eigenvalues --    1.29271   1.29542   1.32547   1.33583   1.35360
 Alpha virt. eigenvalues --    1.37112   1.39206   1.39714   1.42626   1.45525
 Alpha virt. eigenvalues --    1.46537   1.48132   1.48972   1.50638   1.54867
 Alpha virt. eigenvalues --    1.55479   1.57219   1.59413   1.59599   1.63741
 Alpha virt. eigenvalues --    1.69209   1.73113   1.73494   1.76660   1.78194
 Alpha virt. eigenvalues --    1.82006   1.92704   1.94291   1.96970   1.97897
 Alpha virt. eigenvalues --    1.98825   1.99186   2.03512   2.04513   2.04887
 Alpha virt. eigenvalues --    2.06379   2.08274   2.09340   2.13229   2.15335
 Alpha virt. eigenvalues --    2.17786   2.20946   2.21347   2.22895   2.24564
 Alpha virt. eigenvalues --    2.28515   2.31456   2.34348   2.35933   2.38822
 Alpha virt. eigenvalues --    2.46758   2.48348   2.51569   2.53933   2.54570
 Alpha virt. eigenvalues --    2.55092   2.58196   2.59998   2.60910   2.62660
 Alpha virt. eigenvalues --    2.64816   2.71110   2.82722   2.88370   2.89924
 Alpha virt. eigenvalues --    2.91667   2.92528   2.95511   2.98201   2.99898
 Alpha virt. eigenvalues --    3.01425   3.06099   3.06700   3.10490   3.16127
 Alpha virt. eigenvalues --    3.26902   3.30022   3.30810   3.32825   3.35770
 Alpha virt. eigenvalues --    3.38678   3.82770   3.83788   3.83885   3.84934
 Alpha virt. eigenvalues --    3.85973   3.86466   3.87454   3.89465   3.91245
 Alpha virt. eigenvalues --    3.92108   3.94609   3.95393   3.95750   3.96634
 Alpha virt. eigenvalues --    3.98331   4.00173   4.03285   4.07878   4.22412
 Alpha virt. eigenvalues --    4.25357   4.26698   4.27455   4.32461   4.36852
 Alpha virt. eigenvalues --    4.45652   4.49761   4.51124   4.53414   4.53772
 Alpha virt. eigenvalues --    4.61668
          Condensed to atoms (all electrons):
 Mulliken charges:
               1
     1  H    0.698802
     2  H    0.322642
     3  H    0.723581
     4  H    0.357980
     5  H    0.775964
     6  H    0.437248
     7  H    0.371700
     8  H    0.870965
     9  H    0.674836
    10  H    0.673060
    11  H    0.793500
    12  H    0.317261
    13  O   -1.005996
    14  O   -1.332348
    15  O   -1.032642
    16  O   -1.501686
    17  O   -1.051134
    18  O   -1.093733
 Sum of Mulliken charges =  -0.00000
 Mulliken charges with hydrogens summed into heavy atoms:
               1
    13  O    0.127948
    14  O    0.015548
    15  O    0.013581
    16  O   -0.193473
    17  O    0.019368
    18  O    0.017028
 Electronic spatial extent (au):  <R**2>=           1412.1626
 Charge=              0.0000 electrons
 Dipole moment (field-independent basis, Debye):
    X=              0.0306    Y=             -2.5846    Z=              0.0060  Tot=              2.5848

 Test job not archived.
 1\1\GINC-SE095\SP\RHF\Aug-CC-pVDZ\H12O6\OHZDE\08-Apr-2025\0\\#t hf aug
 -cc-pvdz iop(5/13=1,5/36=2,99/5=2) pseudo=read geom=check guess=(read,
 tcheck) scf=(maxcycle=1)\\title\\0,1\H,0,2.35013,0.506327,-0.535236\H,
 0,-2.28499,-1.68985,-1.31608\H,0,-2.4852,-0.415729,-0.435662\H,0,2.736
 85,-1.67441,-1.16403\H,0,1.63712,-1.47558,-0.0402251\H,0,-0.0081798,-1
 .92949,1.5765\H,0,2.81504,1.81881,0.173918\H,0,-0.809817,-1.52035,0.31
 7747\H,0,-0.0857821,0.468018,1.0782\H,0,0.654057,1.59337,0.289488\H,0,
 -1.49689,1.40971,-0.0360874\H,0,-3.03456,1.77543,0.0734299\O,0,2.57282
 ,-1.25054,-0.283537\O,0,-0.109497,1.42927,0.914133\O,0,-2.35043,-1.406
 07,-0.393885\O,0,0.0633748,-1.39201,0.76782\O,0,2.2179,1.49524,-0.5441
 77\O,0,-2.39264,1.26583,-0.458101\\Version=ES64L-G16RevC.01\State=1-A\
 HF=-456.7513668\RMSD=5.706e-03\Dipole=0.0120213,-1.0168656,0.0023571\Q
 uadrupole=-1.0654569,0.170525,0.8949319,-1.6795393,-0.5884329,3.281921
 1\PG=C01 [X(H12O6)]\\@


  THE LARGE PRINT GIVETH,
  AND THE SMALL PRINT TAKETH AWAY.

                     -- TOM WAITS
 Job cpu time:       0 days  0 hours  1 minutes  1.6 seconds.
 Elapsed time:       0 days  0 hours  0 minutes  4.8 seconds.
 File lengths (MBytes):  RWF=     14 Int=      0 D2E=      0 Chk=      9 Scr=      1
 Normal termination of Gaussian 16 at Tue Apr  8 21:08:51 2025.
