 Entering Gaussian System, Link 0=g16
 Input=ANI1ccx_1850_conf4_mol2.gjf
 Output=ANI1ccx_1850_conf4_mol2.log
 Initial command:
 /arc/software/Gaussian/g16.c01/l1.exe "/tmp/slurm/4837426/Gau-3160484.inp" -scrdir="/tmp/slurm/4837426/"
 Entering Link 1 = /arc/software/Gaussian/g16.c01/l1.exe PID=   3160485.
  
 Copyright (c) 1988-2019, Gaussian, Inc.  All Rights Reserved.
  
 This is part of the Gaussian(R) 16 program.  It is based on
 the Gaussian(R) 09 system (copyright 2009, Gaussian, Inc.),
 the Gaussian(R) 03 system (copyright 2003, Gaussian, Inc.),
 the Gaussian(R) 98 system (copyright 1998, Gaussian, Inc.),
 the Gaussian(R) 94 system (copyright 1995, Gaussian, Inc.),
 the Gaussian 92(TM) system (copyright 1992, Gaussian, Inc.),
 the Gaussian 90(TM) system (copyright 1990, Gaussian, Inc.),
 the Gaussian 88(TM) system (copyright 1988, Gaussian, Inc.),
 the Gaussian 86(TM) system (copyright 1986, Carnegie Mellon
 University), and the Gaussian 82(TM) system (copyright 1983,
 Carnegie Mellon University). Gaussian is a federally registered
 trademark of Gaussian, Inc.
  
 This software contains proprietary and confidential information,
 including trade secrets, belonging to Gaussian, Inc.
  
 This software is provided under written license and may be
 used, copied, transmitted, or stored only in accord with that
 written license.
  
 The following legend is applicable only to US Government
 contracts under FAR:
  
                    RESTRICTED RIGHTS LEGEND
  
 Use, reproduction and disclosure by the US Government is
 subject to restrictions as set forth in subparagraphs (a)
 and (c) of the Commercial Computer Software - Restricted
 Rights clause in FAR 52.227-19.
  
 Gaussian, Inc.
 340 Quinnipiac St., Bldg. 40, Wallingford CT 06492
  
  
 ---------------------------------------------------------------
 Warning -- This program may not be used in any manner that
 competes with the business of Gaussian, Inc. or will provide
 assistance to any competitor of Gaussian, Inc.  The licensee
 of this program is prohibited from giving any competitor of
 Gaussian, Inc. access to this program.  By using this program,
 the user acknowledges that Gaussian, Inc. is engaged in the
 business of creating and licensing software in the field of
 computational chemistry and represents and warrants to the
 licensee that it is not a competitor of Gaussian, Inc. and that
 it will not use this program in any manner prohibited above.
 ---------------------------------------------------------------
  

 Cite this work as:
 Gaussian 16, Revision C.01,
 M. J. Frisch, G. W. Trucks, H. B. Schlegel, G. E. Scuseria, 
 M. A. Robb, J. R. Cheeseman, G. Scalmani, V. Barone, 
 G. A. Petersson, H. Nakatsuji, X. Li, M. Caricato, A. V. Marenich, 
 J. Bloino, B. G. Janesko, R. Gomperts, B. Mennucci, H. P. Hratchian, 
 J. V. Ortiz, A. F. Izmaylov, J. L. Sonnenberg, D. Williams-Young, 
 F. Ding, F. Lipparini, F. Egidi, J. Goings, B. Peng, A. Petrone, 
 T. Henderson, D. Ranasinghe, V. G. Zakrzewski, J. Gao, N. Rega, 
 G. Zheng, W. Liang, M. Hada, M. Ehara, K. Toyota, R. Fukuda, 
 J. Hasegawa, M. Ishida, T. Nakajima, Y. Honda, O. Kitao, H. Nakai, 
 T. Vreven, K. Throssell, J. A. Montgomery, Jr., J. E. Peralta, 
 F. Ogliaro, M. J. Bearpark, J. J. Heyd, E. N. Brothers, K. N. Kudin, 
 V. N. Staroverov, T. A. Keith, R. Kobayashi, J. Normand, 
 K. Raghavachari, A. P. Rendell, J. C. Burant, S. S. Iyengar, 
 J. Tomasi, M. Cossi, J. M. Millam, M. Klene, C. Adamo, R. Cammi, 
 J. W. Ochterski, R. L. Martin, K. Morokuma, O. Farkas, 
 J. B. Foresman, and D. J. Fox, Gaussian, Inc., Wallingford CT, 2019.
 
 ******************************************
 Gaussian 16:  ES64L-G16RevC.01  3-Jul-2019
                 8-Apr-2025 
 ******************************************
 %nprocs=16
 Will use up to   16 processors via shared memory.
 %mem=30GB
 %chk=ANI1ccx_1850_conf4_mol2.chk
 ----------------------------------------------------------------------
 #t hf aug-cc-pvdz symm=none int=(grid=ultrafine) guess=(read,tcheck) s
 table=(opt,rrhf)
 ----------------------------------------------------------------------
 -----
 title
 -----
 Symbolic Z-matrix:
 Charge =  0 Multiplicity = 1
 H                    -3.27325   0.36785  -0.22945 
 N                    -2.38608  -0.18225  -0.4101 
 O                    -1.60906   0.05233   0.4864 
 O                     1.80308   0.57347  -0.12062 
 O                     2.30295  -0.5123    0.02173 
 
                    Distance matrix (angstroms):
                    1          2          3          4          5
     1  H    0.000000
     2  N    1.059393   0.000000
     3  O    1.838891   1.209338   0.000000
     4  O    5.081658   4.266611   3.504676   0.000000
     5  O    5.650819   4.720425   3.979768   1.203754   0.000000
 Symmetry turned off by external request.
 Rotational constants (GHZ):          30.5825366           1.8375010           1.8133032
   101 basis functions,   183 primitive gaussians,   109 cartesian basis functions
    16 alpha electrons       16 beta electrons
       nuclear repulsion energy        91.4166989755 Hartrees.
 NAtoms=    5 NActive=    5 NUniq=    5 SFac= 1.00D+00 NAtFMM=   60 NAOKFM=F Big=F
 ExpMin= 2.97D-02 ExpMax= 1.17D+04 ExpMxC= 4.01D+02 IAcc=3 IRadAn=         5 AccDes= 0.00D+00
 Harris functional with IExCor=  205 and IRadAn=       5 diagonalized for initial guess.
 HarFok:  IExCor=  205 AccDes= 0.00D+00 IRadAn=         5 IDoV= 1 UseB2=F ITyADJ=14
 ICtDFT=  3500011 ScaDFX=  1.000000  1.000000  1.000000  1.000000
 FoFCou: FMM=F IPFlag=           0 FMFlag=      100000 FMFlg1=           0
         NFxFlg=           0 DoJE=T BraDBF=F KetDBF=T FulRan=T
         wScrn=  0.000000 ICntrl=       500 IOpCl=  0 I1Cent=   200000004 NGrid=           0
         NMat0=    1 NMatS0=      1 NMatT0=    0 NMatD0=    1 NMtDS0=    0 NMtDT0=    0
 Symmetry not used in FoFCou.
 SCF useless:  E(RHF) =  -279.367222542     A.U. after   51 cycles
            NFock= 51  Conv=0.65D-08     -V/T= 2.0020

 **********************************************************************

            Population analysis using the SCF Density.

 **********************************************************************

 Alpha  occ. eigenvalues --  -20.74253 -20.74157 -20.66472 -15.72373  -1.66008
 Alpha  occ. eigenvalues --   -1.53396  -1.10005  -0.99445  -0.76466  -0.74586
 Alpha  occ. eigenvalues --   -0.73769  -0.66482  -0.64880  -0.59527  -0.46182
 Alpha  occ. eigenvalues --   -0.42867
 Alpha virt. eigenvalues --    0.02589   0.03584   0.06621   0.11401   0.12598
 Alpha virt. eigenvalues --    0.14307   0.16311   0.17898   0.19191   0.19341
 Alpha virt. eigenvalues --    0.22942   0.24157   0.24701   0.25941   0.28568
 Alpha virt. eigenvalues --    0.29063   0.31594   0.34475   0.38215   0.40289
 Alpha virt. eigenvalues --    0.40705   0.46930   0.53824   0.57984   0.60632
 Alpha virt. eigenvalues --    0.70206   0.75976   0.82549   0.83543   0.86131
 Alpha virt. eigenvalues --    0.87239   0.92847   0.97509   1.00882   1.03320
 Alpha virt. eigenvalues --    1.04345   1.06372   1.11160   1.13518   1.17034
 Alpha virt. eigenvalues --    1.18686   1.20073   1.23375   1.24607   1.27158
 Alpha virt. eigenvalues --    1.29122   1.29769   1.32826   1.33617   1.36656
 Alpha virt. eigenvalues --    1.39356   1.52490   1.64298   1.67750   1.69302
 Alpha virt. eigenvalues --    1.71284   1.74921   1.89430   1.92659   2.08672
 Alpha virt. eigenvalues --    2.24243   2.27787   2.42963   2.47129   2.59841
 Alpha virt. eigenvalues --    2.60472   2.80227   3.10671   3.11176   3.14086
 Alpha virt. eigenvalues --    3.32995   3.39126   3.40614   3.45552   3.56546
 Alpha virt. eigenvalues --    3.58832   3.61697   3.64941   3.65513   3.81908
 Alpha virt. eigenvalues --    3.87090   4.01112   4.01875   4.04686   4.26386
          Condensed to atoms (all electrons):
 Mulliken charges:
               1
     1  H    0.159188
     2  N    0.295615
     3  O   -0.457272
     4  O    0.013175
     5  O   -0.010706
 Sum of Mulliken charges =  -0.00000
 Mulliken charges with hydrogens summed into heavy atoms:
               1
     2  N    0.454803
     3  O   -0.457272
     4  O    0.013175
     5  O   -0.010706
 Electronic spatial extent (au):  <R**2>=            571.2781
 Charge=             -0.0000 electrons
 Dipole moment (field-independent basis, Debye):
    X=             -1.8530    Y=              0.7230    Z=             -0.2227  Tot=              2.0015
 NROrb=    101 NOA=    16 NOB=    16 NVA=    85 NVB=    85

 **** Warning!!: The largest alpha MO coefficient is  0.12160872D+02

    12 initial guesses have been made.
 Iteration     1 Dimension    12 NMult     0 NNew     12
 New state      1 was old state      2
 Iteration     2 Dimension    24 NMult    12 NNew     12
 Iteration     3 Dimension    27 NMult    24 NNew      3
 Iteration     4 Dimension    30 NMult    27 NNew      3
 ***********************************************************************
 Stability analysis using <AA,BB:AA,BB> singles matrix:
 ***********************************************************************
 Ground to excited state transition densities written to RWF  633

 Eigenvectors of the stability matrix:
 
 Excited state symmetry could not be determined.
 Eigenvector   1:      Singlet-?Sym  Eigenvalue=-0.0003561  <S**2>=0.000
      15 -> 17         0.68536
 The wavefunction has an internal instability.
 The two search directions are symmetric.
 Incorrect curvature in search direction -- initial direction reversed.
     Accept linear search using points  1 and  2.
     Minimum is close to point  3 DX=  1.82D-03 DF= -5.44D-10 DXR=  1.30D-03 DFR=  3.09D-06 which will be used.
     Accept linear search using points  3 and  4.
     Minimum is close to point  3 DX=  8.15D-03 DF= -6.59D-10 DXR=  4.77D-03 DFR=  1.69D-05 which will be used.
     Accept linear search using points  1 and  2.
     Minimum is close to point  2 DX= -4.53D-02 DF= -1.40D-08 DXR=  4.74D-02 DFR=  2.38D-03 which will be used.
     Accept linear search using points  1 and  2.
     Accept linear search using points  1 and  2.
     Accept linear search using points  1 and  2.
     Accept linear search using points  1 and  2.
     Accept linear search using points  1 and  2.
     Accept linear search using points  1 and  2.
     Accept linear search using points  1 and  2.
     Accept linear search using points  1 and  2.
 QCLLim is confused:  Bigger=T Turned=T
 NLin=  3 IMin12=  1  2 I12=  0  2 IX=  1 XLMin= 0.000D+00 XLMax= 0.000D+00
 X = 0.000D+00 1.000D+00 2.000D+00
 DE= 0.000D+00 1.705D-12 4.547D-12
 QCLLim is confused:  Bigger=T Turned=T
 NLin=  4 IMin12=  1  2 I12=  0  2 IX=  1 XLMin= 0.000D+00 XLMax= 0.000D+00
 X = 0.000D+00 1.000D+00 2.000D+00 4.000D+00
 DE= 0.000D+00 1.705D-12 4.547D-12 1.421D-11
 QCLLim is confused:  Bigger=T Turned=T
 NLin=  5 IMin12=  1  2 I12=  0  2 IX=  1 XLMin= 0.000D+00 XLMax= 0.000D+00
 X = 0.000D+00 1.000D+00 2.000D+00 4.000D+00 8.000D+00
 DE= 0.000D+00 1.705D-12 4.547D-12 1.421D-11 8.509D-11
 QCLLim is confused:  Bigger=T Turned=T
 NLin=  6 IMin12=  1  2 I12=  0  2 IX=  1 XLMin= 0.000D+00 XLMax= 0.000D+00
 X = 0.000D+00 1.000D+00 2.000D+00 4.000D+00 8.000D+00 1.600D+01
 DE= 0.000D+00 1.705D-12 4.547D-12 1.421D-11 8.509D-11 3.738D-10
 QCLLim is confused:  Bigger=T Turned=T
 NLin=  8 IMin12=  1  2 I12=  0  2 IX=  1 XLMin= 0.000D+00 XLMax= 0.000D+00
 X = 0.000D+00 1.000D+00 2.000D+00 4.000D+00 8.000D+00 1.600D+01 3.200D+01 6.400D+01
 DE= 0.000D+00 1.705D-12 4.547D-12 1.421D-11 8.509D-11 3.738D-10 1.595D-09 6.562D-09
 QCLLim is confused:  Bigger=T Turned=T
 NLin=  9 IMin12=  1  2 I12=  0  2 IX=  1 XLMin= 0.000D+00 XLMax= 0.000D+00
 X = 0.000D+00 1.000D+00 2.000D+00 4.000D+00 8.000D+00 1.600D+01 3.200D+01 6.400D+01 1.280D+02
 DE= 0.000D+00 1.705D-12 4.547D-12 1.421D-11 8.509D-11 3.738D-10 1.595D-09 6.562D-09 2.664D-08
 QCLLim is confused:  Bigger=T Turned=T
 NLin= 12 IMin12=  1  2 I12=  0  2 IX=  1 XLMin= 0.000D+00 XLMax= 0.000D+00
 X = 0.000D+00 1.000D+00 2.000D+00 4.000D+00 8.000D+00 1.600D+01 3.200D+01 6.400D+01 1.280D+02 2.560D+02 5.120D+02 1.024D+03
 DE= 0.000D+00 1.705D-12 4.547D-12 1.421D-11 8.509D-11 3.738D-10 1.595D-09 6.562D-09 2.664D-08 1.074D-07 4.310D-07 1.727D-06
 Search did not lower the energy significantly.
 No lower point found -- using Newton-Raphson step.
 SCF Done:  E(RHF) =  -279.367956296     a.u. after   30 cycles
            Convg  =    0.4906D-07                   350 Fock formations.
              S**2 =  0.0000                  -V/T =  2.0020
 NROrb=    101 NOA=    16 NOB=    16 NVA=    85 NVB=    85

 **** Warning!!: The largest alpha MO coefficient is  0.12608130D+02

    12 initial guesses have been made.
 Iteration     1 Dimension    12 NMult     0 NNew     12
 New state      1 was old state      2
 Iteration     2 Dimension    24 NMult    12 NNew     12
 Iteration     3 Dimension    27 NMult    24 NNew      3
 Iteration     4 Dimension    30 NMult    27 NNew      3
 ***********************************************************************
 Stability analysis using <AA,BB:AA,BB> singles matrix:
 ***********************************************************************
 Ground to excited state transition densities written to RWF  633

 Eigenvectors of the stability matrix:
 
 Excited state symmetry could not be determined.
 Eigenvector   1:      Singlet-?Sym  Eigenvalue= 0.0003704  <S**2>=0.000
      15 -> 17         0.68499
 The wavefunction is stable under the perturbations considered.
 The wavefunction is already stable.

 **********************************************************************

            Population analysis using the SCF Density.

 **********************************************************************

 Alpha  occ. eigenvalues --  -20.74253 -20.74142 -20.66772 -15.72691  -1.65985
 Alpha  occ. eigenvalues --   -1.53715  -1.09984  -0.99757  -0.76463  -0.74895
 Alpha  occ. eigenvalues --   -0.73748  -0.66861  -0.64786  -0.59854  -0.46180
 Alpha  occ. eigenvalues --   -0.43182
 Alpha virt. eigenvalues --    0.02675   0.03512   0.06378   0.11260   0.12565
 Alpha virt. eigenvalues --    0.14258   0.16230   0.17833   0.19077   0.19361
 Alpha virt. eigenvalues --    0.23040   0.23812   0.24430   0.25576   0.28760
 Alpha virt. eigenvalues --    0.28788   0.31746   0.34772   0.38007   0.40355
 Alpha virt. eigenvalues --    0.40930   0.46764   0.53855   0.57829   0.60403
 Alpha virt. eigenvalues --    0.69987   0.75791   0.82443   0.83247   0.85881
 Alpha virt. eigenvalues --    0.86472   0.92629   0.97568   1.00664   1.03053
 Alpha virt. eigenvalues --    1.05454   1.05749   1.10833   1.13337   1.17054
 Alpha virt. eigenvalues --    1.17978   1.20106   1.22634   1.24448   1.27830
 Alpha virt. eigenvalues --    1.28018   1.30750   1.31420   1.33985   1.36966
 Alpha virt. eigenvalues --    1.39291   1.52255   1.64634   1.67452   1.69978
 Alpha virt. eigenvalues --    1.70661   1.74634   1.89187   1.92352   2.08415
 Alpha virt. eigenvalues --    2.23962   2.27522   2.43030   2.46879   2.59547
 Alpha virt. eigenvalues --    2.60186   2.79939   3.10232   3.11856   3.13601
 Alpha virt. eigenvalues --    3.32675   3.39146   3.40905   3.45274   3.56383
 Alpha virt. eigenvalues --    3.58853   3.61236   3.64888   3.65580   3.81580
 Alpha virt. eigenvalues --    3.86754   4.00771   4.03049   4.03574   4.26362
          Condensed to atoms (all electrons):
 Mulliken charges:
               1
     1  H    0.161113
     2  N    0.301482
     3  O   -0.464856
     4  O    0.012476
     5  O   -0.010215
 Sum of Mulliken charges =   0.00000
 Mulliken charges with hydrogens summed into heavy atoms:
               1
     2  N    0.462595
     3  O   -0.464856
     4  O    0.012476
     5  O   -0.010215
 Electronic spatial extent (au):  <R**2>=            571.1276
 Charge=              0.0000 electrons
 Dipole moment (field-independent basis, Debye):
    X=             -1.9034    Y=              0.7233    Z=             -0.2412  Tot=              2.0505
 Unable to Open any file for archive entry.
 1\1\GINC-SE036\Stability\RHF\Aug-CC-pVDZ\H1N1O3\OHZDE\08-Apr-2025\0\\#
 t hf aug-cc-pvdz symm=none int=(grid=ultrafine) guess=(read,tcheck) st
 able=(opt,rrhf)\\title\\0,1\H,0,-3.27325,0.367847,-0.229447\N,0,-2.386
 08,-0.182252,-0.410097\O,0,-1.60906,0.0523271,0.486402\O,0,1.80308,0.5
 73465,-0.120615\O,0,2.30295,-0.512303,0.0217289\\Version=ES64L-G16RevC
 .01\HF=-279.3679563\RMSD=9.407e-10\Dipole=-0.7488724,0.2845663,-0.0948
 906\Quadrupole=5.2075183,-1.9509349,-3.2565834,-1.1574611,0.0617946,-0
 .9233857\PG=Unknown\\@
 The archive entry for this job was punched.


 SLITHERY-DITHERY
 FRIEDRICH A. KEKULE
 DREAMT ON A BUS OF THINGS
 FREUD WOULD THINK KEEN.
 MOST OF THE TIME THEY WERE
 HERPETOLOGICAL
 BITING THEIR TAILS IN THE
 SHAPE OF BENZENE.
 Job cpu time:       0 days  0 hours  1 minutes 17.8 seconds.
 Elapsed time:       0 days  0 hours  0 minutes 15.2 seconds.
 File lengths (MBytes):  RWF=     85 Int=      0 D2E=      0 Chk=      2 Scr=      1
 Normal termination of Gaussian 16 at Tue Apr  8 21:10:28 2025.
 Initial command:
 /arc/software/Gaussian/g16.c01/l1.exe "/tmp/slurm/4837426/Gau-3160484.inp" -scrdir="/tmp/slurm/4837426/"
 Entering Link 1 = /arc/software/Gaussian/g16.c01/l1.exe PID=   3160742.
  
 Copyright (c) 1988-2019, Gaussian, Inc.  All Rights Reserved.
  
 This is part of the Gaussian(R) 16 program.  It is based on
 the Gaussian(R) 09 system (copyright 2009, Gaussian, Inc.),
 the Gaussian(R) 03 system (copyright 2003, Gaussian, Inc.),
 the Gaussian(R) 98 system (copyright 1998, Gaussian, Inc.),
 the Gaussian(R) 94 system (copyright 1995, Gaussian, Inc.),
 the Gaussian 92(TM) system (copyright 1992, Gaussian, Inc.),
 the Gaussian 90(TM) system (copyright 1990, Gaussian, Inc.),
 the Gaussian 88(TM) system (copyright 1988, Gaussian, Inc.),
 the Gaussian 86(TM) system (copyright 1986, Carnegie Mellon
 University), and the Gaussian 82(TM) system (copyright 1983,
 Carnegie Mellon University). Gaussian is a federally registered
 trademark of Gaussian, Inc.
  
 This software contains proprietary and confidential information,
 including trade secrets, belonging to Gaussian, Inc.
  
 This software is provided under written license and may be
 used, copied, transmitted, or stored only in accord with that
 written license.
  
 The following legend is applicable only to US Government
 contracts under FAR:
  
                    RESTRICTED RIGHTS LEGEND
  
 Use, reproduction and disclosure by the US Government is
 subject to restrictions as set forth in subparagraphs (a)
 and (c) of the Commercial Computer Software - Restricted
 Rights clause in FAR 52.227-19.
  
 Gaussian, Inc.
 340 Quinnipiac St., Bldg. 40, Wallingford CT 06492
  
  
 ---------------------------------------------------------------
 Warning -- This program may not be used in any manner that
 competes with the business of Gaussian, Inc. or will provide
 assistance to any competitor of Gaussian, Inc.  The licensee
 of this program is prohibited from giving any competitor of
 Gaussian, Inc. access to this program.  By using this program,
 the user acknowledges that Gaussian, Inc. is engaged in the
 business of creating and licensing software in the field of
 computational chemistry and represents and warrants to the
 licensee that it is not a competitor of Gaussian, Inc. and that
 it will not use this program in any manner prohibited above.
 ---------------------------------------------------------------
  

 Cite this work as:
 Gaussian 16, Revision C.01,
 M. J. Frisch, G. W. Trucks, H. B. Schlegel, G. E. Scuseria, 
 M. A. Robb, J. R. Cheeseman, G. Scalmani, V. Barone, 
 G. A. Petersson, H. Nakatsuji, X. Li, M. Caricato, A. V. Marenich, 
 J. Bloino, B. G. Janesko, R. Gomperts, B. Mennucci, H. P. Hratchian, 
 J. V. Ortiz, A. F. Izmaylov, J. L. Sonnenberg, D. Williams-Young, 
 F. Ding, F. Lipparini, F. Egidi, J. Goings, B. Peng, A. Petrone, 
 T. Henderson, D. Ranasinghe, V. G. Zakrzewski, J. Gao, N. Rega, 
 G. Zheng, W. Liang, M. Hada, M. Ehara, K. Toyota, R. Fukuda, 
 J. Hasegawa, M. Ishida, T. Nakajima, Y. Honda, O. Kitao, H. Nakai, 
 T. Vreven, K. Throssell, J. A. Montgomery, Jr., J. E. Peralta, 
 F. Ogliaro, M. J. Bearpark, J. J. Heyd, E. N. Brothers, K. N. Kudin, 
 V. N. Staroverov, T. A. Keith, R. Kobayashi, J. Normand, 
 K. Raghavachari, A. P. Rendell, J. C. Burant, S. S. Iyengar, 
 J. Tomasi, M. Cossi, J. M. Millam, M. Klene, C. Adamo, R. Cammi, 
 J. W. Ochterski, R. L. Martin, K. Morokuma, O. Farkas, 
 J. B. Foresman, and D. J. Fox, Gaussian, Inc., Wallingford CT, 2019.
 
 ******************************************
 Gaussian 16:  ES64L-G16RevC.01  3-Jul-2019
                 8-Apr-2025 
 ******************************************
 %nprocs=16
 Will use up to   16 processors via shared memory.
 %mem=30GB
 %chk=ANI1ccx_1850_conf4_mol2.chk
 ----------------------------------------------------------------------
 #t hf aug-cc-pvdz iop(5/13=1,5/36=2,99/5=2) pseudo=read geom=check gue
 ss=(read,tcheck) scf=(maxcycle=1)
 ----------------------------------------------------------------------
 -----
 title
 -----
 Structure from the checkpoint file:  "ANI1ccx_1850_conf4_mol2.chk"
 Charge =  0 Multiplicity = 1
 Z-Matrix found in chk file.
 H,0,-3.27325,0.367847,-0.229447
 N,0,-2.38608,-0.182252,-0.410097
 O,0,-1.60906,0.0523271,0.486402
 O,0,1.80308,0.573465,-0.120615
 O,0,2.30295,-0.512303,0.0217289
 Recover connectivity data from disk.
                    Distance matrix (angstroms):
                    1          2          3          4          5
     1  H    0.000000
     2  N    1.059393   0.000000
     3  O    1.838891   1.209338   0.000000
     4  O    5.081658   4.266611   3.504676   0.000000
     5  O    5.650819   4.720425   3.979768   1.203754   0.000000
 Framework group  C1[X(HNO3)]
 Deg. of freedom     9
                         Standard orientation:                         
 ---------------------------------------------------------------------
 Center     Atomic      Atomic             Coordinates (Angstroms)
 Number     Number       Type             X           Y           Z
 ---------------------------------------------------------------------
      1          1           0       -3.273248    0.367847   -0.229447
      2          7           0       -2.386078   -0.182252   -0.410097
      3          8           0       -1.609058    0.052327    0.486402
      4          8           0        1.803082    0.573465   -0.120615
      5          8           0        2.302952   -0.512303    0.021729
 ---------------------------------------------------------------------
 Rotational constants (GHZ):          30.5825366           1.8375010           1.8133032
 ======================================================================================================
                                       Pseudopotential Parameters
 ======================================================================================================
  Center     Atomic      Valence      Angular      Power
  Number     Number     Electrons     Momentum     of R      Exponent        Coefficient   SO-Coeffient
 ======================================================================================================
    1          1            1
                                      F and up 
                                                     0        0.0000010       -0.00007675    0.00000000
                                                     2        0.1200000        0.05352699    0.00000000
                                                     2        0.1400000       -0.25123645    0.00000000
                                                     2        0.1600000        0.32188106    0.00000000
                                                     2        0.2200000       -0.25206857    0.00000000
                                                     2        0.3000000        0.19290477    0.00000000
                                                     2        0.5000000       -0.10129770    0.00000000
                                                     2        0.9000000        0.00314995    0.00000000
                                                     2        1.5000000        0.18401192    0.00000000
                                      S - F
                                                     0        0.0000010        0.08065976    0.00000000
                                                     2        0.1200000       -0.09231673    0.00000000
                                                     2        0.1600000       -0.03278082    0.00000000
                                                     2        0.2800000        0.38423402    0.00000000
                                                     2        0.6000000       -1.09357590    0.00000000
                                                     2        1.1000000        1.53099489    0.00000000
                                                     2        3.0000000       -2.63300202    0.00000000
                                      P - F
                                                     0        0.0000010       -0.11638665    0.00000000
                                                     2        0.1200000        0.35468655    0.00000000
                                                     2        0.1600000       -0.59160923    0.00000000
                                                     2        0.3000000        0.49390547    0.00000000
                                                     2        0.6000000       -0.37949835    0.00000000
                                                     2        1.6000000        0.89304688    0.00000000
                                      D - F
                                                     0        0.0000010        0.05443663    0.00000000
                                                     2        0.1200000       -0.29679479    0.00000000
                                                     2        0.1400000        0.36849872    0.00000000
                                                     2        0.2400000        0.02793449    0.00000000
                                                     2        0.4000000       -0.46312857    0.00000000
                                                     2        0.7000000        0.97587598    0.00000000
                                                     2        1.5000000       -2.43431102    0.00000000
    2          7            7
                                      G and up 
                                                     0        0.0000010       -0.00039818    0.00000000
                                                     2        0.1200000       -0.37616123    0.00000000
                                                     2        0.1400000        2.13837358    0.00000000
                                                     2        0.1600000       -3.36562035    0.00000000
                                                     2        0.2000000        2.53463289    0.00000000
                                                     2        0.3000000       -1.98118833    0.00000000
                                                     2        0.5000000        4.06642919    0.00000000
                                                     2        0.7000000       -6.15327959    0.00000000
                                                     2        1.2000000       10.22492851    0.00000000
                                                     2        2.0000000      -14.94707511    0.00000000
                                      S - G
                                                     0        0.0000010        0.02721443    0.00000000
                                                     2        0.1200000       -0.60186009    0.00000000
                                                     2        0.1600000        1.10088134    0.00000000
                                                     2        0.2600000       -0.59857981    0.00000000
                                                     2        0.6000000        0.21288222    0.00000000
                                                     2        3.0000000        5.09059205    0.00000000
                                      P - G
                                                     0        0.0000010        0.40558062    0.00000000
                                                     2        0.1200000        0.81809854    0.00000000
                                                     2        0.1600000       -2.44952728    0.00000000
                                                     2        0.2800000        4.16638749    0.00000000
                                                     2        0.5000000       -6.02944147    0.00000000
                                                     2        1.1000000        5.78262914    0.00000000
                                      D - G
                                                     0        0.0000010       -0.62770267    0.00000000
                                                     2        0.1600000        0.91438653    0.00000000
                                                     2        0.2600000       -2.00568466    0.00000000
                                                     2        0.5000000        3.30798839    0.00000000
                                                     2        1.1000000       -3.91526108    0.00000000
                                      F - G
                                                     0        0.0000010        0.29726344    0.00000000
                                                     2        0.1200000       -0.41591527    0.00000000
                                                     2        0.1600000        0.51444439    0.00000000
                                                     2        0.4000000       -0.69401726    0.00000000
                                                     2        0.7000000        0.51478123    0.00000000
    3          8            8
                                      G and up 
                                                     0        0.0000010        0.00049668    0.00000000
                                                     2        0.1200000       -0.01803391    0.00000000
                                                     2        0.1400000        0.04014195    0.00000000
                                                     2        0.2000000       -0.02692147    0.00000000
                                                     2        0.2800000       -0.04241843    0.00000000
                                                     2        0.4000000        0.15412145    0.00000000
                                                     2        0.7000000       -0.40587006    0.00000000
                                                     2        1.1000000        1.75666647    0.00000000
                                      S - G
                                                     0        0.0000010       -0.01088195    0.00000000
                                                     2        0.1200000        0.09867335    0.00000000
                                                     2        0.2400000       -0.08484177    0.00000000
                                                     2        0.6000000       -1.39011554    0.00000000
                                                     2        2.5000000        1.36225910    0.00000000
                                      P - G
                                                     0        0.0000010        0.05874028    0.00000000
                                                     2        0.1200000       -0.11700340    0.00000000
                                                     2        0.1600000        0.08847775    0.00000000
                                                     2        0.3000000        0.04709907    0.00000000
                                                     2        1.2000000       -1.80388338    0.00000000
                                      D - G
                                                     0        0.0000010       -0.00541262    0.00000000
                                                     2        0.1200000       -0.26547906    0.00000000
                                                     2        0.1600000        1.04289661    0.00000000
                                                     2        0.2400000       -1.92800913    0.00000000
                                                     2        0.4000000        2.26691633    0.00000000
                                                     2        0.7000000       -1.97391482    0.00000000
                                      F - G
                                                     0        0.0000010       -0.02604870    0.00000000
                                                     2        0.1200000        0.37362552    0.00000000
                                                     2        0.1600000       -1.43526367    0.00000000
                                                     2        0.2200000        1.76778079    0.00000000
                                                     2        0.5000000       -1.90846303    0.00000000
    4          8            8
                                      G and up 
                                                     0        0.0000010        0.00049668    0.00000000
                                                     2        0.1200000       -0.01803391    0.00000000
                                                     2        0.1400000        0.04014195    0.00000000
                                                     2        0.2000000       -0.02692147    0.00000000
                                                     2        0.2800000       -0.04241843    0.00000000
                                                     2        0.4000000        0.15412145    0.00000000
                                                     2        0.7000000       -0.40587006    0.00000000
                                                     2        1.1000000        1.75666647    0.00000000
                                      S - G
                                                     0        0.0000010       -0.01088195    0.00000000
                                                     2        0.1200000        0.09867335    0.00000000
                                                     2        0.2400000       -0.08484177    0.00000000
                                                     2        0.6000000       -1.39011554    0.00000000
                                                     2        2.5000000        1.36225910    0.00000000
                                      P - G
                                                     0        0.0000010        0.05874028    0.00000000
                                                     2        0.1200000       -0.11700340    0.00000000
                                                     2        0.1600000        0.08847775    0.00000000
                                                     2        0.3000000        0.04709907    0.00000000
                                                     2        1.2000000       -1.80388338    0.00000000
                                      D - G
                                                     0        0.0000010       -0.00541262    0.00000000
                                                     2        0.1200000       -0.26547906    0.00000000
                                                     2        0.1600000        1.04289661    0.00000000
                                                     2        0.2400000       -1.92800913    0.00000000
                                                     2        0.4000000        2.26691633    0.00000000
                                                     2        0.7000000       -1.97391482    0.00000000
                                      F - G
                                                     0        0.0000010       -0.02604870    0.00000000
                                                     2        0.1200000        0.37362552    0.00000000
                                                     2        0.1600000       -1.43526367    0.00000000
                                                     2        0.2200000        1.76778079    0.00000000
                                                     2        0.5000000       -1.90846303    0.00000000
    5          8            8
                                      G and up 
                                                     0        0.0000010        0.00049668    0.00000000
                                                     2        0.1200000       -0.01803391    0.00000000
                                                     2        0.1400000        0.04014195    0.00000000
                                                     2        0.2000000       -0.02692147    0.00000000
                                                     2        0.2800000       -0.04241843    0.00000000
                                                     2        0.4000000        0.15412145    0.00000000
                                                     2        0.7000000       -0.40587006    0.00000000
                                                     2        1.1000000        1.75666647    0.00000000
                                      S - G
                                                     0        0.0000010       -0.01088195    0.00000000
                                                     2        0.1200000        0.09867335    0.00000000
                                                     2        0.2400000       -0.08484177    0.00000000
                                                     2        0.6000000       -1.39011554    0.00000000
                                                     2        2.5000000        1.36225910    0.00000000
                                      P - G
                                                     0        0.0000010        0.05874028    0.00000000
                                                     2        0.1200000       -0.11700340    0.00000000
                                                     2        0.1600000        0.08847775    0.00000000
                                                     2        0.3000000        0.04709907    0.00000000
                                                     2        1.2000000       -1.80388338    0.00000000
                                      D - G
                                                     0        0.0000010       -0.00541262    0.00000000
                                                     2        0.1200000       -0.26547906    0.00000000
                                                     2        0.1600000        1.04289661    0.00000000
                                                     2        0.2400000       -1.92800913    0.00000000
                                                     2        0.4000000        2.26691633    0.00000000
                                                     2        0.7000000       -1.97391482    0.00000000
                                      F - G
                                                     0        0.0000010       -0.02604870    0.00000000
                                                     2        0.1200000        0.37362552    0.00000000
                                                     2        0.1600000       -1.43526367    0.00000000
                                                     2        0.2200000        1.76778079    0.00000000
                                                     2        0.5000000       -1.90846303    0.00000000
 ======================================================================================================
   101 basis functions,   183 primitive gaussians,   109 cartesian basis functions
    16 alpha electrons       16 beta electrons
       nuclear repulsion energy        91.4166989755 Hartrees.
 NAtoms=    5 NActive=    5 NUniq=    5 SFac= 1.00D+00 NAtFMM=   60 NAOKFM=F Big=F
   1 Symmetry operations used in ECPInt.
 ECPInt:  NShTT=     861 NPrTT=    5133 LenC2=     852 LenP2D=    3660.
 LDataN:  DoStor=T MaxTD1= 6 Len=  172
 Initial guess from the checkpoint file:  "ANI1ccx_1850_conf4_mol2.chk"
 B after Tr=     0.000003    0.000000   -0.000000
         Rot=    1.000000    0.000000   -0.000000    0.000000 Ang=   0.00 deg.
 >>>>>>>>>> Convergence criterion not met.
 SCF Done:  E(RHF) =  -279.623282872     A.U. after    2 cycles
            NFock=  1  Conv=0.16D-01     -V/T= 2.0064

 **********************************************************************

            Population analysis using the SCF Density.

 **********************************************************************

 Orbital symmetries:
       Occupied  (A) (A) (A) (A) (A) (A) (A) (A) (A) (A) (A) (A)
                 (A) (A) (A) (A)
       Virtual   (A) (A) (A) (A) (A) (A) (A) (A) (A) (A) (A) (A)
                 (A) (A) (A) (A) (A) (A) (A) (A) (A) (A) (A) (A)
                 (A) (A) (A) (A) (A) (A) (A) (A) (A) (A) (A) (A)
                 (A) (A) (A) (A) (A) (A) (A) (A) (A) (A) (A) (A)
                 (A) (A) (A) (A) (A) (A) (A) (A) (A) (A) (A) (A)
                 (A) (A) (A) (A) (A) (A) (A) (A) (A) (A) (A) (A)
                 (A) (A) (A) (A) (A) (A) (A) (A) (A) (A) (A) (A)
                 (A)
 The electronic state is 1-A.
 Alpha  occ. eigenvalues --  -20.72044 -20.71975 -20.64453 -15.65862  -1.77426
 Alpha  occ. eigenvalues --   -1.60860  -1.14690  -1.02707  -0.77220  -0.75520
 Alpha  occ. eigenvalues --   -0.72864  -0.69196  -0.64124  -0.61682  -0.44809
 Alpha  occ. eigenvalues --   -0.44552
 Alpha virt. eigenvalues --    0.03408   0.03442   0.04772   0.12296   0.12610
 Alpha virt. eigenvalues --    0.14802   0.16357   0.17415   0.18521   0.18788
 Alpha virt. eigenvalues --    0.22435   0.23398   0.23968   0.25128   0.28176
 Alpha virt. eigenvalues --    0.28244   0.31395   0.34515   0.37647   0.40169
 Alpha virt. eigenvalues --    0.40938   0.46631   0.54920   0.56709   0.58480
 Alpha virt. eigenvalues --    0.68627   0.74794   0.80892   0.82565   0.85040
 Alpha virt. eigenvalues --    0.86343   0.90960   0.96786   1.00478   1.02579
 Alpha virt. eigenvalues --    1.05576   1.06469   1.08464   1.11674   1.16746
 Alpha virt. eigenvalues --    1.17634   1.20147   1.21272   1.23606   1.27429
 Alpha virt. eigenvalues --    1.29395   1.31006   1.33385   1.34966   1.38548
 Alpha virt. eigenvalues --    1.41124   1.51703   1.66383   1.69276   1.70397
 Alpha virt. eigenvalues --    1.70640   1.75871   1.84108   1.86960   1.92607
 Alpha virt. eigenvalues --    1.99718   2.00341   2.17620   2.19970   2.33204
 Alpha virt. eigenvalues --    2.37458   2.43130   2.95851   3.20655   3.22691
 Alpha virt. eigenvalues --    3.43533   3.45464   3.49777   3.51798   3.66791
 Alpha virt. eigenvalues --    3.66989   3.69808   3.72274   3.73047   3.88605
 Alpha virt. eigenvalues --    3.92171   4.07562   4.13651   4.15286   4.35637
          Condensed to atoms (all electrons):
 Mulliken charges:
               1
     1  H    0.048813
     2  N    0.759010
     3  O   -0.814918
     4  O    0.021857
     5  O   -0.014762
 Sum of Mulliken charges =   0.00000
 Mulliken charges with hydrogens summed into heavy atoms:
               1
     2  N    0.807823
     3  O   -0.814918
     4  O    0.021857
     5  O   -0.014762
 Electronic spatial extent (au):  <R**2>=            571.8503
 Charge=              0.0000 electrons
 Dipole moment (field-independent basis, Debye):
    X=             -1.6280    Y=              0.8462    Z=              0.1322  Tot=              1.8396

 Test job not archived.
 1\1\GINC-SE036\SP\RHF\Aug-CC-pVDZ\H1N1O3\OHZDE\08-Apr-2025\0\\#t hf au
 g-cc-pvdz iop(5/13=1,5/36=2,99/5=2) pseudo=read geom=check guess=(read
 ,tcheck) scf=(maxcycle=1)\\title\\0,1\H,0,-3.27325,0.367847,-0.229447\
 N,0,-2.38608,-0.182252,-0.410097\O,0,-1.60906,0.0523271,0.486402\O,0,1
 .80308,0.573465,-0.120615\O,0,2.30295,-0.512303,0.0217289\\Version=ES6
 4L-G16RevC.01\State=1-A\HF=-279.6232829\RMSD=1.581e-02\Dipole=-0.64051
 22,0.332932,0.0520109\Quadrupole=4.7351036,-1.7358382,-2.9992654,-1.40
 02358,-0.4289251,-0.902002\PG=C01 [X(H1N1O3)]\\@


 THE ONLY TROUBLE WITH A SURE THING IS THE UNCERTAINTY.
     -- FROM A TEABAG (BELONGING TO W.H.?)
 Job cpu time:       0 days  0 hours  0 minutes  9.7 seconds.
 Elapsed time:       0 days  0 hours  0 minutes  1.5 seconds.
 File lengths (MBytes):  RWF=      6 Int=      0 D2E=      0 Chk=      2 Scr=      1
 Normal termination of Gaussian 16 at Tue Apr  8 21:10:30 2025.
