 Entering Gaussian System, Link 0=g16
 Input=ANI1ccx_569_conf1_mol1.gjf
 Output=ANI1ccx_569_conf1_mol1.log
 Initial command:
 /arc/software/Gaussian/g16.c01/l1.exe "/tmp/slurm/4839072/Gau-2718419.inp" -scrdir="/tmp/slurm/4839072/"
 Entering Link 1 = /arc/software/Gaussian/g16.c01/l1.exe PID=   2718436.
  
 Copyright (c) 1988-2019, Gaussian, Inc.  All Rights Reserved.
  
 This is part of the Gaussian(R) 16 program.  It is based on
 the Gaussian(R) 09 system (copyright 2009, Gaussian, Inc.),
 the Gaussian(R) 03 system (copyright 2003, Gaussian, Inc.),
 the Gaussian(R) 98 system (copyright 1998, Gaussian, Inc.),
 the Gaussian(R) 94 system (copyright 1995, Gaussian, Inc.),
 the Gaussian 92(TM) system (copyright 1992, Gaussian, Inc.),
 the Gaussian 90(TM) system (copyright 1990, Gaussian, Inc.),
 the Gaussian 88(TM) system (copyright 1988, Gaussian, Inc.),
 the Gaussian 86(TM) system (copyright 1986, Carnegie Mellon
 University), and the Gaussian 82(TM) system (copyright 1983,
 Carnegie Mellon University). Gaussian is a federally registered
 trademark of Gaussian, Inc.
  
 This software contains proprietary and confidential information,
 including trade secrets, belonging to Gaussian, Inc.
  
 This software is provided under written license and may be
 used, copied, transmitted, or stored only in accord with that
 written license.
  
 The following legend is applicable only to US Government
 contracts under FAR:
  
                    RESTRICTED RIGHTS LEGEND
  
 Use, reproduction and disclosure by the US Government is
 subject to restrictions as set forth in subparagraphs (a)
 and (c) of the Commercial Computer Software - Restricted
 Rights clause in FAR 52.227-19.
  
 Gaussian, Inc.
 340 Quinnipiac St., Bldg. 40, Wallingford CT 06492
  
  
 ---------------------------------------------------------------
 Warning -- This program may not be used in any manner that
 competes with the business of Gaussian, Inc. or will provide
 assistance to any competitor of Gaussian, Inc.  The licensee
 of this program is prohibited from giving any competitor of
 Gaussian, Inc. access to this program.  By using this program,
 the user acknowledges that Gaussian, Inc. is engaged in the
 business of creating and licensing software in the field of
 computational chemistry and represents and warrants to the
 licensee that it is not a competitor of Gaussian, Inc. and that
 it will not use this program in any manner prohibited above.
 ---------------------------------------------------------------
  

 Cite this work as:
 Gaussian 16, Revision C.01,
 M. J. Frisch, G. W. Trucks, H. B. Schlegel, G. E. Scuseria, 
 M. A. Robb, J. R. Cheeseman, G. Scalmani, V. Barone, 
 G. A. Petersson, H. Nakatsuji, X. Li, M. Caricato, A. V. Marenich, 
 J. Bloino, B. G. Janesko, R. Gomperts, B. Mennucci, H. P. Hratchian, 
 J. V. Ortiz, A. F. Izmaylov, J. L. Sonnenberg, D. Williams-Young, 
 F. Ding, F. Lipparini, F. Egidi, J. Goings, B. Peng, A. Petrone, 
 T. Henderson, D. Ranasinghe, V. G. Zakrzewski, J. Gao, N. Rega, 
 G. Zheng, W. Liang, M. Hada, M. Ehara, K. Toyota, R. Fukuda, 
 J. Hasegawa, M. Ishida, T. Nakajima, Y. Honda, O. Kitao, H. Nakai, 
 T. Vreven, K. Throssell, J. A. Montgomery, Jr., J. E. Peralta, 
 F. Ogliaro, M. J. Bearpark, J. J. Heyd, E. N. Brothers, K. N. Kudin, 
 V. N. Staroverov, T. A. Keith, R. Kobayashi, J. Normand, 
 K. Raghavachari, A. P. Rendell, J. C. Burant, S. S. Iyengar, 
 J. Tomasi, M. Cossi, J. M. Millam, M. Klene, C. Adamo, R. Cammi, 
 J. W. Ochterski, R. L. Martin, K. Morokuma, O. Farkas, 
 J. B. Foresman, and D. J. Fox, Gaussian, Inc., Wallingford CT, 2019.
 
 ******************************************
 Gaussian 16:  ES64L-G16RevC.01  3-Jul-2019
                 8-Apr-2025 
 ******************************************
 %nprocs=16
 Will use up to   16 processors via shared memory.
 %mem=30GB
 %chk=ANI1ccx_569_conf1_mol1.chk
 ----------------------------------------------------------------------
 #t hf aug-cc-pvdz symm=none int=(grid=ultrafine) guess=(read,tcheck) s
 table=(opt,rrhf)
 ----------------------------------------------------------------------
 -----
 title
 -----
 Symbolic Z-matrix:
 Charge =  0 Multiplicity = 1
 C                     2.19185  -0.25335   0.10287 
 C                    -2.35872  -0.49382  -0.12675 
 H                     2.0144    1.71551  -0.36295 
 H                     0.68409   1.0245    0.48041 
 H                     1.56374  -1.02223   0.584 
 H                    -1.34977   0.7843    1.02268 
 H                    -0.68374  -0.74342   0.94994 
 H                    -2.25926  -1.49317  -0.54402 
 H                    -3.4299    1.07629  -0.01586 
 N                     1.47039   0.8789   -0.13894 
 N                    -1.18963  -0.02287   0.44168 
 N                    -3.46415   0.10602  -0.33306 
 O                     3.34317  -0.44914  -0.21983 
 
                    Distance matrix (angstroms):
                    1          2          3          4          5
     1  C    0.000000
     2  C    4.562701   0.000000
     3  H    2.030982   4.905211   0.000000
     4  H    2.012161   3.454360   1.720027   0.000000
     5  H    1.103259   4.021204   2.931727   2.230163   0.000000
     6  H    3.803397   1.993176   3.755632   2.118565   3.456084
     7  H    3.037549   2.006770   3.879426   2.284059   2.294083
     8  H    4.665619   1.087522   5.347203   4.006420   4.013668
     9  H    5.778072   1.903933   5.492674   4.144134   5.449776
    10  N    1.364174   4.067750   1.022761   1.011474   2.036089
    11  N    3.406217   1.382633   3.732989   2.146928   2.932578
    12  N    5.684146   1.274498   5.710154   4.325876   5.233892
    13  O    1.211613   5.702825   2.543977   3.119725   2.034929
                    6          7          8          9         10
     6  H    0.000000
     7  H    1.668168   0.000000
     8  H    2.910078   2.297020   0.000000
     9  H    2.343241   3.433001   2.872537   0.000000
    10  N    3.051495   2.908239   4.438591   4.905808   0.000000
    11  N    1.007338   1.016581   2.068205   2.536989   2.868105
    12  N    2.601672   3.177784   2.013373   1.021377   4.998471
    13  O    5.008879   4.203684   5.708093   6.945719   2.297289
                   11         12         13
    11  N    0.000000
    12  N    2.406299   0.000000
    13  O    4.600605   6.830859   0.000000
 Symmetry turned off by external request.
 Rotational constants (GHZ):          13.9924402           0.9087994           0.8788011
   201 basis functions,   335 primitive gaussians,   213 cartesian basis functions
    24 alpha electrons       24 beta electrons
       nuclear repulsion energy       213.3813259578 Hartrees.
 NAtoms=   13 NActive=   13 NUniq=   13 SFac= 1.00D+00 NAtFMM=   60 NAOKFM=F Big=F
 ExpMin= 2.97D-02 ExpMax= 1.17D+04 ExpMxC= 4.01D+02 IAcc=3 IRadAn=         5 AccDes= 0.00D+00
 Harris functional with IExCor=  205 and IRadAn=       5 diagonalized for initial guess.
 HarFok:  IExCor=  205 AccDes= 0.00D+00 IRadAn=         5 IDoV= 1 UseB2=F ITyADJ=14
 ICtDFT=  3500011 ScaDFX=  1.000000  1.000000  1.000000  1.000000
 FoFCou: FMM=F IPFlag=           0 FMFlag=      100000 FMFlg1=           0
         NFxFlg=           0 DoJE=T BraDBF=F KetDBF=T FulRan=T
         wScrn=  0.000000 ICntrl=       500 IOpCl=  0 I1Cent=   200000004 NGrid=           0
         NMat0=    1 NMatS0=      1 NMatT0=    0 NMatD0=    1 NMtDS0=    0 NMtDT0=    0
 Symmetry not used in FoFCou.
 SCF Done:  E(RHF) =  -318.056157407     A.U. after   13 cycles
            NFock= 13  Conv=0.97D-08     -V/T= 2.0015

 **********************************************************************

            Population analysis using the SCF Density.

 **********************************************************************

 Alpha  occ. eigenvalues --  -20.54998 -15.61448 -15.60274 -15.55810 -11.37148
 Alpha  occ. eigenvalues --  -11.33693  -1.39850  -1.28566  -1.22596  -1.16820
 Alpha  occ. eigenvalues --   -0.85577  -0.85144  -0.75281  -0.73058  -0.70401
 Alpha  occ. eigenvalues --   -0.67403  -0.61606  -0.59154  -0.57766  -0.55124
 Alpha  occ. eigenvalues --   -0.44826  -0.44351  -0.42918  -0.39649
 Alpha virt. eigenvalues --    0.01881   0.03314   0.04579   0.04821   0.06556
 Alpha virt. eigenvalues --    0.07053   0.08406   0.09781   0.10567   0.12096
 Alpha virt. eigenvalues --    0.12797   0.13518   0.14033   0.15041   0.16180
 Alpha virt. eigenvalues --    0.16261   0.16554   0.18000   0.18629   0.20287
 Alpha virt. eigenvalues --    0.20481   0.21792   0.22300   0.22980   0.24322
 Alpha virt. eigenvalues --    0.25337   0.26472   0.28740   0.29285   0.30628
 Alpha virt. eigenvalues --    0.31578   0.31844   0.32010   0.33762   0.34142
 Alpha virt. eigenvalues --    0.34932   0.36272   0.37032   0.38598   0.42023
 Alpha virt. eigenvalues --    0.42331   0.42990   0.43131   0.44462   0.46862
 Alpha virt. eigenvalues --    0.48116   0.48990   0.50003   0.51343   0.51690
 Alpha virt. eigenvalues --    0.52823   0.55061   0.55749   0.57165   0.58305
 Alpha virt. eigenvalues --    0.58506   0.60900   0.62013   0.62435   0.63524
 Alpha virt. eigenvalues --    0.63601   0.64993   0.66041   0.67606   0.67917
 Alpha virt. eigenvalues --    0.69058   0.69544   0.72512   0.73974   0.74823
 Alpha virt. eigenvalues --    0.76627   0.79538   0.80115   0.81578   0.82589
 Alpha virt. eigenvalues --    0.84480   0.85172   0.87653   0.89368   0.89983
 Alpha virt. eigenvalues --    0.92228   0.93212   0.94545   0.95505   0.98184
 Alpha virt. eigenvalues --    0.99715   1.02831   1.03126   1.05043   1.05780
 Alpha virt. eigenvalues --    1.07431   1.11445   1.12931   1.13718   1.15889
 Alpha virt. eigenvalues --    1.24977   1.26968   1.28458   1.29894   1.33088
 Alpha virt. eigenvalues --    1.33973   1.40130   1.42070   1.45938   1.47123
 Alpha virt. eigenvalues --    1.49654   1.51993   1.52442   1.56734   1.57255
 Alpha virt. eigenvalues --    1.60738   1.63418   1.64420   1.66472   1.70523
 Alpha virt. eigenvalues --    1.79216   1.83496   1.84643   1.89233   1.90333
 Alpha virt. eigenvalues --    1.93276   1.96129   1.97637   1.98394   2.00808
 Alpha virt. eigenvalues --    2.03882   2.04341   2.06289   2.08223   2.11781
 Alpha virt. eigenvalues --    2.13441   2.18381   2.21225   2.24271   2.25483
 Alpha virt. eigenvalues --    2.28272   2.30468   2.33929   2.36181   2.37314
 Alpha virt. eigenvalues --    2.40261   2.40820   2.44085   2.46157   2.49557
 Alpha virt. eigenvalues --    2.50961   2.51549   2.55743   2.57687   2.61662
 Alpha virt. eigenvalues --    2.64955   2.68403   2.70840   2.73208   2.75438
 Alpha virt. eigenvalues --    2.78377   2.82071   2.87470   2.96900   2.98684
 Alpha virt. eigenvalues --    3.01771   3.07575   3.14609   3.15994   3.34592
 Alpha virt. eigenvalues --    3.37544   3.39596   3.44532   3.50290   3.57130
 Alpha virt. eigenvalues --    3.64577   3.65282   3.74155   3.78627   3.80561
 Alpha virt. eigenvalues --    4.00875   4.14749
          Condensed to atoms (all electrons):
 Mulliken charges:
               1
     1  C    1.050298
     2  C    0.905042
     3  H    0.008109
     4  H    0.075818
     5  H   -0.184516
     6  H   -0.058494
     7  H    0.073082
     8  H   -0.212526
     9  H   -0.026323
    10  N   -0.248415
    11  N   -0.254617
    12  N   -0.447881
    13  O   -0.679576
 Sum of Mulliken charges =  -0.00000
 Mulliken charges with hydrogens summed into heavy atoms:
               1
     1  C    0.865782
     2  C    0.692516
    10  N   -0.164488
    11  N   -0.240029
    12  N   -0.474204
    13  O   -0.679576
 Electronic spatial extent (au):  <R**2>=           1212.3604
 Charge=             -0.0000 electrons
 Dipole moment (field-independent basis, Debye):
    X=             -1.2202    Y=              1.7044    Z=              3.4424  Tot=              4.0304
 NROrb=    201 NOA=    24 NOB=    24 NVA=   177 NVB=   177

 **** Warning!!: The largest alpha MO coefficient is  0.16983232D+02

    12 initial guesses have been made.
 Iteration     1 Dimension    12 NMult     0 NNew     12
 Iteration     2 Dimension    24 NMult    12 NNew     12
 Iteration     3 Dimension    27 NMult    24 NNew      3
 Iteration     4 Dimension    30 NMult    27 NNew      3
 Iteration     5 Dimension    33 NMult    30 NNew      3
 New state      1 was old state      2
 Iteration     6 Dimension    36 NMult    33 NNew      3
 Iteration     7 Dimension    39 NMult    36 NNew      3
 Iteration     8 Dimension    42 NMult    39 NNew      3
 Iteration     9 Dimension    45 NMult    42 NNew      3
 Iteration    10 Dimension    48 NMult    45 NNew      3
 ***********************************************************************
 Stability analysis using <AA,BB:AA,BB> singles matrix:
 ***********************************************************************
 Ground to excited state transition densities written to RWF  633

 Eigenvectors of the stability matrix:
 
 Excited state symmetry could not be determined.
 Eigenvector   1:      Singlet-?Sym  Eigenvalue= 0.2318823  <S**2>=0.000
      21 -> 36         0.10661
      21 -> 37        -0.12512
      21 -> 40         0.11060
      21 -> 41        -0.21644
      21 -> 44         0.13308
      22 -> 32         0.10296
      22 -> 36         0.11938
      22 -> 37        -0.14418
      22 -> 40         0.12437
      22 -> 41        -0.24423
      22 -> 44         0.15035
      23 -> 36        -0.11707
      23 -> 41         0.19431
      23 -> 44        -0.10902
 The wavefunction is stable under the perturbations considered.
 The wavefunction is already stable.

 **********************************************************************

            Population analysis using the SCF Density.

 **********************************************************************

 Alpha  occ. eigenvalues --  -20.54998 -15.61448 -15.60274 -15.55810 -11.37148
 Alpha  occ. eigenvalues --  -11.33693  -1.39850  -1.28566  -1.22596  -1.16820
 Alpha  occ. eigenvalues --   -0.85577  -0.85144  -0.75281  -0.73058  -0.70401
 Alpha  occ. eigenvalues --   -0.67403  -0.61606  -0.59154  -0.57766  -0.55124
 Alpha  occ. eigenvalues --   -0.44826  -0.44351  -0.42918  -0.39649
 Alpha virt. eigenvalues --    0.01881   0.03314   0.04579   0.04821   0.06556
 Alpha virt. eigenvalues --    0.07053   0.08406   0.09781   0.10567   0.12096
 Alpha virt. eigenvalues --    0.12797   0.13518   0.14033   0.15041   0.16180
 Alpha virt. eigenvalues --    0.16261   0.16554   0.18000   0.18629   0.20287
 Alpha virt. eigenvalues --    0.20481   0.21792   0.22300   0.22980   0.24322
 Alpha virt. eigenvalues --    0.25337   0.26472   0.28740   0.29285   0.30628
 Alpha virt. eigenvalues --    0.31578   0.31844   0.32010   0.33762   0.34142
 Alpha virt. eigenvalues --    0.34932   0.36272   0.37032   0.38598   0.42023
 Alpha virt. eigenvalues --    0.42331   0.42990   0.43131   0.44462   0.46862
 Alpha virt. eigenvalues --    0.48116   0.48990   0.50003   0.51343   0.51690
 Alpha virt. eigenvalues --    0.52823   0.55061   0.55749   0.57165   0.58305
 Alpha virt. eigenvalues --    0.58506   0.60900   0.62013   0.62435   0.63524
 Alpha virt. eigenvalues --    0.63601   0.64993   0.66041   0.67606   0.67917
 Alpha virt. eigenvalues --    0.69058   0.69544   0.72512   0.73974   0.74823
 Alpha virt. eigenvalues --    0.76627   0.79538   0.80115   0.81578   0.82589
 Alpha virt. eigenvalues --    0.84480   0.85172   0.87653   0.89368   0.89983
 Alpha virt. eigenvalues --    0.92228   0.93212   0.94545   0.95505   0.98184
 Alpha virt. eigenvalues --    0.99715   1.02831   1.03126   1.05043   1.05780
 Alpha virt. eigenvalues --    1.07431   1.11445   1.12931   1.13718   1.15889
 Alpha virt. eigenvalues --    1.24977   1.26968   1.28458   1.29894   1.33088
 Alpha virt. eigenvalues --    1.33973   1.40130   1.42070   1.45938   1.47123
 Alpha virt. eigenvalues --    1.49654   1.51993   1.52442   1.56734   1.57255
 Alpha virt. eigenvalues --    1.60738   1.63418   1.64420   1.66472   1.70523
 Alpha virt. eigenvalues --    1.79216   1.83496   1.84643   1.89233   1.90333
 Alpha virt. eigenvalues --    1.93276   1.96129   1.97637   1.98394   2.00808
 Alpha virt. eigenvalues --    2.03882   2.04341   2.06289   2.08223   2.11781
 Alpha virt. eigenvalues --    2.13441   2.18381   2.21225   2.24271   2.25483
 Alpha virt. eigenvalues --    2.28272   2.30468   2.33929   2.36181   2.37314
 Alpha virt. eigenvalues --    2.40261   2.40820   2.44085   2.46157   2.49557
 Alpha virt. eigenvalues --    2.50961   2.51549   2.55743   2.57687   2.61662
 Alpha virt. eigenvalues --    2.64955   2.68403   2.70840   2.73208   2.75438
 Alpha virt. eigenvalues --    2.78377   2.82071   2.87470   2.96900   2.98684
 Alpha virt. eigenvalues --    3.01771   3.07575   3.14609   3.15994   3.34592
 Alpha virt. eigenvalues --    3.37544   3.39596   3.44532   3.50290   3.57130
 Alpha virt. eigenvalues --    3.64577   3.65282   3.74155   3.78627   3.80561
 Alpha virt. eigenvalues --    4.00875   4.14749
          Condensed to atoms (all electrons):
 Mulliken charges:
               1
     1  C    1.050298
     2  C    0.905042
     3  H    0.008109
     4  H    0.075818
     5  H   -0.184516
     6  H   -0.058494
     7  H    0.073082
     8  H   -0.212526
     9  H   -0.026323
    10  N   -0.248415
    11  N   -0.254617
    12  N   -0.447881
    13  O   -0.679576
 Sum of Mulliken charges =  -0.00000
 Mulliken charges with hydrogens summed into heavy atoms:
               1
     1  C    0.865782
     2  C    0.692516
    10  N   -0.164488
    11  N   -0.240029
    12  N   -0.474204
    13  O   -0.679576
 Electronic spatial extent (au):  <R**2>=           1212.3604
 Charge=             -0.0000 electrons
 Dipole moment (field-independent basis, Debye):
    X=             -1.2202    Y=              1.7044    Z=              3.4424  Tot=              4.0304
 Unable to Open any file for archive entry.
 1\1\GINC-SE455\Stability\RHF\Aug-CC-pVDZ\C2H7N3O1\OHZDE\08-Apr-2025\0\
 \#t hf aug-cc-pvdz symm=none int=(grid=ultrafine) guess=(read,tcheck) 
 stable=(opt,rrhf)\\title\\0,1\C,0,2.19185,-0.25335,0.102872\C,0,-2.358
 72,-0.493818,-0.126754\H,0,2.0144,1.71551,-0.362949\H,0,0.684085,1.024
 5,0.480414\H,0,1.56374,-1.02223,0.583997\H,0,-1.34977,0.784295,1.02268
 \H,0,-0.68374,-0.743415,0.94994\H,0,-2.25926,-1.49317,-0.544016\H,0,-3
 .4299,1.07629,-0.0158643\N,0,1.47039,0.878901,-0.138944\N,0,-1.18963,-
 0.0228735,0.441677\N,0,-3.46415,0.10602,-0.333062\O,0,3.34317,-0.44913
 9,-0.219827\\Version=ES64L-G16RevC.01\HF=-318.0561574\RMSD=9.665e-09\D
 ipole=-0.4800568,0.6705519,1.3543501\Quadrupole=-17.7112449,11.4764672
 ,6.2347777,1.9711847,-1.5358956,0.4149808\PG=Unknown\\@
 The archive entry for this job was punched.


 IF YOU'RE NOT PART OF THE SOLUTION,
 THEN YOU'RE PART OF THE PRECIPITATE.
 Job cpu time:       0 days  0 hours  3 minutes 53.9 seconds.
 Elapsed time:       0 days  0 hours  0 minutes 17.6 seconds.
 File lengths (MBytes):  RWF=    200 Int=      0 D2E=      0 Chk=      6 Scr=      1
 Normal termination of Gaussian 16 at Tue Apr  8 21:47:00 2025.
 Initial command:
 /arc/software/Gaussian/g16.c01/l1.exe "/tmp/slurm/4839072/Gau-2718419.inp" -scrdir="/tmp/slurm/4839072/"
 Entering Link 1 = /arc/software/Gaussian/g16.c01/l1.exe PID=   2719007.
  
 Copyright (c) 1988-2019, Gaussian, Inc.  All Rights Reserved.
  
 This is part of the Gaussian(R) 16 program.  It is based on
 the Gaussian(R) 09 system (copyright 2009, Gaussian, Inc.),
 the Gaussian(R) 03 system (copyright 2003, Gaussian, Inc.),
 the Gaussian(R) 98 system (copyright 1998, Gaussian, Inc.),
 the Gaussian(R) 94 system (copyright 1995, Gaussian, Inc.),
 the Gaussian 92(TM) system (copyright 1992, Gaussian, Inc.),
 the Gaussian 90(TM) system (copyright 1990, Gaussian, Inc.),
 the Gaussian 88(TM) system (copyright 1988, Gaussian, Inc.),
 the Gaussian 86(TM) system (copyright 1986, Carnegie Mellon
 University), and the Gaussian 82(TM) system (copyright 1983,
 Carnegie Mellon University). Gaussian is a federally registered
 trademark of Gaussian, Inc.
  
 This software contains proprietary and confidential information,
 including trade secrets, belonging to Gaussian, Inc.
  
 This software is provided under written license and may be
 used, copied, transmitted, or stored only in accord with that
 written license.
  
 The following legend is applicable only to US Government
 contracts under FAR:
  
                    RESTRICTED RIGHTS LEGEND
  
 Use, reproduction and disclosure by the US Government is
 subject to restrictions as set forth in subparagraphs (a)
 and (c) of the Commercial Computer Software - Restricted
 Rights clause in FAR 52.227-19.
  
 Gaussian, Inc.
 340 Quinnipiac St., Bldg. 40, Wallingford CT 06492
  
  
 ---------------------------------------------------------------
 Warning -- This program may not be used in any manner that
 competes with the business of Gaussian, Inc. or will provide
 assistance to any competitor of Gaussian, Inc.  The licensee
 of this program is prohibited from giving any competitor of
 Gaussian, Inc. access to this program.  By using this program,
 the user acknowledges that Gaussian, Inc. is engaged in the
 business of creating and licensing software in the field of
 computational chemistry and represents and warrants to the
 licensee that it is not a competitor of Gaussian, Inc. and that
 it will not use this program in any manner prohibited above.
 ---------------------------------------------------------------
  

 Cite this work as:
 Gaussian 16, Revision C.01,
 M. J. Frisch, G. W. Trucks, H. B. Schlegel, G. E. Scuseria, 
 M. A. Robb, J. R. Cheeseman, G. Scalmani, V. Barone, 
 G. A. Petersson, H. Nakatsuji, X. Li, M. Caricato, A. V. Marenich, 
 J. Bloino, B. G. Janesko, R. Gomperts, B. Mennucci, H. P. Hratchian, 
 J. V. Ortiz, A. F. Izmaylov, J. L. Sonnenberg, D. Williams-Young, 
 F. Ding, F. Lipparini, F. Egidi, J. Goings, B. Peng, A. Petrone, 
 T. Henderson, D. Ranasinghe, V. G. Zakrzewski, J. Gao, N. Rega, 
 G. Zheng, W. Liang, M. Hada, M. Ehara, K. Toyota, R. Fukuda, 
 J. Hasegawa, M. Ishida, T. Nakajima, Y. Honda, O. Kitao, H. Nakai, 
 T. Vreven, K. Throssell, J. A. Montgomery, Jr., J. E. Peralta, 
 F. Ogliaro, M. J. Bearpark, J. J. Heyd, E. N. Brothers, K. N. Kudin, 
 V. N. Staroverov, T. A. Keith, R. Kobayashi, J. Normand, 
 K. Raghavachari, A. P. Rendell, J. C. Burant, S. S. Iyengar, 
 J. Tomasi, M. Cossi, J. M. Millam, M. Klene, C. Adamo, R. Cammi, 
 J. W. Ochterski, R. L. Martin, K. Morokuma, O. Farkas, 
 J. B. Foresman, and D. J. Fox, Gaussian, Inc., Wallingford CT, 2019.
 
 ******************************************
 Gaussian 16:  ES64L-G16RevC.01  3-Jul-2019
                 8-Apr-2025 
 ******************************************
 %nprocs=16
 Will use up to   16 processors via shared memory.
 %mem=30GB
 %chk=ANI1ccx_569_conf1_mol1.chk
 ----------------------------------------------------------------------
 #t hf aug-cc-pvdz iop(5/13=1,5/36=2,99/5=2) pseudo=read geom=check gue
 ss=(read,tcheck) scf=(maxcycle=1)
 ----------------------------------------------------------------------
 -----
 title
 -----
 Structure from the checkpoint file:  "ANI1ccx_569_conf1_mol1.chk"
 Charge =  0 Multiplicity = 1
 Z-Matrix found in chk file.
 C,0,2.19185,-0.25335,0.102872
 C,0,-2.35872,-0.493818,-0.126754
 H,0,2.0144,1.71551,-0.362949
 H,0,0.684085,1.0245,0.480414
 H,0,1.56374,-1.02223,0.583997
 H,0,-1.34977,0.784295,1.02268
 H,0,-0.68374,-0.743415,0.94994
 H,0,-2.25926,-1.49317,-0.544016
 H,0,-3.4299,1.07629,-0.0158643
 N,0,1.47039,0.878901,-0.138944
 N,0,-1.18963,-0.0228735,0.441677
 N,0,-3.46415,0.10602,-0.333062
 O,0,3.34317,-0.449139,-0.219827
 Recover connectivity data from disk.
                    Distance matrix (angstroms):
                    1          2          3          4          5
     1  C    0.000000
     2  C    4.562701   0.000000
     3  H    2.030982   4.905211   0.000000
     4  H    2.012161   3.454360   1.720027   0.000000
     5  H    1.103259   4.021204   2.931727   2.230163   0.000000
     6  H    3.803397   1.993176   3.755632   2.118565   3.456084
     7  H    3.037549   2.006770   3.879426   2.284059   2.294083
     8  H    4.665619   1.087522   5.347203   4.006420   4.013668
     9  H    5.778072   1.903933   5.492674   4.144134   5.449776
    10  N    1.364174   4.067750   1.022761   1.011474   2.036089
    11  N    3.406217   1.382633   3.732989   2.146928   2.932578
    12  N    5.684146   1.274498   5.710154   4.325876   5.233892
    13  O    1.211613   5.702825   2.543977   3.119725   2.034929
                    6          7          8          9         10
     6  H    0.000000
     7  H    1.668168   0.000000
     8  H    2.910078   2.297020   0.000000
     9  H    2.343241   3.433001   2.872537   0.000000
    10  N    3.051495   2.908239   4.438591   4.905808   0.000000
    11  N    1.007338   1.016581   2.068205   2.536989   2.868105
    12  N    2.601672   3.177784   2.013373   1.021377   4.998471
    13  O    5.008879   4.203684   5.708093   6.945719   2.297289
                   11         12         13
    11  N    0.000000
    12  N    2.406299   0.000000
    13  O    4.600605   6.830859   0.000000
 Framework group  C1[X(C2H7N3O)]
 Deg. of freedom    33
                         Standard orientation:                         
 ---------------------------------------------------------------------
 Center     Atomic      Atomic             Coordinates (Angstroms)
 Number     Number       Type             X           Y           Z
 ---------------------------------------------------------------------
      1          6           0        2.191851   -0.253350    0.102872
      2          6           0       -2.358719   -0.493818   -0.126754
      3          1           0        2.014401    1.715510   -0.362949
      4          1           0        0.684086    1.024500    0.480414
      5          1           0        1.563741   -1.022230    0.583997
      6          1           0       -1.349769    0.784295    1.022680
      7          1           0       -0.683739   -0.743415    0.949940
      8          1           0       -2.259259   -1.493170   -0.544016
      9          1           0       -3.429899    1.076290   -0.015864
     10          7           0        1.470391    0.878901   -0.138944
     11          7           0       -1.189629   -0.022873    0.441677
     12          7           0       -3.464149    0.106020   -0.333062
     13          8           0        3.343171   -0.449139   -0.219827
 ---------------------------------------------------------------------
 Rotational constants (GHZ):          13.9924402           0.9087994           0.8788011
 ======================================================================================================
                                       Pseudopotential Parameters
 ======================================================================================================
  Center     Atomic      Valence      Angular      Power
  Number     Number     Electrons     Momentum     of R      Exponent        Coefficient   SO-Coeffient
 ======================================================================================================
    1          6            6
                                      G and up 
                                                     0        0.0000010       -0.00007288    0.00000000
                                                     2        0.1200000        0.10466671    0.00000000
                                                     2        0.1400000       -0.65716157    0.00000000
                                                     2        0.1600000        1.18890794    0.00000000
                                                     2        0.2000000       -1.25772850    0.00000000
                                                     2        0.2600000        1.01188378    0.00000000
                                                     2        0.4000000       -1.09380874    0.00000000
                                                     2        0.5000000        0.96944888    0.00000000
                                                     2        1.0000000       -0.79256938    0.00000000
                                                     2        3.0000000        1.06443276    0.00000000
                                      S - G
                                                     0        0.0000010       -0.00635295    0.00000000
                                                     2        0.1200000        0.16918955    0.00000000
                                                     2        0.1600000       -0.38862576    0.00000000
                                                     2        0.2800000        0.25638263    0.00000000
                                                     2        0.5000000        0.29628419    0.00000000
                                                     2        0.9000000       -0.28791512    0.00000000
                                      P - G
                                                     0        0.0000010       -0.04756931    0.00000000
                                                     2        0.1200000        0.28430375    0.00000000
                                                     2        0.1600000       -0.69640032    0.00000000
                                                     2        0.2600000        1.13005668    0.00000000
                                                     2        0.4000000       -1.31433324    0.00000000
                                                     2        0.7000000        0.91526469    0.00000000
                                      D - G
                                                     0        0.0000010       -0.11496411    0.00000000
                                                     2        0.1200000        0.16620776    0.00000000
                                                     2        0.1800000       -0.30959819    0.00000000
                                                     2        0.3000000        0.16621458    0.00000000
                                                     2        0.6000000        0.27350556    0.00000000
                                      F - G
                                                     0        0.0000010        0.12037550    0.00000000
                                                     2        0.1200000       -0.48737077    0.00000000
                                                     2        0.1400000        0.58315350    0.00000000
                                                     2        0.3000000        0.00005188    0.00000000
                                                     2        0.5000000       -1.16063549    0.00000000
                                                     2        0.8000000        2.09053308    0.00000000
    2          6            6
                                      G and up 
                                                     0        0.0000010       -0.00007288    0.00000000
                                                     2        0.1200000        0.10466671    0.00000000
                                                     2        0.1400000       -0.65716157    0.00000000
                                                     2        0.1600000        1.18890794    0.00000000
                                                     2        0.2000000       -1.25772850    0.00000000
                                                     2        0.2600000        1.01188378    0.00000000
                                                     2        0.4000000       -1.09380874    0.00000000
                                                     2        0.5000000        0.96944888    0.00000000
                                                     2        1.0000000       -0.79256938    0.00000000
                                                     2        3.0000000        1.06443276    0.00000000
                                      S - G
                                                     0        0.0000010       -0.00635295    0.00000000
                                                     2        0.1200000        0.16918955    0.00000000
                                                     2        0.1600000       -0.38862576    0.00000000
                                                     2        0.2800000        0.25638263    0.00000000
                                                     2        0.5000000        0.29628419    0.00000000
                                                     2        0.9000000       -0.28791512    0.00000000
                                      P - G
                                                     0        0.0000010       -0.04756931    0.00000000
                                                     2        0.1200000        0.28430375    0.00000000
                                                     2        0.1600000       -0.69640032    0.00000000
                                                     2        0.2600000        1.13005668    0.00000000
                                                     2        0.4000000       -1.31433324    0.00000000
                                                     2        0.7000000        0.91526469    0.00000000
                                      D - G
                                                     0        0.0000010       -0.11496411    0.00000000
                                                     2        0.1200000        0.16620776    0.00000000
                                                     2        0.1800000       -0.30959819    0.00000000
                                                     2        0.3000000        0.16621458    0.00000000
                                                     2        0.6000000        0.27350556    0.00000000
                                      F - G
                                                     0        0.0000010        0.12037550    0.00000000
                                                     2        0.1200000       -0.48737077    0.00000000
                                                     2        0.1400000        0.58315350    0.00000000
                                                     2        0.3000000        0.00005188    0.00000000
                                                     2        0.5000000       -1.16063549    0.00000000
                                                     2        0.8000000        2.09053308    0.00000000
    3          1            1
                                      F and up 
                                                     0        0.0000010       -0.00007675    0.00000000
                                                     2        0.1200000        0.05352699    0.00000000
                                                     2        0.1400000       -0.25123645    0.00000000
                                                     2        0.1600000        0.32188106    0.00000000
                                                     2        0.2200000       -0.25206857    0.00000000
                                                     2        0.3000000        0.19290477    0.00000000
                                                     2        0.5000000       -0.10129770    0.00000000
                                                     2        0.9000000        0.00314995    0.00000000
                                                     2        1.5000000        0.18401192    0.00000000
                                      S - F
                                                     0        0.0000010        0.08065976    0.00000000
                                                     2        0.1200000       -0.09231673    0.00000000
                                                     2        0.1600000       -0.03278082    0.00000000
                                                     2        0.2800000        0.38423402    0.00000000
                                                     2        0.6000000       -1.09357590    0.00000000
                                                     2        1.1000000        1.53099489    0.00000000
                                                     2        3.0000000       -2.63300202    0.00000000
                                      P - F
                                                     0        0.0000010       -0.11638665    0.00000000
                                                     2        0.1200000        0.35468655    0.00000000
                                                     2        0.1600000       -0.59160923    0.00000000
                                                     2        0.3000000        0.49390547    0.00000000
                                                     2        0.6000000       -0.37949835    0.00000000
                                                     2        1.6000000        0.89304688    0.00000000
                                      D - F
                                                     0        0.0000010        0.05443663    0.00000000
                                                     2        0.1200000       -0.29679479    0.00000000
                                                     2        0.1400000        0.36849872    0.00000000
                                                     2        0.2400000        0.02793449    0.00000000
                                                     2        0.4000000       -0.46312857    0.00000000
                                                     2        0.7000000        0.97587598    0.00000000
                                                     2        1.5000000       -2.43431102    0.00000000
    4          1            1
                                      F and up 
                                                     0        0.0000010       -0.00007675    0.00000000
                                                     2        0.1200000        0.05352699    0.00000000
                                                     2        0.1400000       -0.25123645    0.00000000
                                                     2        0.1600000        0.32188106    0.00000000
                                                     2        0.2200000       -0.25206857    0.00000000
                                                     2        0.3000000        0.19290477    0.00000000
                                                     2        0.5000000       -0.10129770    0.00000000
                                                     2        0.9000000        0.00314995    0.00000000
                                                     2        1.5000000        0.18401192    0.00000000
                                      S - F
                                                     0        0.0000010        0.08065976    0.00000000
                                                     2        0.1200000       -0.09231673    0.00000000
                                                     2        0.1600000       -0.03278082    0.00000000
                                                     2        0.2800000        0.38423402    0.00000000
                                                     2        0.6000000       -1.09357590    0.00000000
                                                     2        1.1000000        1.53099489    0.00000000
                                                     2        3.0000000       -2.63300202    0.00000000
                                      P - F
                                                     0        0.0000010       -0.11638665    0.00000000
                                                     2        0.1200000        0.35468655    0.00000000
                                                     2        0.1600000       -0.59160923    0.00000000
                                                     2        0.3000000        0.49390547    0.00000000
                                                     2        0.6000000       -0.37949835    0.00000000
                                                     2        1.6000000        0.89304688    0.00000000
                                      D - F
                                                     0        0.0000010        0.05443663    0.00000000
                                                     2        0.1200000       -0.29679479    0.00000000
                                                     2        0.1400000        0.36849872    0.00000000
                                                     2        0.2400000        0.02793449    0.00000000
                                                     2        0.4000000       -0.46312857    0.00000000
                                                     2        0.7000000        0.97587598    0.00000000
                                                     2        1.5000000       -2.43431102    0.00000000
    5          1            1
                                      F and up 
                                                     0        0.0000010       -0.00007675    0.00000000
                                                     2        0.1200000        0.05352699    0.00000000
                                                     2        0.1400000       -0.25123645    0.00000000
                                                     2        0.1600000        0.32188106    0.00000000
                                                     2        0.2200000       -0.25206857    0.00000000
                                                     2        0.3000000        0.19290477    0.00000000
                                                     2        0.5000000       -0.10129770    0.00000000
                                                     2        0.9000000        0.00314995    0.00000000
                                                     2        1.5000000        0.18401192    0.00000000
                                      S - F
                                                     0        0.0000010        0.08065976    0.00000000
                                                     2        0.1200000       -0.09231673    0.00000000
                                                     2        0.1600000       -0.03278082    0.00000000
                                                     2        0.2800000        0.38423402    0.00000000
                                                     2        0.6000000       -1.09357590    0.00000000
                                                     2        1.1000000        1.53099489    0.00000000
                                                     2        3.0000000       -2.63300202    0.00000000
                                      P - F
                                                     0        0.0000010       -0.11638665    0.00000000
                                                     2        0.1200000        0.35468655    0.00000000
                                                     2        0.1600000       -0.59160923    0.00000000
                                                     2        0.3000000        0.49390547    0.00000000
                                                     2        0.6000000       -0.37949835    0.00000000
                                                     2        1.6000000        0.89304688    0.00000000
                                      D - F
                                                     0        0.0000010        0.05443663    0.00000000
                                                     2        0.1200000       -0.29679479    0.00000000
                                                     2        0.1400000        0.36849872    0.00000000
                                                     2        0.2400000        0.02793449    0.00000000
                                                     2        0.4000000       -0.46312857    0.00000000
                                                     2        0.7000000        0.97587598    0.00000000
                                                     2        1.5000000       -2.43431102    0.00000000
    6          1            1
                                      F and up 
                                                     0        0.0000010       -0.00007675    0.00000000
                                                     2        0.1200000        0.05352699    0.00000000
                                                     2        0.1400000       -0.25123645    0.00000000
                                                     2        0.1600000        0.32188106    0.00000000
                                                     2        0.2200000       -0.25206857    0.00000000
                                                     2        0.3000000        0.19290477    0.00000000
                                                     2        0.5000000       -0.10129770    0.00000000
                                                     2        0.9000000        0.00314995    0.00000000
                                                     2        1.5000000        0.18401192    0.00000000
                                      S - F
                                                     0        0.0000010        0.08065976    0.00000000
                                                     2        0.1200000       -0.09231673    0.00000000
                                                     2        0.1600000       -0.03278082    0.00000000
                                                     2        0.2800000        0.38423402    0.00000000
                                                     2        0.6000000       -1.09357590    0.00000000
                                                     2        1.1000000        1.53099489    0.00000000
                                                     2        3.0000000       -2.63300202    0.00000000
                                      P - F
                                                     0        0.0000010       -0.11638665    0.00000000
                                                     2        0.1200000        0.35468655    0.00000000
                                                     2        0.1600000       -0.59160923    0.00000000
                                                     2        0.3000000        0.49390547    0.00000000
                                                     2        0.6000000       -0.37949835    0.00000000
                                                     2        1.6000000        0.89304688    0.00000000
                                      D - F
                                                     0        0.0000010        0.05443663    0.00000000
                                                     2        0.1200000       -0.29679479    0.00000000
                                                     2        0.1400000        0.36849872    0.00000000
                                                     2        0.2400000        0.02793449    0.00000000
                                                     2        0.4000000       -0.46312857    0.00000000
                                                     2        0.7000000        0.97587598    0.00000000
                                                     2        1.5000000       -2.43431102    0.00000000
    7          1            1
                                      F and up 
                                                     0        0.0000010       -0.00007675    0.00000000
                                                     2        0.1200000        0.05352699    0.00000000
                                                     2        0.1400000       -0.25123645    0.00000000
                                                     2        0.1600000        0.32188106    0.00000000
                                                     2        0.2200000       -0.25206857    0.00000000
                                                     2        0.3000000        0.19290477    0.00000000
                                                     2        0.5000000       -0.10129770    0.00000000
                                                     2        0.9000000        0.00314995    0.00000000
                                                     2        1.5000000        0.18401192    0.00000000
                                      S - F
                                                     0        0.0000010        0.08065976    0.00000000
                                                     2        0.1200000       -0.09231673    0.00000000
                                                     2        0.1600000       -0.03278082    0.00000000
                                                     2        0.2800000        0.38423402    0.00000000
                                                     2        0.6000000       -1.09357590    0.00000000
                                                     2        1.1000000        1.53099489    0.00000000
                                                     2        3.0000000       -2.63300202    0.00000000
                                      P - F
                                                     0        0.0000010       -0.11638665    0.00000000
                                                     2        0.1200000        0.35468655    0.00000000
                                                     2        0.1600000       -0.59160923    0.00000000
                                                     2        0.3000000        0.49390547    0.00000000
                                                     2        0.6000000       -0.37949835    0.00000000
                                                     2        1.6000000        0.89304688    0.00000000
                                      D - F
                                                     0        0.0000010        0.05443663    0.00000000
                                                     2        0.1200000       -0.29679479    0.00000000
                                                     2        0.1400000        0.36849872    0.00000000
                                                     2        0.2400000        0.02793449    0.00000000
                                                     2        0.4000000       -0.46312857    0.00000000
                                                     2        0.7000000        0.97587598    0.00000000
                                                     2        1.5000000       -2.43431102    0.00000000
    8          1            1
                                      F and up 
                                                     0        0.0000010       -0.00007675    0.00000000
                                                     2        0.1200000        0.05352699    0.00000000
                                                     2        0.1400000       -0.25123645    0.00000000
                                                     2        0.1600000        0.32188106    0.00000000
                                                     2        0.2200000       -0.25206857    0.00000000
                                                     2        0.3000000        0.19290477    0.00000000
                                                     2        0.5000000       -0.10129770    0.00000000
                                                     2        0.9000000        0.00314995    0.00000000
                                                     2        1.5000000        0.18401192    0.00000000
                                      S - F
                                                     0        0.0000010        0.08065976    0.00000000
                                                     2        0.1200000       -0.09231673    0.00000000
                                                     2        0.1600000       -0.03278082    0.00000000
                                                     2        0.2800000        0.38423402    0.00000000
                                                     2        0.6000000       -1.09357590    0.00000000
                                                     2        1.1000000        1.53099489    0.00000000
                                                     2        3.0000000       -2.63300202    0.00000000
                                      P - F
                                                     0        0.0000010       -0.11638665    0.00000000
                                                     2        0.1200000        0.35468655    0.00000000
                                                     2        0.1600000       -0.59160923    0.00000000
                                                     2        0.3000000        0.49390547    0.00000000
                                                     2        0.6000000       -0.37949835    0.00000000
                                                     2        1.6000000        0.89304688    0.00000000
                                      D - F
                                                     0        0.0000010        0.05443663    0.00000000
                                                     2        0.1200000       -0.29679479    0.00000000
                                                     2        0.1400000        0.36849872    0.00000000
                                                     2        0.2400000        0.02793449    0.00000000
                                                     2        0.4000000       -0.46312857    0.00000000
                                                     2        0.7000000        0.97587598    0.00000000
                                                     2        1.5000000       -2.43431102    0.00000000
    9          1            1
                                      F and up 
                                                     0        0.0000010       -0.00007675    0.00000000
                                                     2        0.1200000        0.05352699    0.00000000
                                                     2        0.1400000       -0.25123645    0.00000000
                                                     2        0.1600000        0.32188106    0.00000000
                                                     2        0.2200000       -0.25206857    0.00000000
                                                     2        0.3000000        0.19290477    0.00000000
                                                     2        0.5000000       -0.10129770    0.00000000
                                                     2        0.9000000        0.00314995    0.00000000
                                                     2        1.5000000        0.18401192    0.00000000
                                      S - F
                                                     0        0.0000010        0.08065976    0.00000000
                                                     2        0.1200000       -0.09231673    0.00000000
                                                     2        0.1600000       -0.03278082    0.00000000
                                                     2        0.2800000        0.38423402    0.00000000
                                                     2        0.6000000       -1.09357590    0.00000000
                                                     2        1.1000000        1.53099489    0.00000000
                                                     2        3.0000000       -2.63300202    0.00000000
                                      P - F
                                                     0        0.0000010       -0.11638665    0.00000000
                                                     2        0.1200000        0.35468655    0.00000000
                                                     2        0.1600000       -0.59160923    0.00000000
                                                     2        0.3000000        0.49390547    0.00000000
                                                     2        0.6000000       -0.37949835    0.00000000
                                                     2        1.6000000        0.89304688    0.00000000
                                      D - F
                                                     0        0.0000010        0.05443663    0.00000000
                                                     2        0.1200000       -0.29679479    0.00000000
                                                     2        0.1400000        0.36849872    0.00000000
                                                     2        0.2400000        0.02793449    0.00000000
                                                     2        0.4000000       -0.46312857    0.00000000
                                                     2        0.7000000        0.97587598    0.00000000
                                                     2        1.5000000       -2.43431102    0.00000000
   10          7            7
                                      G and up 
                                                     0        0.0000010       -0.00039818    0.00000000
                                                     2        0.1200000       -0.37616123    0.00000000
                                                     2        0.1400000        2.13837358    0.00000000
                                                     2        0.1600000       -3.36562035    0.00000000
                                                     2        0.2000000        2.53463289    0.00000000
                                                     2        0.3000000       -1.98118833    0.00000000
                                                     2        0.5000000        4.06642919    0.00000000
                                                     2        0.7000000       -6.15327959    0.00000000
                                                     2        1.2000000       10.22492851    0.00000000
                                                     2        2.0000000      -14.94707511    0.00000000
                                      S - G
                                                     0        0.0000010        0.02721443    0.00000000
                                                     2        0.1200000       -0.60186009    0.00000000
                                                     2        0.1600000        1.10088134    0.00000000
                                                     2        0.2600000       -0.59857981    0.00000000
                                                     2        0.6000000        0.21288222    0.00000000
                                                     2        3.0000000        5.09059205    0.00000000
                                      P - G
                                                     0        0.0000010        0.40558062    0.00000000
                                                     2        0.1200000        0.81809854    0.00000000
                                                     2        0.1600000       -2.44952728    0.00000000
                                                     2        0.2800000        4.16638749    0.00000000
                                                     2        0.5000000       -6.02944147    0.00000000
                                                     2        1.1000000        5.78262914    0.00000000
                                      D - G
                                                     0        0.0000010       -0.62770267    0.00000000
                                                     2        0.1600000        0.91438653    0.00000000
                                                     2        0.2600000       -2.00568466    0.00000000
                                                     2        0.5000000        3.30798839    0.00000000
                                                     2        1.1000000       -3.91526108    0.00000000
                                      F - G
                                                     0        0.0000010        0.29726344    0.00000000
                                                     2        0.1200000       -0.41591527    0.00000000
                                                     2        0.1600000        0.51444439    0.00000000
                                                     2        0.4000000       -0.69401726    0.00000000
                                                     2        0.7000000        0.51478123    0.00000000
   11          7            7
                                      G and up 
                                                     0        0.0000010       -0.00039818    0.00000000
                                                     2        0.1200000       -0.37616123    0.00000000
                                                     2        0.1400000        2.13837358    0.00000000
                                                     2        0.1600000       -3.36562035    0.00000000
                                                     2        0.2000000        2.53463289    0.00000000
                                                     2        0.3000000       -1.98118833    0.00000000
                                                     2        0.5000000        4.06642919    0.00000000
                                                     2        0.7000000       -6.15327959    0.00000000
                                                     2        1.2000000       10.22492851    0.00000000
                                                     2        2.0000000      -14.94707511    0.00000000
                                      S - G
                                                     0        0.0000010        0.02721443    0.00000000
                                                     2        0.1200000       -0.60186009    0.00000000
                                                     2        0.1600000        1.10088134    0.00000000
                                                     2        0.2600000       -0.59857981    0.00000000
                                                     2        0.6000000        0.21288222    0.00000000
                                                     2        3.0000000        5.09059205    0.00000000
                                      P - G
                                                     0        0.0000010        0.40558062    0.00000000
                                                     2        0.1200000        0.81809854    0.00000000
                                                     2        0.1600000       -2.44952728    0.00000000
                                                     2        0.2800000        4.16638749    0.00000000
                                                     2        0.5000000       -6.02944147    0.00000000
                                                     2        1.1000000        5.78262914    0.00000000
                                      D - G
                                                     0        0.0000010       -0.62770267    0.00000000
                                                     2        0.1600000        0.91438653    0.00000000
                                                     2        0.2600000       -2.00568466    0.00000000
                                                     2        0.5000000        3.30798839    0.00000000
                                                     2        1.1000000       -3.91526108    0.00000000
                                      F - G
                                                     0        0.0000010        0.29726344    0.00000000
                                                     2        0.1200000       -0.41591527    0.00000000
                                                     2        0.1600000        0.51444439    0.00000000
                                                     2        0.4000000       -0.69401726    0.00000000
                                                     2        0.7000000        0.51478123    0.00000000
   12          7            7
                                      G and up 
                                                     0        0.0000010       -0.00039818    0.00000000
                                                     2        0.1200000       -0.37616123    0.00000000
                                                     2        0.1400000        2.13837358    0.00000000
                                                     2        0.1600000       -3.36562035    0.00000000
                                                     2        0.2000000        2.53463289    0.00000000
                                                     2        0.3000000       -1.98118833    0.00000000
                                                     2        0.5000000        4.06642919    0.00000000
                                                     2        0.7000000       -6.15327959    0.00000000
                                                     2        1.2000000       10.22492851    0.00000000
                                                     2        2.0000000      -14.94707511    0.00000000
                                      S - G
                                                     0        0.0000010        0.02721443    0.00000000
                                                     2        0.1200000       -0.60186009    0.00000000
                                                     2        0.1600000        1.10088134    0.00000000
                                                     2        0.2600000       -0.59857981    0.00000000
                                                     2        0.6000000        0.21288222    0.00000000
                                                     2        3.0000000        5.09059205    0.00000000
                                      P - G
                                                     0        0.0000010        0.40558062    0.00000000
                                                     2        0.1200000        0.81809854    0.00000000
                                                     2        0.1600000       -2.44952728    0.00000000
                                                     2        0.2800000        4.16638749    0.00000000
                                                     2        0.5000000       -6.02944147    0.00000000
                                                     2        1.1000000        5.78262914    0.00000000
                                      D - G
                                                     0        0.0000010       -0.62770267    0.00000000
                                                     2        0.1600000        0.91438653    0.00000000
                                                     2        0.2600000       -2.00568466    0.00000000
                                                     2        0.5000000        3.30798839    0.00000000
                                                     2        1.1000000       -3.91526108    0.00000000
                                      F - G
                                                     0        0.0000010        0.29726344    0.00000000
                                                     2        0.1200000       -0.41591527    0.00000000
                                                     2        0.1600000        0.51444439    0.00000000
                                                     2        0.4000000       -0.69401726    0.00000000
                                                     2        0.7000000        0.51478123    0.00000000
   13          8            8
                                      G and up 
                                                     0        0.0000010        0.00049668    0.00000000
                                                     2        0.1200000       -0.01803391    0.00000000
                                                     2        0.1400000        0.04014195    0.00000000
                                                     2        0.2000000       -0.02692147    0.00000000
                                                     2        0.2800000       -0.04241843    0.00000000
                                                     2        0.4000000        0.15412145    0.00000000
                                                     2        0.7000000       -0.40587006    0.00000000
                                                     2        1.1000000        1.75666647    0.00000000
                                      S - G
                                                     0        0.0000010       -0.01088195    0.00000000
                                                     2        0.1200000        0.09867335    0.00000000
                                                     2        0.2400000       -0.08484177    0.00000000
                                                     2        0.6000000       -1.39011554    0.00000000
                                                     2        2.5000000        1.36225910    0.00000000
                                      P - G
                                                     0        0.0000010        0.05874028    0.00000000
                                                     2        0.1200000       -0.11700340    0.00000000
                                                     2        0.1600000        0.08847775    0.00000000
                                                     2        0.3000000        0.04709907    0.00000000
                                                     2        1.2000000       -1.80388338    0.00000000
                                      D - G
                                                     0        0.0000010       -0.00541262    0.00000000
                                                     2        0.1200000       -0.26547906    0.00000000
                                                     2        0.1600000        1.04289661    0.00000000
                                                     2        0.2400000       -1.92800913    0.00000000
                                                     2        0.4000000        2.26691633    0.00000000
                                                     2        0.7000000       -1.97391482    0.00000000
                                      F - G
                                                     0        0.0000010       -0.02604870    0.00000000
                                                     2        0.1200000        0.37362552    0.00000000
                                                     2        0.1600000       -1.43526367    0.00000000
                                                     2        0.2200000        1.76778079    0.00000000
                                                     2        0.5000000       -1.90846303    0.00000000
 ======================================================================================================
   201 basis functions,   335 primitive gaussians,   213 cartesian basis functions
    24 alpha electrons       24 beta electrons
       nuclear repulsion energy       213.3813259578 Hartrees.
 NAtoms=   13 NActive=   13 NUniq=   13 SFac= 1.00D+00 NAtFMM=   60 NAOKFM=F Big=F
   1 Symmetry operations used in ECPInt.
 ECPInt:  NShTT=    4005 NPrTT=   17869 LenC2=    3957 LenP2D=   13476.
 LDataN:  DoStor=T MaxTD1= 6 Len=  172
 Initial guess from the checkpoint file:  "ANI1ccx_569_conf1_mol1.chk"
 B after Tr=     0.000001    0.000000    0.000000
         Rot=    1.000000    0.000000   -0.000000   -0.000000 Ang=  -0.00 deg.
 >>>>>>>>>> Convergence criterion not met.
 SCF Done:  E(RHF) =  -318.384641636     A.U. after    2 cycles
            NFock=  1  Conv=0.13D-01     -V/T= 2.0001

 **********************************************************************

            Population analysis using the SCF Density.

 **********************************************************************

 Orbital symmetries:
       Occupied  (A) (A) (A) (A) (A) (A) (A) (A) (A) (A) (A) (A)
                 (A) (A) (A) (A) (A) (A) (A) (A) (A) (A) (A) (A)
       Virtual   (A) (A) (A) (A) (A) (A) (A) (A) (A) (A) (A) (A)
                 (A) (A) (A) (A) (A) (A) (A) (A) (A) (A) (A) (A)
                 (A) (A) (A) (A) (A) (A) (A) (A) (A) (A) (A) (A)
                 (A) (A) (A) (A) (A) (A) (A) (A) (A) (A) (A) (A)
                 (A) (A) (A) (A) (A) (A) (A) (A) (A) (A) (A) (A)
                 (A) (A) (A) (A) (A) (A) (A) (A) (A) (A) (A) (A)
                 (A) (A) (A) (A) (A) (A) (A) (A) (A) (A) (A) (A)
                 (A) (A) (A) (A) (A) (A) (A) (A) (A) (A) (A) (A)
                 (A) (A) (A) (A) (A) (A) (A) (A) (A) (A) (A) (A)
                 (A) (A) (A) (A) (A) (A) (A) (A) (A) (A) (A) (A)
                 (A) (A) (A) (A) (A) (A) (A) (A) (A) (A) (A) (A)
                 (A) (A) (A) (A) (A) (A) (A) (A) (A) (A) (A) (A)
                 (A) (A) (A) (A) (A) (A) (A) (A) (A) (A) (A) (A)
                 (A) (A) (A) (A) (A) (A) (A) (A) (A) (A) (A) (A)
                 (A) (A) (A) (A) (A) (A) (A) (A) (A)
 The electronic state is 1-A.
 Alpha  occ. eigenvalues --  -20.52789 -15.54839 -15.53665 -15.49086 -11.37073
 Alpha  occ. eigenvalues --  -11.33503  -1.47020  -1.28247  -1.23250  -1.17382
 Alpha  occ. eigenvalues --   -0.87787  -0.87380  -0.78575  -0.76594  -0.74577
 Alpha  occ. eigenvalues --   -0.69676  -0.62681  -0.61926  -0.59871  -0.58501
 Alpha  occ. eigenvalues --   -0.48857  -0.45542  -0.44424  -0.43335
 Alpha virt. eigenvalues --    0.01776   0.03738   0.04555   0.04638   0.06209
 Alpha virt. eigenvalues --    0.06367   0.07991   0.09298   0.09940   0.11254
 Alpha virt. eigenvalues --    0.12531   0.13227   0.13711   0.14549   0.15206
 Alpha virt. eigenvalues --    0.15767   0.16372   0.17694   0.18161   0.19952
 Alpha virt. eigenvalues --    0.20082   0.21131   0.21747   0.22780   0.23944
 Alpha virt. eigenvalues --    0.25049   0.25804   0.28397   0.28687   0.30137
 Alpha virt. eigenvalues --    0.31019   0.31224   0.31801   0.33037   0.33640
 Alpha virt. eigenvalues --    0.34391   0.35587   0.36495   0.37919   0.41512
 Alpha virt. eigenvalues --    0.41811   0.42536   0.42716   0.43981   0.46520
 Alpha virt. eigenvalues --    0.47182   0.47951   0.49333   0.50457   0.51070
 Alpha virt. eigenvalues --    0.52359   0.54154   0.55095   0.56383   0.57269
 Alpha virt. eigenvalues --    0.57681   0.60081   0.61259   0.61774   0.62306
 Alpha virt. eigenvalues --    0.62762   0.64347   0.65088   0.66486   0.66719
 Alpha virt. eigenvalues --    0.68276   0.68881   0.71451   0.73458   0.74200
 Alpha virt. eigenvalues --    0.75669   0.79054   0.79471   0.80731   0.81481
 Alpha virt. eigenvalues --    0.83656   0.84552   0.86009   0.89176   0.89759
 Alpha virt. eigenvalues --    0.91336   0.92039   0.93652   0.94471   0.97476
 Alpha virt. eigenvalues --    0.99430   1.01953   1.02162   1.03949   1.04368
 Alpha virt. eigenvalues --    1.06752   1.10274   1.11786   1.13313   1.15287
 Alpha virt. eigenvalues --    1.25086   1.26051   1.27146   1.29819   1.31475
 Alpha virt. eigenvalues --    1.33876   1.37111   1.41969   1.43460   1.44102
 Alpha virt. eigenvalues --    1.47623   1.50343   1.51837   1.53485   1.53677
 Alpha virt. eigenvalues --    1.56591   1.62195   1.63783   1.64355   1.70662
 Alpha virt. eigenvalues --    1.76434   1.79015   1.81224   1.84037   1.86635
 Alpha virt. eigenvalues --    1.89480   1.93626   1.95430   1.97201   1.98165
 Alpha virt. eigenvalues --    1.99778   2.01464   2.03509   2.04725   2.05671
 Alpha virt. eigenvalues --    2.07662   2.10199   2.12440   2.14459   2.17408
 Alpha virt. eigenvalues --    2.17770   2.19515   2.22898   2.24602   2.25272
 Alpha virt. eigenvalues --    2.25830   2.26497   2.28982   2.30596   2.31771
 Alpha virt. eigenvalues --    2.33861   2.40120   2.40662   2.42007   2.46254
 Alpha virt. eigenvalues --    2.47927   2.48780   2.50675   2.52246   2.56446
 Alpha virt. eigenvalues --    2.60482   2.63367   2.66377   2.70833   2.79895
 Alpha virt. eigenvalues --    2.89599   2.92744   2.95266   2.99521   3.06744
 Alpha virt. eigenvalues --    3.20422   3.24353   3.27267   3.36161   3.40630
 Alpha virt. eigenvalues --    3.42763   3.49088   3.84252   3.87995   3.90052
 Alpha virt. eigenvalues --    4.08724   4.24758
          Condensed to atoms (all electrons):
 Mulliken charges:
               1
     1  C    0.524269
     2  C   -1.171306
     3  H    0.148940
     4  H   -0.016939
     5  H    0.032307
     6  H    0.068245
     7  H    0.142860
     8  H   -0.074988
     9  H    0.059226
    10  N    0.383010
    11  N    0.370006
    12  N    0.590753
    13  O   -1.056383
 Sum of Mulliken charges =  -0.00000
 Mulliken charges with hydrogens summed into heavy atoms:
               1
     1  C    0.556576
     2  C   -1.246294
    10  N    0.515011
    11  N    0.581111
    12  N    0.649979
    13  O   -1.056383
 Electronic spatial extent (au):  <R**2>=           1208.6427
 Charge=             -0.0000 electrons
 Dipole moment (field-independent basis, Debye):
    X=             -0.7941    Y=              1.4754    Z=              3.5166  Tot=              3.8954

 Test job not archived.
 1\1\GINC-SE455\SP\RHF\Aug-CC-pVDZ\C2H7N3O1\OHZDE\08-Apr-2025\0\\#t hf 
 aug-cc-pvdz iop(5/13=1,5/36=2,99/5=2) pseudo=read geom=check guess=(re
 ad,tcheck) scf=(maxcycle=1)\\title\\0,1\C,0,2.19185,-0.25335,0.102872\
 C,0,-2.35872,-0.493818,-0.126754\H,0,2.0144,1.71551,-0.362949\H,0,0.68
 4085,1.0245,0.480414\H,0,1.56374,-1.02223,0.583997\H,0,-1.34977,0.7842
 95,1.02268\H,0,-0.68374,-0.743415,0.94994\H,0,-2.25926,-1.49317,-0.544
 016\H,0,-3.4299,1.07629,-0.0158643\N,0,1.47039,0.878901,-0.138944\N,0,
 -1.18963,-0.0228735,0.441677\N,0,-3.46415,0.10602,-0.333062\O,0,3.3431
 7,-0.449139,-0.219827\\Version=ES64L-G16RevC.01\State=1-A\HF=-318.3846
 416\RMSD=1.259e-02\Dipole=-0.312435,0.5804587,1.3835463\Quadrupole=-17
 .3421686,11.3939148,5.9482537,1.812411,-1.6909854,0.4825529\PG=C01 [X(
 C2H7N3O1)]\\@


 TO DRY ONE'S EYES AND LAUGH AT A FALL
 AND BAFFLED, GET UP AND BEGIN AGAIN.
           R. BROWNING
 Job cpu time:       0 days  0 hours  0 minutes 35.1 seconds.
 Elapsed time:       0 days  0 hours  0 minutes  3.0 seconds.
 File lengths (MBytes):  RWF=     10 Int=      0 D2E=      0 Chk=      6 Scr=      1
 Normal termination of Gaussian 16 at Tue Apr  8 21:47:03 2025.
