 Entering Gaussian System, Link 0=g16
 Input=ANI1ccx_1597_conf3_mol2.gjf
 Output=ANI1ccx_1597_conf3_mol2.log
 Initial command:
 /arc/software/Gaussian/g16.c01/l1.exe "/tmp/slurm/4836391/Gau-3922466.inp" -scrdir="/tmp/slurm/4836391/"
 Entering Link 1 = /arc/software/Gaussian/g16.c01/l1.exe PID=   3922467.
  
 Copyright (c) 1988-2019, Gaussian, Inc.  All Rights Reserved.
  
 This is part of the Gaussian(R) 16 program.  It is based on
 the Gaussian(R) 09 system (copyright 2009, Gaussian, Inc.),
 the Gaussian(R) 03 system (copyright 2003, Gaussian, Inc.),
 the Gaussian(R) 98 system (copyright 1998, Gaussian, Inc.),
 the Gaussian(R) 94 system (copyright 1995, Gaussian, Inc.),
 the Gaussian 92(TM) system (copyright 1992, Gaussian, Inc.),
 the Gaussian 90(TM) system (copyright 1990, Gaussian, Inc.),
 the Gaussian 88(TM) system (copyright 1988, Gaussian, Inc.),
 the Gaussian 86(TM) system (copyright 1986, Carnegie Mellon
 University), and the Gaussian 82(TM) system (copyright 1983,
 Carnegie Mellon University). Gaussian is a federally registered
 trademark of Gaussian, Inc.
  
 This software contains proprietary and confidential information,
 including trade secrets, belonging to Gaussian, Inc.
  
 This software is provided under written license and may be
 used, copied, transmitted, or stored only in accord with that
 written license.
  
 The following legend is applicable only to US Government
 contracts under FAR:
  
                    RESTRICTED RIGHTS LEGEND
  
 Use, reproduction and disclosure by the US Government is
 subject to restrictions as set forth in subparagraphs (a)
 and (c) of the Commercial Computer Software - Restricted
 Rights clause in FAR 52.227-19.
  
 Gaussian, Inc.
 340 Quinnipiac St., Bldg. 40, Wallingford CT 06492
  
  
 ---------------------------------------------------------------
 Warning -- This program may not be used in any manner that
 competes with the business of Gaussian, Inc. or will provide
 assistance to any competitor of Gaussian, Inc.  The licensee
 of this program is prohibited from giving any competitor of
 Gaussian, Inc. access to this program.  By using this program,
 the user acknowledges that Gaussian, Inc. is engaged in the
 business of creating and licensing software in the field of
 computational chemistry and represents and warrants to the
 licensee that it is not a competitor of Gaussian, Inc. and that
 it will not use this program in any manner prohibited above.
 ---------------------------------------------------------------
  

 Cite this work as:
 Gaussian 16, Revision C.01,
 M. J. Frisch, G. W. Trucks, H. B. Schlegel, G. E. Scuseria, 
 M. A. Robb, J. R. Cheeseman, G. Scalmani, V. Barone, 
 G. A. Petersson, H. Nakatsuji, X. Li, M. Caricato, A. V. Marenich, 
 J. Bloino, B. G. Janesko, R. Gomperts, B. Mennucci, H. P. Hratchian, 
 J. V. Ortiz, A. F. Izmaylov, J. L. Sonnenberg, D. Williams-Young, 
 F. Ding, F. Lipparini, F. Egidi, J. Goings, B. Peng, A. Petrone, 
 T. Henderson, D. Ranasinghe, V. G. Zakrzewski, J. Gao, N. Rega, 
 G. Zheng, W. Liang, M. Hada, M. Ehara, K. Toyota, R. Fukuda, 
 J. Hasegawa, M. Ishida, T. Nakajima, Y. Honda, O. Kitao, H. Nakai, 
 T. Vreven, K. Throssell, J. A. Montgomery, Jr., J. E. Peralta, 
 F. Ogliaro, M. J. Bearpark, J. J. Heyd, E. N. Brothers, K. N. Kudin, 
 V. N. Staroverov, T. A. Keith, R. Kobayashi, J. Normand, 
 K. Raghavachari, A. P. Rendell, J. C. Burant, S. S. Iyengar, 
 J. Tomasi, M. Cossi, J. M. Millam, M. Klene, C. Adamo, R. Cammi, 
 J. W. Ochterski, R. L. Martin, K. Morokuma, O. Farkas, 
 J. B. Foresman, and D. J. Fox, Gaussian, Inc., Wallingford CT, 2019.
 
 ******************************************
 Gaussian 16:  ES64L-G16RevC.01  3-Jul-2019
                 8-Apr-2025 
 ******************************************
 %nprocs=16
 Will use up to   16 processors via shared memory.
 %mem=30GB
 %chk=ANI1ccx_1597_conf3_mol2.chk
 ----------------------------------------------------------------------
 #t hf aug-cc-pvdz symm=none int=(grid=ultrafine) guess=(read,tcheck) s
 table=(opt,rrhf)
 ----------------------------------------------------------------------
 -----
 title
 -----
 Symbolic Z-matrix:
 Charge =  0 Multiplicity = 1
 C                    -1.91805  -1.37906  -0.3025 
 C                    -0.66381  -1.06727   0.5223 
 C                    -3.11555  -0.50173   0.10113 
 C                    -2.98378   0.93645  -0.33963 
 C                     1.21321   0.49093   0.94601 
 C                     1.70319   1.83458   0.48459 
 C                     2.4266   -0.50745   0.85271 
 C                     2.87199  -1.03862  -0.53686 
 H                     1.52867   3.14216  -0.84825 
 H                     1.86688   0.32937  -1.69752 
 H                     3.00208  -0.70621  -2.42726 
 H                     2.22298  -1.3909    1.45485 
 H                     3.31052  -0.0171    1.28444 
 H                     0.90117   0.56434   1.99982 
 H                    -0.17156   0.56325  -0.70827 
 H                    -4.95742   1.30108   0.30801 
 H                    -4.04185  -0.93994  -0.30606 
 H                    -3.29857  -0.51274   1.18303 
 H                    -1.76014  -1.10331  -1.35711 
 H                    -1.50939  -3.29735  -0.6387 
 H                    -2.34097  -3.03462   0.72071 
 H                    -4.06499   2.62791  -0.31288 
 N                    -2.25791  -2.74647  -0.24399 
 N                    -4.08495   1.66178  -0.01756 
 N                     0.08073  -0.02372   0.12174 
 N                     2.7221   -0.2025   -1.5906 
 O                     3.48606  -2.07773  -0.65699 
 O                    -0.43023  -1.72569   1.5319 
 O                    -2.02838   1.38627  -0.97658 
 O                     2.4689    2.49051   1.13367 
 O                     1.11491   2.30706  -0.64557 
 
                    Distance matrix (angstroms):
                    1          2          3          4          5
     1  C    0.000000
     2  C    1.533170   0.000000
     3  C    1.538384   2.551126   0.000000
     4  C    2.549267   3.184349   1.509967   0.000000
     5  C    3.854919   2.476028   4.520769   4.412038   0.000000
     6  C    4.905136   3.744977   5.368952   4.842897   1.502794
     7  C    4.579320   3.158038   5.592882   5.725272   1.574097
     8  C    4.807838   3.691141   6.045322   6.183030   2.699994
     9  H    5.711319   4.940109   5.978966   5.048371   3.216819
    10  H    4.380697   3.644527   5.361946   5.073591   2.727935
    11  H    5.401392   4.719005   6.622685   6.548821   4.001515
    12  H    4.498503   3.050894   5.578807   5.978886   2.195411
    13  H    5.631273   4.180792   6.552058   6.570014   2.184340
    14  H    4.126193   2.700814   4.568982   4.550204   1.101488
    15  H    2.643381   2.101238   3.233637   2.860731   2.158574
    16  H    4.098004   4.908165   2.585615   2.108943   6.256202
    17  H    2.168725   3.480450   1.102660   2.154410   5.588443
    18  H    2.205253   2.772369   1.097327   2.125494   4.628140
    19  H    1.101447   2.176099   2.079783   2.587121   4.084942
    20  H    1.989943   2.652578   3.307958   4.493145   4.926955
    21  H    1.991652   2.592816   2.720180   4.160160   5.011231
    22  H    4.545907   5.091159   3.296587   2.007675   5.831886
    23  N    1.410226   2.438864   2.427655   3.754991   4.893414
    24  N    3.744776   4.409462   2.373731   1.357351   5.510886
    25  N    2.451952   1.343055   3.231897   3.244386   1.492239
    26  N    4.957267   4.083693   6.085199   5.951405   3.031827
    27  O    5.460605   4.430933   6.829332   7.144568   3.785952
    28  O    2.387206   1.227751   3.279650   4.136450   2.820916
    29  O    2.848440   3.182535   2.430624   1.233218   3.873742
    30  O    6.023410   4.779692   6.419168   5.858107   2.368609
    31  O    4.785815   3.989218   5.132607   4.332600   2.416841
                    6          7          8          9         10
     6  C    0.000000
     7  C    2.478699   0.000000
     8  C    3.265690   1.552872   0.000000
     9  H    1.875284   4.125435   4.402317   0.000000
    10  H    2.655949   2.741753   2.056395   2.957609   0.000000
    11  H    4.076957   3.335995   1.923806   4.412950   1.701062
    12  H    3.408124   1.088355   2.124201   5.131762   3.608817
    13  H    2.579148   1.099158   2.133762   4.207650   3.331099
    14  H    2.133699   2.188955   3.590033   3.892357   3.828593
    15  H    2.560051   3.214570   3.443623   3.092109   2.277837
    16  H    6.684275   7.621761   8.215087   6.840751   7.178958
    17  H    6.428729   6.585638   6.918395   6.927351   6.201644
    18  H    5.569139   5.734694   6.427316   6.386440   5.973992
    19  H    4.900786   4.771491   4.704638   5.394369   3.914552
    20  H    6.157852   5.049736   4.930388   7.123273   5.066890
    21  H    6.334042   5.397567   5.721926   7.455760   5.905101
    22  H    5.876839   7.302728   7.849541   5.642704   6.510577
    23  N    6.099767   5.306654   5.414647   7.027040   5.346720
    24  N    5.812451   6.918325   7.480698   5.864665   6.326284
    25  N    2.493450   2.504276   3.042184   3.613887   2.573847
    26  N    3.081281   2.479932   1.353487   3.627963   1.012777
    27  O    4.448369   2.422272   1.212956   5.578101   3.081974
    28  O    4.280640   3.179136   3.956832   5.761805   4.464207
    29  O    4.032443   5.174873   5.485168   3.968907   4.099983
    30  O    1.199109   3.011396   3.925292   2.288383   3.612286
    31  O    1.358885   3.447730   3.780572   0.953766   2.362908
                   11         12         13         14         15
    11  H    0.000000
    12  H    4.018281   0.000000
    13  H    3.787706   1.760426   0.000000
    14  H    5.062324   2.422213   2.579688   0.000000
    15  H    3.826018   3.772478   4.053709   2.912816   0.000000
    16  H    8.652429   7.753718   8.429108   6.142324   4.947899
    17  H    7.360101   6.523209   7.578829   5.658038   4.171394
    18  H    7.264284   5.597551   6.628424   4.411925   3.809590
    19  H    4.897106   4.884165   5.819727   4.597023   2.392074
    20  H    5.501485   4.684877   6.139218   5.261674   4.086425
    21  H    6.624151   4.906162   6.431372   5.010002   4.437679
    22  H    8.095086   7.669046   7.996604   5.854033   4.424701
    23  N    6.049533   4.980160   6.386935   5.096658   3.939883
    24  N    7.851114   7.160785   7.694598   5.489595   4.122923
    25  N    3.936679   2.869771   3.432700   2.132163   1.047423
    26  N    1.015927   3.306989   2.940487   4.098162   3.120598
    27  O    2.291109   2.554791   2.836570   4.552007   4.511714
    28  O    5.338078   2.675363   4.119920   2.689948   3.213179
    29  O    5.638127   5.630148   5.965359   4.256383   2.048694
    30  O    4.814925   3.902432   2.649374   2.630233   3.752210
    31  O    3.976885   4.394825   3.734619   3.175035   2.167902
                   16         17         18         19         20
    16  H    0.000000
    17  H    2.497500   0.000000
    18  H    2.609094   1.718240   0.000000
    19  H    4.333163   2.517460   3.027847   0.000000
    20  H    5.825008   3.475830   3.778086   2.322241   0.000000
    21  H    5.080790   2.887027   2.736904   2.895624   1.615093
    22  H    1.715346   3.567930   3.562134   4.508298   6.461111
    23  N    4.896398   2.539656   2.847617   2.046165   1.009726
    24  N    0.998651   2.618019   2.605443   3.852902   5.622481
    25  N    5.212752   4.244782   3.575637   2.596408   3.717987
    26  N    8.052360   6.924224   6.636093   4.577821   5.328200
    27  O    9.145486   7.621493   7.201810   5.381662   5.142210
    28  O    5.581636   4.127864   3.133739   3.240738   2.888976
    29  O    3.199482   3.148794   3.143804   2.532739   4.724385
    30  O    7.566154   7.498710   6.502740   6.083117   7.243438
    31  O    6.228523   6.103314   5.547416   4.516949   6.188409
                   21         22         23         24         25
    21  H    0.000000
    22  H    6.008726   0.000000
    23  N    1.010228   5.670471   0.000000
    24  N    5.063860   1.010455   4.777239   0.000000
    25  N    3.910108   4.940350   3.607824   4.495913   0.000000
    26  N    6.244814   7.463805   5.752012   7.230901   3.152916
    27  O    6.063658   8.903921   5.797497   8.468352   4.052360
    28  O    2.454027   5.963933   2.745208   5.218500   2.268558
    29  O    4.745813   2.475872   4.203440   2.285846   2.764548
    30  O    7.337060   6.693512   7.187950   6.705601   3.612295
    31  O    6.507177   5.200480   6.088953   5.277246   2.662856
                   26         27         28         29         30
    26  N    0.000000
    27  O    2.229742   0.000000
    28  O    4.691196   4.500279   0.000000
    29  O    5.046611   6.520006   4.304744   0.000000
    30  O    3.839020   5.010976   5.132242   5.089009   0.000000
    31  O    3.126347   4.984864   4.836519   3.292065   2.243353
                   31
    31  O    0.000000
 Symmetry turned off by external request.
 Rotational constants (GHZ):           0.6256412           0.3212906           0.2494466
   517 basis functions,   885 primitive gaussians,   551 cartesian basis functions
    65 alpha electrons       65 beta electrons
       nuclear repulsion energy      1310.2473965756 Hartrees.
 NAtoms=   31 NActive=   31 NUniq=   31 SFac= 1.00D+00 NAtFMM=   60 NAOKFM=F Big=F
 ExpMin= 2.97D-02 ExpMax= 1.17D+04 ExpMxC= 4.01D+02 IAcc=3 IRadAn=         5 AccDes= 0.00D+00
 Harris functional with IExCor=  205 and IRadAn=       5 diagonalized for initial guess.
 HarFok:  IExCor=  205 AccDes= 0.00D+00 IRadAn=         5 IDoV= 1 UseB2=F ITyADJ=14
 ICtDFT=  3500011 ScaDFX=  1.000000  1.000000  1.000000  1.000000
 FoFCou: FMM=F IPFlag=           0 FMFlag=      100000 FMFlg1=           0
         NFxFlg=           0 DoJE=T BraDBF=F KetDBF=T FulRan=T
         wScrn=  0.000000 ICntrl=       500 IOpCl=  0 I1Cent=   200000004 NGrid=           0
         NMat0=    1 NMatS0=      1 NMatT0=    0 NMatD0=    1 NMtDS0=    0 NMtDT0=    0
 Symmetry not used in FoFCou.
 SCF Done:  E(RHF) =  -903.407979119     A.U. after   15 cycles
            NFock= 15  Conv=0.31D-08     -V/T= 2.0013

 **********************************************************************

            Population analysis using the SCF Density.

 **********************************************************************

 Alpha  occ. eigenvalues --  -20.64497 -20.57986 -20.56165 -20.53871 -20.53516
 Alpha  occ. eigenvalues --  -15.61643 -15.60513 -15.59088 -15.55677 -11.41787
 Alpha  occ. eigenvalues --  -11.39192 -11.36290 -11.36273 -11.32002 -11.28817
 Alpha  occ. eigenvalues --  -11.26974 -11.25653  -1.49556  -1.41077  -1.39636
 Alpha  occ. eigenvalues --   -1.39431  -1.39230  -1.24834  -1.24317  -1.21999
 Alpha  occ. eigenvalues --   -1.21735  -1.07463  -1.04821  -0.96161  -0.91370
 Alpha  occ. eigenvalues --   -0.84673  -0.83206  -0.79348  -0.78883  -0.75815
 Alpha  occ. eigenvalues --   -0.74185  -0.72324  -0.72263  -0.70689  -0.69842
 Alpha  occ. eigenvalues --   -0.67760  -0.66815  -0.65790  -0.64129  -0.63078
 Alpha  occ. eigenvalues --   -0.62844  -0.62167  -0.61242  -0.59819  -0.57957
 Alpha  occ. eigenvalues --   -0.57242  -0.56069  -0.54216  -0.53407  -0.52134
 Alpha  occ. eigenvalues --   -0.50488  -0.50086  -0.47637  -0.45683  -0.44921
 Alpha  occ. eigenvalues --   -0.44179  -0.43210  -0.42202  -0.40373  -0.39840
 Alpha virt. eigenvalues --    0.01764   0.03149   0.03777   0.04308   0.04971
 Alpha virt. eigenvalues --    0.05223   0.05724   0.06028   0.06991   0.07618
 Alpha virt. eigenvalues --    0.07948   0.08693   0.09626   0.10177   0.10818
 Alpha virt. eigenvalues --    0.10877   0.11603   0.12035   0.12355   0.12901
 Alpha virt. eigenvalues --    0.13490   0.14026   0.14249   0.14266   0.14630
 Alpha virt. eigenvalues --    0.14888   0.15069   0.15495   0.15734   0.16145
 Alpha virt. eigenvalues --    0.16560   0.17296   0.17663   0.17844   0.18351
 Alpha virt. eigenvalues --    0.18492   0.18890   0.19029   0.19508   0.20004
 Alpha virt. eigenvalues --    0.20515   0.20640   0.21338   0.21678   0.21880
 Alpha virt. eigenvalues --    0.22219   0.22375   0.22992   0.23481   0.24257
 Alpha virt. eigenvalues --    0.24447   0.25221   0.25487   0.26274   0.26752
 Alpha virt. eigenvalues --    0.27411   0.27674   0.28245   0.28439   0.29309
 Alpha virt. eigenvalues --    0.29948   0.30406   0.30859   0.31284   0.31899
 Alpha virt. eigenvalues --    0.32178   0.32776   0.33328   0.34167   0.34370
 Alpha virt. eigenvalues --    0.34691   0.35207   0.35449   0.35762   0.35820
 Alpha virt. eigenvalues --    0.36166   0.36608   0.37079   0.37329   0.37635
 Alpha virt. eigenvalues --    0.38013   0.38511   0.38902   0.39120   0.39519
 Alpha virt. eigenvalues --    0.40199   0.40800   0.41185   0.41365   0.41864
 Alpha virt. eigenvalues --    0.42118   0.42401   0.43459   0.44152   0.44403
 Alpha virt. eigenvalues --    0.44842   0.45299   0.45682   0.46079   0.46378
 Alpha virt. eigenvalues --    0.47459   0.47709   0.47981   0.48398   0.48980
 Alpha virt. eigenvalues --    0.49628   0.50169   0.50435   0.50813   0.51489
 Alpha virt. eigenvalues --    0.51992   0.52277   0.52472   0.52802   0.53430
 Alpha virt. eigenvalues --    0.53846   0.54204   0.55423   0.56176   0.56464
 Alpha virt. eigenvalues --    0.56739   0.57038   0.57679   0.58653   0.58729
 Alpha virt. eigenvalues --    0.58939   0.59378   0.59734   0.60353   0.61588
 Alpha virt. eigenvalues --    0.62587   0.62806   0.63116   0.63324   0.63659
 Alpha virt. eigenvalues --    0.64300   0.64820   0.65049   0.65464   0.66073
 Alpha virt. eigenvalues --    0.66388   0.66994   0.67741   0.68709   0.68963
 Alpha virt. eigenvalues --    0.69203   0.70347   0.71032   0.71363   0.71707
 Alpha virt. eigenvalues --    0.72299   0.72573   0.73848   0.73928   0.74508
 Alpha virt. eigenvalues --    0.74854   0.76024   0.76452   0.76918   0.77528
 Alpha virt. eigenvalues --    0.78116   0.78491   0.79417   0.80045   0.80965
 Alpha virt. eigenvalues --    0.81393   0.81509   0.82020   0.82736   0.82939
 Alpha virt. eigenvalues --    0.83162   0.83575   0.85126   0.85499   0.86527
 Alpha virt. eigenvalues --    0.87003   0.87683   0.87908   0.88113   0.88962
 Alpha virt. eigenvalues --    0.89345   0.90007   0.90486   0.91188   0.92344
 Alpha virt. eigenvalues --    0.93260   0.93452   0.94556   0.95285   0.95950
 Alpha virt. eigenvalues --    0.96500   0.96543   0.97137   0.97699   0.98382
 Alpha virt. eigenvalues --    0.99558   1.00076   1.00674   1.01759   1.02057
 Alpha virt. eigenvalues --    1.02800   1.03450   1.03974   1.04379   1.05075
 Alpha virt. eigenvalues --    1.05826   1.06894   1.07752   1.08283   1.08962
 Alpha virt. eigenvalues --    1.09474   1.10045   1.11616   1.12936   1.13630
 Alpha virt. eigenvalues --    1.13658   1.14349   1.14875   1.16234   1.17775
 Alpha virt. eigenvalues --    1.18467   1.19296   1.19620   1.20727   1.21134
 Alpha virt. eigenvalues --    1.23502   1.24243   1.24758   1.25570   1.26031
 Alpha virt. eigenvalues --    1.26988   1.27376   1.27849   1.28563   1.30097
 Alpha virt. eigenvalues --    1.31424   1.31815   1.33023   1.34461   1.35455
 Alpha virt. eigenvalues --    1.36095   1.37367   1.37777   1.39433   1.39737
 Alpha virt. eigenvalues --    1.40509   1.41513   1.42017   1.43531   1.44263
 Alpha virt. eigenvalues --    1.44972   1.46819   1.47449   1.47995   1.48967
 Alpha virt. eigenvalues --    1.50415   1.51005   1.51794   1.52518   1.53231
 Alpha virt. eigenvalues --    1.54576   1.55966   1.57298   1.58530   1.58970
 Alpha virt. eigenvalues --    1.60017   1.60974   1.61648   1.62697   1.63489
 Alpha virt. eigenvalues --    1.64573   1.67031   1.68278   1.69389   1.70938
 Alpha virt. eigenvalues --    1.71627   1.72492   1.73506   1.75140   1.76654
 Alpha virt. eigenvalues --    1.77578   1.77920   1.78924   1.80577   1.82362
 Alpha virt. eigenvalues --    1.82691   1.83809   1.85398   1.87404   1.87791
 Alpha virt. eigenvalues --    1.88664   1.89486   1.89983   1.90662   1.92062
 Alpha virt. eigenvalues --    1.93295   1.94690   1.95467   1.96256   1.97134
 Alpha virt. eigenvalues --    1.98071   2.00306   2.00930   2.01877   2.02688
 Alpha virt. eigenvalues --    2.03930   2.04318   2.05377   2.05401   2.07178
 Alpha virt. eigenvalues --    2.09084   2.09547   2.10863   2.11181   2.12124
 Alpha virt. eigenvalues --    2.12881   2.13453   2.14958   2.16971   2.17739
 Alpha virt. eigenvalues --    2.18063   2.18884   2.20198   2.20985   2.22564
 Alpha virt. eigenvalues --    2.23808   2.24508   2.25367   2.25808   2.26841
 Alpha virt. eigenvalues --    2.27996   2.28655   2.30325   2.30765   2.31234
 Alpha virt. eigenvalues --    2.32219   2.33440   2.33670   2.34709   2.35863
 Alpha virt. eigenvalues --    2.36816   2.38132   2.38969   2.41195   2.41767
 Alpha virt. eigenvalues --    2.42235   2.43108   2.43775   2.44251   2.46645
 Alpha virt. eigenvalues --    2.47244   2.47500   2.49074   2.49420   2.50897
 Alpha virt. eigenvalues --    2.52152   2.52403   2.53394   2.55917   2.56133
 Alpha virt. eigenvalues --    2.57517   2.58663   2.59848   2.60854   2.62654
 Alpha virt. eigenvalues --    2.62986   2.63976   2.64195   2.65011   2.66965
 Alpha virt. eigenvalues --    2.68968   2.69335   2.70571   2.71756   2.73615
 Alpha virt. eigenvalues --    2.74640   2.76061   2.77846   2.78618   2.79877
 Alpha virt. eigenvalues --    2.81269   2.82531   2.86994   2.87583   2.88362
 Alpha virt. eigenvalues --    2.88875   2.90468   2.91583   2.94161   2.95185
 Alpha virt. eigenvalues --    2.96252   2.98962   3.00801   3.01059   3.01414
 Alpha virt. eigenvalues --    3.03149   3.05583   3.07459   3.09322   3.10100
 Alpha virt. eigenvalues --    3.12763   3.16022   3.17559   3.20331   3.22677
 Alpha virt. eigenvalues --    3.25925   3.26964   3.28694   3.34499   3.35678
 Alpha virt. eigenvalues --    3.40664   3.43461   3.44227   3.47720   3.48012
 Alpha virt. eigenvalues --    3.50103   3.56353   3.59425   3.65807   3.70460
 Alpha virt. eigenvalues --    3.72314   3.73986   3.74454   3.76579   3.76955
 Alpha virt. eigenvalues --    3.78777   3.81046   3.81470   3.82444   3.83227
 Alpha virt. eigenvalues --    3.84738   3.86505   3.87040   3.88219   3.92591
 Alpha virt. eigenvalues --    3.93161   3.94404   3.95925   3.97691   4.01114
 Alpha virt. eigenvalues --    4.03207   4.05604   4.07839   4.10477   4.11677
 Alpha virt. eigenvalues --    4.13706   4.17517   4.23240   4.29695   4.34132
 Alpha virt. eigenvalues --    4.35527   4.44407
          Condensed to atoms (all electrons):
 Mulliken charges:
               1
     1  C    0.434725
     2  C    0.681129
     3  C    0.529941
     4  C    0.824178
     5  C    0.069326
     6  C    1.483627
     7  C    0.293782
     8  C    0.918683
     9  H    0.206682
    10  H    0.086930
    11  H    0.027926
    12  H    0.011909
    13  H   -0.015440
    14  H   -0.157796
    15  H    0.102364
    16  H   -0.067241
    17  H    0.016442
    18  H   -0.070907
    19  H   -0.224394
    20  H   -0.011998
    21  H    0.050003
    22  H    0.001458
    23  N   -0.314404
    24  N   -0.199102
    25  N   -0.119903
    26  N   -0.301907
    27  O   -0.863176
    28  O   -0.915605
    29  O   -0.794931
    30  O   -0.832386
    31  O   -0.849915
 Sum of Mulliken charges =  -0.00000
 Mulliken charges with hydrogens summed into heavy atoms:
               1
     1  C    0.210331
     2  C    0.681129
     3  C    0.475475
     4  C    0.824178
     5  C   -0.088470
     6  C    1.483627
     7  C    0.290251
     8  C    0.918683
    23  N   -0.276399
    24  N   -0.264886
    25  N   -0.017538
    26  N   -0.187051
    27  O   -0.863176
    28  O   -0.915605
    29  O   -0.794931
    30  O   -0.832386
    31  O   -0.643233
 Electronic spatial extent (au):  <R**2>=           4475.1138
 Charge=             -0.0000 electrons
 Dipole moment (field-independent basis, Debye):
    X=             -6.9947    Y=              4.0463    Z=             -1.8444  Tot=              8.2885
 NROrb=    517 NOA=    65 NOB=    65 NVA=   452 NVB=   452

 **** Warning!!: The largest alpha MO coefficient is  0.81372673D+02

    12 initial guesses have been made.
 Iteration     1 Dimension    12 NMult     0 NNew     12
 Iteration     2 Dimension    24 NMult    12 NNew     12
 New state      1 was old state      2
 Iteration     3 Dimension    27 NMult    24 NNew      3
 Iteration     4 Dimension    30 NMult    27 NNew      3
 Iteration     5 Dimension    33 NMult    30 NNew      3
 Iteration     6 Dimension    36 NMult    33 NNew      3
 Iteration     7 Dimension    39 NMult    36 NNew      3
 New state      1 was old state      2
 Iteration     8 Dimension    42 NMult    39 NNew      3
 Iteration     9 Dimension    45 NMult    42 NNew      3
 New state      1 was old state      2
 Iteration    10 Dimension    48 NMult    45 NNew      3
 New state      1 was old state      2
 Iteration    11 Dimension    51 NMult    48 NNew      3
 Iteration    12 Dimension    54 NMult    51 NNew      3
 Iteration    13 Dimension    57 NMult    54 NNew      3
 Iteration    14 Dimension    60 NMult    57 NNew      3
 Iteration    15 Dimension    63 NMult    60 NNew      3
 Iteration    16 Dimension    66 NMult    63 NNew      3
 Iteration    17 Dimension    69 NMult    66 NNew      3
 Iteration    18 Dimension    72 NMult    69 NNew      3
 Iteration    19 Dimension    75 NMult    72 NNew      3
 Iteration    20 Dimension    78 NMult    75 NNew      3
 Iteration    21 Dimension    81 NMult    78 NNew      3
 ***********************************************************************
 Stability analysis using <AA,BB:AA,BB> singles matrix:
 ***********************************************************************
 Ground to excited state transition densities written to RWF  633

 Eigenvectors of the stability matrix:
 
 Excited state symmetry could not be determined.
 Eigenvector   1:      Singlet-?Sym  Eigenvalue= 0.2384797  <S**2>=0.000
      62 -> 95        -0.13574
      62 -> 96        -0.11434
      62 ->101         0.10182
      63 -> 87        -0.14893
      63 -> 95        -0.20468
      63 -> 96        -0.14095
      63 ->100        -0.11124
      63 ->101         0.14129
      63 ->103         0.14083
      63 ->104         0.12100
      63 ->105        -0.13020
 The wavefunction is stable under the perturbations considered.
 The wavefunction is already stable.

 **********************************************************************

            Population analysis using the SCF Density.

 **********************************************************************

 Alpha  occ. eigenvalues --  -20.64497 -20.57986 -20.56165 -20.53871 -20.53516
 Alpha  occ. eigenvalues --  -15.61643 -15.60513 -15.59088 -15.55677 -11.41787
 Alpha  occ. eigenvalues --  -11.39192 -11.36290 -11.36273 -11.32002 -11.28817
 Alpha  occ. eigenvalues --  -11.26974 -11.25653  -1.49556  -1.41077  -1.39636
 Alpha  occ. eigenvalues --   -1.39431  -1.39230  -1.24834  -1.24317  -1.21999
 Alpha  occ. eigenvalues --   -1.21735  -1.07463  -1.04821  -0.96161  -0.91370
 Alpha  occ. eigenvalues --   -0.84673  -0.83206  -0.79348  -0.78883  -0.75815
 Alpha  occ. eigenvalues --   -0.74185  -0.72324  -0.72263  -0.70689  -0.69842
 Alpha  occ. eigenvalues --   -0.67760  -0.66815  -0.65790  -0.64129  -0.63078
 Alpha  occ. eigenvalues --   -0.62844  -0.62167  -0.61242  -0.59819  -0.57957
 Alpha  occ. eigenvalues --   -0.57242  -0.56069  -0.54216  -0.53407  -0.52134
 Alpha  occ. eigenvalues --   -0.50488  -0.50086  -0.47637  -0.45683  -0.44921
 Alpha  occ. eigenvalues --   -0.44179  -0.43210  -0.42202  -0.40373  -0.39840
 Alpha virt. eigenvalues --    0.01764   0.03149   0.03777   0.04308   0.04971
 Alpha virt. eigenvalues --    0.05223   0.05724   0.06028   0.06991   0.07618
 Alpha virt. eigenvalues --    0.07948   0.08693   0.09626   0.10177   0.10818
 Alpha virt. eigenvalues --    0.10877   0.11603   0.12035   0.12355   0.12901
 Alpha virt. eigenvalues --    0.13490   0.14026   0.14249   0.14266   0.14630
 Alpha virt. eigenvalues --    0.14888   0.15069   0.15495   0.15734   0.16145
 Alpha virt. eigenvalues --    0.16560   0.17296   0.17663   0.17844   0.18351
 Alpha virt. eigenvalues --    0.18492   0.18890   0.19029   0.19508   0.20004
 Alpha virt. eigenvalues --    0.20515   0.20640   0.21338   0.21678   0.21880
 Alpha virt. eigenvalues --    0.22219   0.22375   0.22992   0.23481   0.24257
 Alpha virt. eigenvalues --    0.24447   0.25221   0.25487   0.26274   0.26752
 Alpha virt. eigenvalues --    0.27411   0.27674   0.28245   0.28439   0.29309
 Alpha virt. eigenvalues --    0.29948   0.30406   0.30859   0.31284   0.31899
 Alpha virt. eigenvalues --    0.32178   0.32776   0.33328   0.34167   0.34370
 Alpha virt. eigenvalues --    0.34691   0.35207   0.35449   0.35762   0.35820
 Alpha virt. eigenvalues --    0.36166   0.36608   0.37079   0.37329   0.37635
 Alpha virt. eigenvalues --    0.38013   0.38511   0.38902   0.39120   0.39519
 Alpha virt. eigenvalues --    0.40199   0.40800   0.41185   0.41365   0.41864
 Alpha virt. eigenvalues --    0.42118   0.42401   0.43459   0.44152   0.44403
 Alpha virt. eigenvalues --    0.44842   0.45299   0.45682   0.46079   0.46378
 Alpha virt. eigenvalues --    0.47459   0.47709   0.47981   0.48398   0.48980
 Alpha virt. eigenvalues --    0.49628   0.50169   0.50435   0.50813   0.51489
 Alpha virt. eigenvalues --    0.51992   0.52277   0.52472   0.52802   0.53430
 Alpha virt. eigenvalues --    0.53846   0.54204   0.55423   0.56176   0.56464
 Alpha virt. eigenvalues --    0.56739   0.57038   0.57679   0.58653   0.58729
 Alpha virt. eigenvalues --    0.58939   0.59378   0.59734   0.60353   0.61588
 Alpha virt. eigenvalues --    0.62587   0.62806   0.63116   0.63324   0.63659
 Alpha virt. eigenvalues --    0.64300   0.64820   0.65049   0.65464   0.66073
 Alpha virt. eigenvalues --    0.66388   0.66994   0.67741   0.68709   0.68963
 Alpha virt. eigenvalues --    0.69203   0.70347   0.71032   0.71363   0.71707
 Alpha virt. eigenvalues --    0.72299   0.72573   0.73848   0.73928   0.74508
 Alpha virt. eigenvalues --    0.74854   0.76024   0.76452   0.76918   0.77528
 Alpha virt. eigenvalues --    0.78116   0.78491   0.79417   0.80045   0.80965
 Alpha virt. eigenvalues --    0.81393   0.81509   0.82020   0.82736   0.82939
 Alpha virt. eigenvalues --    0.83162   0.83575   0.85126   0.85499   0.86527
 Alpha virt. eigenvalues --    0.87003   0.87683   0.87908   0.88113   0.88962
 Alpha virt. eigenvalues --    0.89345   0.90007   0.90486   0.91188   0.92344
 Alpha virt. eigenvalues --    0.93260   0.93452   0.94556   0.95285   0.95950
 Alpha virt. eigenvalues --    0.96500   0.96543   0.97137   0.97699   0.98382
 Alpha virt. eigenvalues --    0.99558   1.00076   1.00674   1.01759   1.02057
 Alpha virt. eigenvalues --    1.02800   1.03450   1.03974   1.04379   1.05075
 Alpha virt. eigenvalues --    1.05826   1.06894   1.07752   1.08283   1.08962
 Alpha virt. eigenvalues --    1.09474   1.10045   1.11616   1.12936   1.13630
 Alpha virt. eigenvalues --    1.13658   1.14349   1.14875   1.16234   1.17775
 Alpha virt. eigenvalues --    1.18467   1.19296   1.19620   1.20727   1.21134
 Alpha virt. eigenvalues --    1.23502   1.24243   1.24758   1.25570   1.26031
 Alpha virt. eigenvalues --    1.26988   1.27376   1.27849   1.28563   1.30097
 Alpha virt. eigenvalues --    1.31424   1.31815   1.33023   1.34461   1.35455
 Alpha virt. eigenvalues --    1.36095   1.37367   1.37777   1.39433   1.39737
 Alpha virt. eigenvalues --    1.40509   1.41513   1.42017   1.43531   1.44263
 Alpha virt. eigenvalues --    1.44972   1.46819   1.47449   1.47995   1.48967
 Alpha virt. eigenvalues --    1.50415   1.51005   1.51794   1.52518   1.53231
 Alpha virt. eigenvalues --    1.54576   1.55966   1.57298   1.58530   1.58970
 Alpha virt. eigenvalues --    1.60017   1.60974   1.61648   1.62697   1.63489
 Alpha virt. eigenvalues --    1.64573   1.67031   1.68278   1.69389   1.70938
 Alpha virt. eigenvalues --    1.71627   1.72492   1.73506   1.75140   1.76654
 Alpha virt. eigenvalues --    1.77578   1.77920   1.78924   1.80577   1.82362
 Alpha virt. eigenvalues --    1.82691   1.83809   1.85398   1.87404   1.87791
 Alpha virt. eigenvalues --    1.88664   1.89486   1.89983   1.90662   1.92062
 Alpha virt. eigenvalues --    1.93295   1.94690   1.95467   1.96256   1.97134
 Alpha virt. eigenvalues --    1.98071   2.00306   2.00930   2.01877   2.02688
 Alpha virt. eigenvalues --    2.03930   2.04318   2.05377   2.05401   2.07178
 Alpha virt. eigenvalues --    2.09084   2.09547   2.10863   2.11181   2.12124
 Alpha virt. eigenvalues --    2.12881   2.13453   2.14958   2.16971   2.17739
 Alpha virt. eigenvalues --    2.18063   2.18884   2.20198   2.20985   2.22564
 Alpha virt. eigenvalues --    2.23808   2.24508   2.25367   2.25808   2.26841
 Alpha virt. eigenvalues --    2.27996   2.28655   2.30325   2.30765   2.31234
 Alpha virt. eigenvalues --    2.32219   2.33440   2.33670   2.34709   2.35863
 Alpha virt. eigenvalues --    2.36816   2.38132   2.38969   2.41195   2.41767
 Alpha virt. eigenvalues --    2.42235   2.43108   2.43775   2.44251   2.46645
 Alpha virt. eigenvalues --    2.47244   2.47500   2.49074   2.49420   2.50897
 Alpha virt. eigenvalues --    2.52152   2.52403   2.53394   2.55917   2.56133
 Alpha virt. eigenvalues --    2.57517   2.58663   2.59848   2.60854   2.62654
 Alpha virt. eigenvalues --    2.62986   2.63976   2.64195   2.65011   2.66965
 Alpha virt. eigenvalues --    2.68968   2.69335   2.70571   2.71756   2.73615
 Alpha virt. eigenvalues --    2.74640   2.76061   2.77846   2.78618   2.79877
 Alpha virt. eigenvalues --    2.81269   2.82531   2.86994   2.87583   2.88362
 Alpha virt. eigenvalues --    2.88875   2.90468   2.91583   2.94161   2.95185
 Alpha virt. eigenvalues --    2.96252   2.98962   3.00801   3.01059   3.01414
 Alpha virt. eigenvalues --    3.03149   3.05583   3.07459   3.09322   3.10100
 Alpha virt. eigenvalues --    3.12763   3.16022   3.17559   3.20331   3.22677
 Alpha virt. eigenvalues --    3.25925   3.26964   3.28694   3.34499   3.35678
 Alpha virt. eigenvalues --    3.40664   3.43461   3.44227   3.47720   3.48012
 Alpha virt. eigenvalues --    3.50103   3.56353   3.59425   3.65807   3.70460
 Alpha virt. eigenvalues --    3.72314   3.73986   3.74454   3.76579   3.76955
 Alpha virt. eigenvalues --    3.78777   3.81046   3.81470   3.82444   3.83227
 Alpha virt. eigenvalues --    3.84738   3.86505   3.87040   3.88219   3.92591
 Alpha virt. eigenvalues --    3.93161   3.94404   3.95925   3.97691   4.01114
 Alpha virt. eigenvalues --    4.03207   4.05604   4.07839   4.10477   4.11677
 Alpha virt. eigenvalues --    4.13706   4.17517   4.23240   4.29695   4.34132
 Alpha virt. eigenvalues --    4.35527   4.44407
          Condensed to atoms (all electrons):
 Mulliken charges:
               1
     1  C    0.434725
     2  C    0.681129
     3  C    0.529941
     4  C    0.824178
     5  C    0.069326
     6  C    1.483627
     7  C    0.293782
     8  C    0.918683
     9  H    0.206682
    10  H    0.086930
    11  H    0.027926
    12  H    0.011909
    13  H   -0.015440
    14  H   -0.157796
    15  H    0.102364
    16  H   -0.067241
    17  H    0.016442
    18  H   -0.070907
    19  H   -0.224394
    20  H   -0.011998
    21  H    0.050003
    22  H    0.001458
    23  N   -0.314404
    24  N   -0.199102
    25  N   -0.119903
    26  N   -0.301907
    27  O   -0.863176
    28  O   -0.915605
    29  O   -0.794931
    30  O   -0.832386
    31  O   -0.849915
 Sum of Mulliken charges =  -0.00000
 Mulliken charges with hydrogens summed into heavy atoms:
               1
     1  C    0.210331
     2  C    0.681129
     3  C    0.475475
     4  C    0.824178
     5  C   -0.088470
     6  C    1.483627
     7  C    0.290251
     8  C    0.918683
    23  N   -0.276399
    24  N   -0.264886
    25  N   -0.017538
    26  N   -0.187051
    27  O   -0.863176
    28  O   -0.915605
    29  O   -0.794931
    30  O   -0.832386
    31  O   -0.643233
 Electronic spatial extent (au):  <R**2>=           4475.1138
 Charge=             -0.0000 electrons
 Dipole moment (field-independent basis, Debye):
    X=             -6.9947    Y=              4.0463    Z=             -1.8444  Tot=              8.2885
 Unable to Open any file for archive entry.
 1\1\GINC-SE212\Stability\RHF\Aug-CC-pVDZ\C8H14N4O5\OHZDE\08-Apr-2025\0
 \\#t hf aug-cc-pvdz symm=none int=(grid=ultrafine) guess=(read,tcheck)
  stable=(opt,rrhf)\\title\\0,1\C,0,-1.91805,-1.37906,-0.302495\C,0,-0.
 663811,-1.06727,0.522297\C,0,-3.11555,-0.50173,0.101129\C,0,-2.98378,0
 .936453,-0.339628\C,0,1.21321,0.490927,0.946008\C,0,1.70319,1.83458,0.
 484589\C,0,2.4266,-0.507452,0.852707\C,0,2.87199,-1.03862,-0.536861\H,
 0,1.52867,3.14216,-0.848253\H,0,1.86688,0.329366,-1.69752\H,0,3.00208,
 -0.706207,-2.42726\H,0,2.22298,-1.3909,1.45485\H,0,3.31052,-0.0171038,
 1.28444\H,0,0.901174,0.564337,1.99982\H,0,-0.171556,0.56325,-0.708269\
 H,0,-4.95742,1.30108,0.308007\H,0,-4.04185,-0.939938,-0.306057\H,0,-3.
 29857,-0.512735,1.18303\H,0,-1.76014,-1.10331,-1.35711\H,0,-1.50939,-3
 .29735,-0.638697\H,0,-2.34097,-3.03462,0.720705\H,0,-4.06499,2.62791,-
 0.312881\N,0,-2.25791,-2.74647,-0.243987\N,0,-4.08495,1.66178,-0.01756
 3\N,0,0.0807348,-0.0237176,0.121739\N,0,2.7221,-0.202502,-1.5906\O,0,3
 .48606,-2.07773,-0.656986\O,0,-0.430234,-1.72569,1.5319\O,0,-2.02838,1
 .38627,-0.976576\O,0,2.4689,2.49051,1.13367\O,0,1.11491,2.30706,-0.645
 569\\Version=ES64L-G16RevC.01\HF=-903.4079791\RMSD=3.062e-09\Dipole=-2
 .7519119,1.5919281,-0.7256244\Quadrupole=4.8865011,-5.3340044,0.447503
 3,-0.266627,-5.7379868,-1.5658038\PG=Unknown\\@
 The archive entry for this job was punched.


 IT IS UNWORTHY OF EXCELLENT MEN TO LOSE HOURS LIKE SLAVES IN THE LABOR
 OF CALCULATION WHICH COULD BE SAFELY RELEGATED TO ANYONE ELSE
 IF A MACHINE WERE USED.
    -- G.W. VON LEIBNIZ
 Job cpu time:       0 days  5 hours 19 minutes  2.1 seconds.
 Elapsed time:       0 days  0 hours 20 minutes 56.1 seconds.
 File lengths (MBytes):  RWF=   1221 Int=      0 D2E=      0 Chk=     34 Scr=      1
 Normal termination of Gaussian 16 at Tue Apr  8 20:33:05 2025.
 Initial command:
 /arc/software/Gaussian/g16.c01/l1.exe "/tmp/slurm/4836391/Gau-3922466.inp" -scrdir="/tmp/slurm/4836391/"
 Entering Link 1 = /arc/software/Gaussian/g16.c01/l1.exe PID=   3927888.
  
 Copyright (c) 1988-2019, Gaussian, Inc.  All Rights Reserved.
  
 This is part of the Gaussian(R) 16 program.  It is based on
 the Gaussian(R) 09 system (copyright 2009, Gaussian, Inc.),
 the Gaussian(R) 03 system (copyright 2003, Gaussian, Inc.),
 the Gaussian(R) 98 system (copyright 1998, Gaussian, Inc.),
 the Gaussian(R) 94 system (copyright 1995, Gaussian, Inc.),
 the Gaussian 92(TM) system (copyright 1992, Gaussian, Inc.),
 the Gaussian 90(TM) system (copyright 1990, Gaussian, Inc.),
 the Gaussian 88(TM) system (copyright 1988, Gaussian, Inc.),
 the Gaussian 86(TM) system (copyright 1986, Carnegie Mellon
 University), and the Gaussian 82(TM) system (copyright 1983,
 Carnegie Mellon University). Gaussian is a federally registered
 trademark of Gaussian, Inc.
  
 This software contains proprietary and confidential information,
 including trade secrets, belonging to Gaussian, Inc.
  
 This software is provided under written license and may be
 used, copied, transmitted, or stored only in accord with that
 written license.
  
 The following legend is applicable only to US Government
 contracts under FAR:
  
                    RESTRICTED RIGHTS LEGEND
  
 Use, reproduction and disclosure by the US Government is
 subject to restrictions as set forth in subparagraphs (a)
 and (c) of the Commercial Computer Software - Restricted
 Rights clause in FAR 52.227-19.
  
 Gaussian, Inc.
 340 Quinnipiac St., Bldg. 40, Wallingford CT 06492
  
  
 ---------------------------------------------------------------
 Warning -- This program may not be used in any manner that
 competes with the business of Gaussian, Inc. or will provide
 assistance to any competitor of Gaussian, Inc.  The licensee
 of this program is prohibited from giving any competitor of
 Gaussian, Inc. access to this program.  By using this program,
 the user acknowledges that Gaussian, Inc. is engaged in the
 business of creating and licensing software in the field of
 computational chemistry and represents and warrants to the
 licensee that it is not a competitor of Gaussian, Inc. and that
 it will not use this program in any manner prohibited above.
 ---------------------------------------------------------------
  

 Cite this work as:
 Gaussian 16, Revision C.01,
 M. J. Frisch, G. W. Trucks, H. B. Schlegel, G. E. Scuseria, 
 M. A. Robb, J. R. Cheeseman, G. Scalmani, V. Barone, 
 G. A. Petersson, H. Nakatsuji, X. Li, M. Caricato, A. V. Marenich, 
 J. Bloino, B. G. Janesko, R. Gomperts, B. Mennucci, H. P. Hratchian, 
 J. V. Ortiz, A. F. Izmaylov, J. L. Sonnenberg, D. Williams-Young, 
 F. Ding, F. Lipparini, F. Egidi, J. Goings, B. Peng, A. Petrone, 
 T. Henderson, D. Ranasinghe, V. G. Zakrzewski, J. Gao, N. Rega, 
 G. Zheng, W. Liang, M. Hada, M. Ehara, K. Toyota, R. Fukuda, 
 J. Hasegawa, M. Ishida, T. Nakajima, Y. Honda, O. Kitao, H. Nakai, 
 T. Vreven, K. Throssell, J. A. Montgomery, Jr., J. E. Peralta, 
 F. Ogliaro, M. J. Bearpark, J. J. Heyd, E. N. Brothers, K. N. Kudin, 
 V. N. Staroverov, T. A. Keith, R. Kobayashi, J. Normand, 
 K. Raghavachari, A. P. Rendell, J. C. Burant, S. S. Iyengar, 
 J. Tomasi, M. Cossi, J. M. Millam, M. Klene, C. Adamo, R. Cammi, 
 J. W. Ochterski, R. L. Martin, K. Morokuma, O. Farkas, 
 J. B. Foresman, and D. J. Fox, Gaussian, Inc., Wallingford CT, 2019.
 
 ******************************************
 Gaussian 16:  ES64L-G16RevC.01  3-Jul-2019
                 8-Apr-2025 
 ******************************************
 %nprocs=16
 Will use up to   16 processors via shared memory.
 %mem=30GB
 %chk=ANI1ccx_1597_conf3_mol2.chk
 ----------------------------------------------------------------------
 #t hf aug-cc-pvdz iop(5/13=1,5/36=2,99/5=2) pseudo=read geom=check gue
 ss=(read,tcheck) scf=(maxcycle=1)
 ----------------------------------------------------------------------
 -----
 title
 -----
 Structure from the checkpoint file:  "ANI1ccx_1597_conf3_mol2.chk"
 Charge =  0 Multiplicity = 1
 Z-Matrix found in chk file.
 C,0,-1.91805,-1.37906,-0.302495
 C,0,-0.663811,-1.06727,0.522297
 C,0,-3.11555,-0.50173,0.101129
 C,0,-2.98378,0.936453,-0.339628
 C,0,1.21321,0.490927,0.946008
 C,0,1.70319,1.83458,0.484589
 C,0,2.4266,-0.507452,0.852707
 C,0,2.87199,-1.03862,-0.536861
 H,0,1.52867,3.14216,-0.848253
 H,0,1.86688,0.329366,-1.69752
 H,0,3.00208,-0.706207,-2.42726
 H,0,2.22298,-1.3909,1.45485
 H,0,3.31052,-0.0171038,1.28444
 H,0,0.901174,0.564337,1.99982
 H,0,-0.171556,0.56325,-0.708269
 H,0,-4.95742,1.30108,0.308007
 H,0,-4.04185,-0.939938,-0.306057
 H,0,-3.29857,-0.512735,1.18303
 H,0,-1.76014,-1.10331,-1.35711
 H,0,-1.50939,-3.29735,-0.638697
 H,0,-2.34097,-3.03462,0.720705
 H,0,-4.06499,2.62791,-0.312881
 N,0,-2.25791,-2.74647,-0.243987
 N,0,-4.08495,1.66178,-0.017563
 N,0,0.0807348,-0.0237176,0.121739
 N,0,2.7221,-0.202502,-1.5906
 O,0,3.48606,-2.07773,-0.656986
 O,0,-0.430234,-1.72569,1.5319
 O,0,-2.02838,1.38627,-0.976576
 O,0,2.4689,2.49051,1.13367
 O,0,1.11491,2.30706,-0.645569
 Recover connectivity data from disk.
                    Distance matrix (angstroms):
                    1          2          3          4          5
     1  C    0.000000
     2  C    1.533170   0.000000
     3  C    1.538384   2.551126   0.000000
     4  C    2.549267   3.184349   1.509967   0.000000
     5  C    3.854919   2.476028   4.520769   4.412038   0.000000
     6  C    4.905136   3.744977   5.368952   4.842897   1.502794
     7  C    4.579320   3.158038   5.592882   5.725272   1.574097
     8  C    4.807838   3.691141   6.045322   6.183030   2.699994
     9  H    5.711319   4.940109   5.978966   5.048371   3.216819
    10  H    4.380697   3.644527   5.361946   5.073591   2.727935
    11  H    5.401392   4.719005   6.622685   6.548821   4.001515
    12  H    4.498503   3.050894   5.578807   5.978886   2.195411
    13  H    5.631273   4.180792   6.552058   6.570014   2.184340
    14  H    4.126193   2.700814   4.568982   4.550204   1.101488
    15  H    2.643381   2.101238   3.233637   2.860731   2.158574
    16  H    4.098004   4.908165   2.585615   2.108943   6.256202
    17  H    2.168725   3.480450   1.102660   2.154410   5.588443
    18  H    2.205253   2.772369   1.097327   2.125494   4.628140
    19  H    1.101447   2.176099   2.079783   2.587121   4.084942
    20  H    1.989943   2.652578   3.307958   4.493145   4.926955
    21  H    1.991652   2.592816   2.720180   4.160160   5.011231
    22  H    4.545907   5.091159   3.296587   2.007675   5.831886
    23  N    1.410226   2.438864   2.427655   3.754991   4.893414
    24  N    3.744776   4.409462   2.373731   1.357351   5.510886
    25  N    2.451952   1.343055   3.231897   3.244386   1.492239
    26  N    4.957267   4.083693   6.085199   5.951405   3.031827
    27  O    5.460605   4.430933   6.829332   7.144568   3.785952
    28  O    2.387206   1.227751   3.279650   4.136450   2.820916
    29  O    2.848440   3.182535   2.430624   1.233218   3.873742
    30  O    6.023410   4.779692   6.419168   5.858107   2.368609
    31  O    4.785815   3.989218   5.132607   4.332600   2.416841
                    6          7          8          9         10
     6  C    0.000000
     7  C    2.478699   0.000000
     8  C    3.265690   1.552872   0.000000
     9  H    1.875284   4.125435   4.402317   0.000000
    10  H    2.655949   2.741753   2.056395   2.957609   0.000000
    11  H    4.076957   3.335995   1.923806   4.412950   1.701062
    12  H    3.408124   1.088355   2.124201   5.131762   3.608817
    13  H    2.579148   1.099158   2.133762   4.207650   3.331099
    14  H    2.133699   2.188955   3.590033   3.892357   3.828593
    15  H    2.560051   3.214570   3.443623   3.092109   2.277837
    16  H    6.684275   7.621761   8.215087   6.840751   7.178958
    17  H    6.428729   6.585638   6.918395   6.927351   6.201644
    18  H    5.569139   5.734694   6.427316   6.386440   5.973992
    19  H    4.900786   4.771491   4.704638   5.394369   3.914552
    20  H    6.157852   5.049736   4.930388   7.123273   5.066890
    21  H    6.334042   5.397567   5.721926   7.455760   5.905101
    22  H    5.876839   7.302728   7.849541   5.642704   6.510577
    23  N    6.099767   5.306654   5.414647   7.027040   5.346720
    24  N    5.812451   6.918325   7.480698   5.864665   6.326284
    25  N    2.493450   2.504276   3.042184   3.613887   2.573847
    26  N    3.081281   2.479932   1.353487   3.627963   1.012777
    27  O    4.448369   2.422272   1.212956   5.578101   3.081974
    28  O    4.280640   3.179136   3.956832   5.761805   4.464207
    29  O    4.032443   5.174873   5.485168   3.968907   4.099983
    30  O    1.199109   3.011396   3.925292   2.288383   3.612286
    31  O    1.358885   3.447730   3.780572   0.953766   2.362908
                   11         12         13         14         15
    11  H    0.000000
    12  H    4.018281   0.000000
    13  H    3.787706   1.760426   0.000000
    14  H    5.062324   2.422213   2.579688   0.000000
    15  H    3.826018   3.772478   4.053709   2.912816   0.000000
    16  H    8.652429   7.753718   8.429108   6.142324   4.947899
    17  H    7.360101   6.523209   7.578829   5.658038   4.171394
    18  H    7.264284   5.597551   6.628424   4.411925   3.809590
    19  H    4.897106   4.884165   5.819727   4.597023   2.392074
    20  H    5.501485   4.684877   6.139218   5.261674   4.086425
    21  H    6.624151   4.906162   6.431372   5.010002   4.437679
    22  H    8.095086   7.669046   7.996604   5.854033   4.424701
    23  N    6.049533   4.980160   6.386935   5.096658   3.939883
    24  N    7.851114   7.160785   7.694598   5.489595   4.122923
    25  N    3.936679   2.869771   3.432700   2.132163   1.047423
    26  N    1.015927   3.306989   2.940487   4.098162   3.120598
    27  O    2.291109   2.554791   2.836570   4.552007   4.511714
    28  O    5.338078   2.675363   4.119920   2.689948   3.213179
    29  O    5.638127   5.630148   5.965359   4.256383   2.048694
    30  O    4.814925   3.902432   2.649374   2.630233   3.752210
    31  O    3.976885   4.394825   3.734619   3.175035   2.167902
                   16         17         18         19         20
    16  H    0.000000
    17  H    2.497500   0.000000
    18  H    2.609094   1.718240   0.000000
    19  H    4.333163   2.517460   3.027847   0.000000
    20  H    5.825008   3.475830   3.778086   2.322241   0.000000
    21  H    5.080790   2.887027   2.736904   2.895624   1.615093
    22  H    1.715346   3.567930   3.562134   4.508298   6.461111
    23  N    4.896398   2.539656   2.847617   2.046165   1.009726
    24  N    0.998651   2.618019   2.605443   3.852902   5.622481
    25  N    5.212752   4.244782   3.575637   2.596408   3.717987
    26  N    8.052360   6.924224   6.636093   4.577821   5.328200
    27  O    9.145486   7.621493   7.201810   5.381662   5.142210
    28  O    5.581636   4.127864   3.133739   3.240738   2.888976
    29  O    3.199482   3.148794   3.143804   2.532739   4.724385
    30  O    7.566154   7.498710   6.502740   6.083117   7.243438
    31  O    6.228523   6.103314   5.547416   4.516949   6.188409
                   21         22         23         24         25
    21  H    0.000000
    22  H    6.008726   0.000000
    23  N    1.010228   5.670471   0.000000
    24  N    5.063860   1.010455   4.777239   0.000000
    25  N    3.910108   4.940350   3.607824   4.495913   0.000000
    26  N    6.244814   7.463805   5.752012   7.230901   3.152916
    27  O    6.063658   8.903921   5.797497   8.468352   4.052360
    28  O    2.454027   5.963933   2.745208   5.218500   2.268558
    29  O    4.745813   2.475872   4.203440   2.285846   2.764548
    30  O    7.337060   6.693512   7.187950   6.705601   3.612295
    31  O    6.507177   5.200480   6.088953   5.277246   2.662856
                   26         27         28         29         30
    26  N    0.000000
    27  O    2.229742   0.000000
    28  O    4.691196   4.500279   0.000000
    29  O    5.046611   6.520006   4.304744   0.000000
    30  O    3.839020   5.010976   5.132242   5.089009   0.000000
    31  O    3.126347   4.984864   4.836519   3.292065   2.243353
                   31
    31  O    0.000000
 Framework group  C1[X(C8H14N4O5)]
 Deg. of freedom    87
                         Standard orientation:                         
 ---------------------------------------------------------------------
 Center     Atomic      Atomic             Coordinates (Angstroms)
 Number     Number       Type             X           Y           Z
 ---------------------------------------------------------------------
      1          6           0       -1.918051   -1.379059   -0.302494
      2          6           0       -0.663812   -1.067269    0.522298
      3          6           0       -3.115551   -0.501729    0.101130
      4          6           0       -2.983780    0.936454   -0.339627
      5          6           0        1.213209    0.490928    0.946009
      6          6           0        1.703190    1.834580    0.484590
      7          6           0        2.426599   -0.507452    0.852708
      8          6           0        2.871989   -1.038620   -0.536860
      9          1           0        1.528670    3.142160   -0.848252
     10          1           0        1.866879    0.329366   -1.697519
     11          1           0        3.002079   -0.706207   -2.427259
     12          1           0        2.222979   -1.390900    1.454851
     13          1           0        3.310519   -0.017104    1.284441
     14          1           0        0.901173    0.564338    1.999821
     15          1           0       -0.171557    0.563251   -0.708268
     16          1           0       -4.957420    1.301082    0.308008
     17          1           0       -4.041851   -0.939936   -0.306056
     18          1           0       -3.298571   -0.512734    1.183031
     19          1           0       -1.760141   -1.103309   -1.357109
     20          1           0       -1.509391   -3.297349   -0.638696
     21          1           0       -2.340971   -3.034619    0.720706
     22          1           0       -4.064990    2.627912   -0.312880
     23          7           0       -2.257911   -2.746469   -0.243986
     24          7           0       -4.084950    1.661782   -0.017562
     25          7           0        0.080734   -0.023717    0.121740
     26          7           0        2.722099   -0.202502   -1.590599
     27          8           0        3.486059   -2.077730   -0.656985
     28          8           0       -0.430235   -1.725689    1.531901
     29          8           0       -2.028380    1.386271   -0.976575
     30          8           0        2.468900    2.490510    1.133671
     31          8           0        1.114910    2.307061   -0.645568
 ---------------------------------------------------------------------
 Rotational constants (GHZ):           0.6256412           0.3212906           0.2494466
 ======================================================================================================
                                       Pseudopotential Parameters
 ======================================================================================================
  Center     Atomic      Valence      Angular      Power
  Number     Number     Electrons     Momentum     of R      Exponent        Coefficient   SO-Coeffient
 ======================================================================================================
    1          6            6
                                      G and up 
                                                     0        0.0000010       -0.00007288    0.00000000
                                                     2        0.1200000        0.10466671    0.00000000
                                                     2        0.1400000       -0.65716157    0.00000000
                                                     2        0.1600000        1.18890794    0.00000000
                                                     2        0.2000000       -1.25772850    0.00000000
                                                     2        0.2600000        1.01188378    0.00000000
                                                     2        0.4000000       -1.09380874    0.00000000
                                                     2        0.5000000        0.96944888    0.00000000
                                                     2        1.0000000       -0.79256938    0.00000000
                                                     2        3.0000000        1.06443276    0.00000000
                                      S - G
                                                     0        0.0000010       -0.00635295    0.00000000
                                                     2        0.1200000        0.16918955    0.00000000
                                                     2        0.1600000       -0.38862576    0.00000000
                                                     2        0.2800000        0.25638263    0.00000000
                                                     2        0.5000000        0.29628419    0.00000000
                                                     2        0.9000000       -0.28791512    0.00000000
                                      P - G
                                                     0        0.0000010       -0.04756931    0.00000000
                                                     2        0.1200000        0.28430375    0.00000000
                                                     2        0.1600000       -0.69640032    0.00000000
                                                     2        0.2600000        1.13005668    0.00000000
                                                     2        0.4000000       -1.31433324    0.00000000
                                                     2        0.7000000        0.91526469    0.00000000
                                      D - G
                                                     0        0.0000010       -0.11496411    0.00000000
                                                     2        0.1200000        0.16620776    0.00000000
                                                     2        0.1800000       -0.30959819    0.00000000
                                                     2        0.3000000        0.16621458    0.00000000
                                                     2        0.6000000        0.27350556    0.00000000
                                      F - G
                                                     0        0.0000010        0.12037550    0.00000000
                                                     2        0.1200000       -0.48737077    0.00000000
                                                     2        0.1400000        0.58315350    0.00000000
                                                     2        0.3000000        0.00005188    0.00000000
                                                     2        0.5000000       -1.16063549    0.00000000
                                                     2        0.8000000        2.09053308    0.00000000
    2          6            6
                                      G and up 
                                                     0        0.0000010       -0.00007288    0.00000000
                                                     2        0.1200000        0.10466671    0.00000000
                                                     2        0.1400000       -0.65716157    0.00000000
                                                     2        0.1600000        1.18890794    0.00000000
                                                     2        0.2000000       -1.25772850    0.00000000
                                                     2        0.2600000        1.01188378    0.00000000
                                                     2        0.4000000       -1.09380874    0.00000000
                                                     2        0.5000000        0.96944888    0.00000000
                                                     2        1.0000000       -0.79256938    0.00000000
                                                     2        3.0000000        1.06443276    0.00000000
                                      S - G
                                                     0        0.0000010       -0.00635295    0.00000000
                                                     2        0.1200000        0.16918955    0.00000000
                                                     2        0.1600000       -0.38862576    0.00000000
                                                     2        0.2800000        0.25638263    0.00000000
                                                     2        0.5000000        0.29628419    0.00000000
                                                     2        0.9000000       -0.28791512    0.00000000
                                      P - G
                                                     0        0.0000010       -0.04756931    0.00000000
                                                     2        0.1200000        0.28430375    0.00000000
                                                     2        0.1600000       -0.69640032    0.00000000
                                                     2        0.2600000        1.13005668    0.00000000
                                                     2        0.4000000       -1.31433324    0.00000000
                                                     2        0.7000000        0.91526469    0.00000000
                                      D - G
                                                     0        0.0000010       -0.11496411    0.00000000
                                                     2        0.1200000        0.16620776    0.00000000
                                                     2        0.1800000       -0.30959819    0.00000000
                                                     2        0.3000000        0.16621458    0.00000000
                                                     2        0.6000000        0.27350556    0.00000000
                                      F - G
                                                     0        0.0000010        0.12037550    0.00000000
                                                     2        0.1200000       -0.48737077    0.00000000
                                                     2        0.1400000        0.58315350    0.00000000
                                                     2        0.3000000        0.00005188    0.00000000
                                                     2        0.5000000       -1.16063549    0.00000000
                                                     2        0.8000000        2.09053308    0.00000000
    3          6            6
                                      G and up 
                                                     0        0.0000010       -0.00007288    0.00000000
                                                     2        0.1200000        0.10466671    0.00000000
                                                     2        0.1400000       -0.65716157    0.00000000
                                                     2        0.1600000        1.18890794    0.00000000
                                                     2        0.2000000       -1.25772850    0.00000000
                                                     2        0.2600000        1.01188378    0.00000000
                                                     2        0.4000000       -1.09380874    0.00000000
                                                     2        0.5000000        0.96944888    0.00000000
                                                     2        1.0000000       -0.79256938    0.00000000
                                                     2        3.0000000        1.06443276    0.00000000
                                      S - G
                                                     0        0.0000010       -0.00635295    0.00000000
                                                     2        0.1200000        0.16918955    0.00000000
                                                     2        0.1600000       -0.38862576    0.00000000
                                                     2        0.2800000        0.25638263    0.00000000
                                                     2        0.5000000        0.29628419    0.00000000
                                                     2        0.9000000       -0.28791512    0.00000000
                                      P - G
                                                     0        0.0000010       -0.04756931    0.00000000
                                                     2        0.1200000        0.28430375    0.00000000
                                                     2        0.1600000       -0.69640032    0.00000000
                                                     2        0.2600000        1.13005668    0.00000000
                                                     2        0.4000000       -1.31433324    0.00000000
                                                     2        0.7000000        0.91526469    0.00000000
                                      D - G
                                                     0        0.0000010       -0.11496411    0.00000000
                                                     2        0.1200000        0.16620776    0.00000000
                                                     2        0.1800000       -0.30959819    0.00000000
                                                     2        0.3000000        0.16621458    0.00000000
                                                     2        0.6000000        0.27350556    0.00000000
                                      F - G
                                                     0        0.0000010        0.12037550    0.00000000
                                                     2        0.1200000       -0.48737077    0.00000000
                                                     2        0.1400000        0.58315350    0.00000000
                                                     2        0.3000000        0.00005188    0.00000000
                                                     2        0.5000000       -1.16063549    0.00000000
                                                     2        0.8000000        2.09053308    0.00000000
    4          6            6
                                      G and up 
                                                     0        0.0000010       -0.00007288    0.00000000
                                                     2        0.1200000        0.10466671    0.00000000
                                                     2        0.1400000       -0.65716157    0.00000000
                                                     2        0.1600000        1.18890794    0.00000000
                                                     2        0.2000000       -1.25772850    0.00000000
                                                     2        0.2600000        1.01188378    0.00000000
                                                     2        0.4000000       -1.09380874    0.00000000
                                                     2        0.5000000        0.96944888    0.00000000
                                                     2        1.0000000       -0.79256938    0.00000000
                                                     2        3.0000000        1.06443276    0.00000000
                                      S - G
                                                     0        0.0000010       -0.00635295    0.00000000
                                                     2        0.1200000        0.16918955    0.00000000
                                                     2        0.1600000       -0.38862576    0.00000000
                                                     2        0.2800000        0.25638263    0.00000000
                                                     2        0.5000000        0.29628419    0.00000000
                                                     2        0.9000000       -0.28791512    0.00000000
                                      P - G
                                                     0        0.0000010       -0.04756931    0.00000000
                                                     2        0.1200000        0.28430375    0.00000000
                                                     2        0.1600000       -0.69640032    0.00000000
                                                     2        0.2600000        1.13005668    0.00000000
                                                     2        0.4000000       -1.31433324    0.00000000
                                                     2        0.7000000        0.91526469    0.00000000
                                      D - G
                                                     0        0.0000010       -0.11496411    0.00000000
                                                     2        0.1200000        0.16620776    0.00000000
                                                     2        0.1800000       -0.30959819    0.00000000
                                                     2        0.3000000        0.16621458    0.00000000
                                                     2        0.6000000        0.27350556    0.00000000
                                      F - G
                                                     0        0.0000010        0.12037550    0.00000000
                                                     2        0.1200000       -0.48737077    0.00000000
                                                     2        0.1400000        0.58315350    0.00000000
                                                     2        0.3000000        0.00005188    0.00000000
                                                     2        0.5000000       -1.16063549    0.00000000
                                                     2        0.8000000        2.09053308    0.00000000
    5          6            6
                                      G and up 
                                                     0        0.0000010       -0.00007288    0.00000000
                                                     2        0.1200000        0.10466671    0.00000000
                                                     2        0.1400000       -0.65716157    0.00000000
                                                     2        0.1600000        1.18890794    0.00000000
                                                     2        0.2000000       -1.25772850    0.00000000
                                                     2        0.2600000        1.01188378    0.00000000
                                                     2        0.4000000       -1.09380874    0.00000000
                                                     2        0.5000000        0.96944888    0.00000000
                                                     2        1.0000000       -0.79256938    0.00000000
                                                     2        3.0000000        1.06443276    0.00000000
                                      S - G
                                                     0        0.0000010       -0.00635295    0.00000000
                                                     2        0.1200000        0.16918955    0.00000000
                                                     2        0.1600000       -0.38862576    0.00000000
                                                     2        0.2800000        0.25638263    0.00000000
                                                     2        0.5000000        0.29628419    0.00000000
                                                     2        0.9000000       -0.28791512    0.00000000
                                      P - G
                                                     0        0.0000010       -0.04756931    0.00000000
                                                     2        0.1200000        0.28430375    0.00000000
                                                     2        0.1600000       -0.69640032    0.00000000
                                                     2        0.2600000        1.13005668    0.00000000
                                                     2        0.4000000       -1.31433324    0.00000000
                                                     2        0.7000000        0.91526469    0.00000000
                                      D - G
                                                     0        0.0000010       -0.11496411    0.00000000
                                                     2        0.1200000        0.16620776    0.00000000
                                                     2        0.1800000       -0.30959819    0.00000000
                                                     2        0.3000000        0.16621458    0.00000000
                                                     2        0.6000000        0.27350556    0.00000000
                                      F - G
                                                     0        0.0000010        0.12037550    0.00000000
                                                     2        0.1200000       -0.48737077    0.00000000
                                                     2        0.1400000        0.58315350    0.00000000
                                                     2        0.3000000        0.00005188    0.00000000
                                                     2        0.5000000       -1.16063549    0.00000000
                                                     2        0.8000000        2.09053308    0.00000000
    6          6            6
                                      G and up 
                                                     0        0.0000010       -0.00007288    0.00000000
                                                     2        0.1200000        0.10466671    0.00000000
                                                     2        0.1400000       -0.65716157    0.00000000
                                                     2        0.1600000        1.18890794    0.00000000
                                                     2        0.2000000       -1.25772850    0.00000000
                                                     2        0.2600000        1.01188378    0.00000000
                                                     2        0.4000000       -1.09380874    0.00000000
                                                     2        0.5000000        0.96944888    0.00000000
                                                     2        1.0000000       -0.79256938    0.00000000
                                                     2        3.0000000        1.06443276    0.00000000
                                      S - G
                                                     0        0.0000010       -0.00635295    0.00000000
                                                     2        0.1200000        0.16918955    0.00000000
                                                     2        0.1600000       -0.38862576    0.00000000
                                                     2        0.2800000        0.25638263    0.00000000
                                                     2        0.5000000        0.29628419    0.00000000
                                                     2        0.9000000       -0.28791512    0.00000000
                                      P - G
                                                     0        0.0000010       -0.04756931    0.00000000
                                                     2        0.1200000        0.28430375    0.00000000
                                                     2        0.1600000       -0.69640032    0.00000000
                                                     2        0.2600000        1.13005668    0.00000000
                                                     2        0.4000000       -1.31433324    0.00000000
                                                     2        0.7000000        0.91526469    0.00000000
                                      D - G
                                                     0        0.0000010       -0.11496411    0.00000000
                                                     2        0.1200000        0.16620776    0.00000000
                                                     2        0.1800000       -0.30959819    0.00000000
                                                     2        0.3000000        0.16621458    0.00000000
                                                     2        0.6000000        0.27350556    0.00000000
                                      F - G
                                                     0        0.0000010        0.12037550    0.00000000
                                                     2        0.1200000       -0.48737077    0.00000000
                                                     2        0.1400000        0.58315350    0.00000000
                                                     2        0.3000000        0.00005188    0.00000000
                                                     2        0.5000000       -1.16063549    0.00000000
                                                     2        0.8000000        2.09053308    0.00000000
    7          6            6
                                      G and up 
                                                     0        0.0000010       -0.00007288    0.00000000
                                                     2        0.1200000        0.10466671    0.00000000
                                                     2        0.1400000       -0.65716157    0.00000000
                                                     2        0.1600000        1.18890794    0.00000000
                                                     2        0.2000000       -1.25772850    0.00000000
                                                     2        0.2600000        1.01188378    0.00000000
                                                     2        0.4000000       -1.09380874    0.00000000
                                                     2        0.5000000        0.96944888    0.00000000
                                                     2        1.0000000       -0.79256938    0.00000000
                                                     2        3.0000000        1.06443276    0.00000000
                                      S - G
                                                     0        0.0000010       -0.00635295    0.00000000
                                                     2        0.1200000        0.16918955    0.00000000
                                                     2        0.1600000       -0.38862576    0.00000000
                                                     2        0.2800000        0.25638263    0.00000000
                                                     2        0.5000000        0.29628419    0.00000000
                                                     2        0.9000000       -0.28791512    0.00000000
                                      P - G
                                                     0        0.0000010       -0.04756931    0.00000000
                                                     2        0.1200000        0.28430375    0.00000000
                                                     2        0.1600000       -0.69640032    0.00000000
                                                     2        0.2600000        1.13005668    0.00000000
                                                     2        0.4000000       -1.31433324    0.00000000
                                                     2        0.7000000        0.91526469    0.00000000
                                      D - G
                                                     0        0.0000010       -0.11496411    0.00000000
                                                     2        0.1200000        0.16620776    0.00000000
                                                     2        0.1800000       -0.30959819    0.00000000
                                                     2        0.3000000        0.16621458    0.00000000
                                                     2        0.6000000        0.27350556    0.00000000
                                      F - G
                                                     0        0.0000010        0.12037550    0.00000000
                                                     2        0.1200000       -0.48737077    0.00000000
                                                     2        0.1400000        0.58315350    0.00000000
                                                     2        0.3000000        0.00005188    0.00000000
                                                     2        0.5000000       -1.16063549    0.00000000
                                                     2        0.8000000        2.09053308    0.00000000
    8          6            6
                                      G and up 
                                                     0        0.0000010       -0.00007288    0.00000000
                                                     2        0.1200000        0.10466671    0.00000000
[...]
                                                     2        0.1600000        1.04289661    0.00000000
                                                     2        0.2400000       -1.92800913    0.00000000
                                                     2        0.4000000        2.26691633    0.00000000
                                                     2        0.7000000       -1.97391482    0.00000000
                                      F - G
                                                     0        0.0000010       -0.02604870    0.00000000
                                                     2        0.1200000        0.37362552    0.00000000
                                                     2        0.1600000       -1.43526367    0.00000000
                                                     2        0.2200000        1.76778079    0.00000000
                                                     2        0.5000000       -1.90846303    0.00000000
   31          8            8
                                      G and up 
                                                     0        0.0000010        0.00049668    0.00000000
                                                     2        0.1200000       -0.01803391    0.00000000
                                                     2        0.1400000        0.04014195    0.00000000
                                                     2        0.2000000       -0.02692147    0.00000000
                                                     2        0.2800000       -0.04241843    0.00000000
                                                     2        0.4000000        0.15412145    0.00000000
                                                     2        0.7000000       -0.40587006    0.00000000
                                                     2        1.1000000        1.75666647    0.00000000
                                      S - G
                                                     0        0.0000010       -0.01088195    0.00000000
                                                     2        0.1200000        0.09867335    0.00000000
                                                     2        0.2400000       -0.08484177    0.00000000
                                                     2        0.6000000       -1.39011554    0.00000000
                                                     2        2.5000000        1.36225910    0.00000000
                                      P - G
                                                     0        0.0000010        0.05874028    0.00000000
                                                     2        0.1200000       -0.11700340    0.00000000
                                                     2        0.1600000        0.08847775    0.00000000
                                                     2        0.3000000        0.04709907    0.00000000
                                                     2        1.2000000       -1.80388338    0.00000000
                                      D - G
                                                     0        0.0000010       -0.00541262    0.00000000
                                                     2        0.1200000       -0.26547906    0.00000000
                                                     2        0.1600000        1.04289661    0.00000000
                                                     2        0.2400000       -1.92800913    0.00000000
                                                     2        0.4000000        2.26691633    0.00000000
                                                     2        0.7000000       -1.97391482    0.00000000
                                      F - G
                                                     0        0.0000010       -0.02604870    0.00000000
                                                     2        0.1200000        0.37362552    0.00000000
                                                     2        0.1600000       -1.43526367    0.00000000
                                                     2        0.2200000        1.76778079    0.00000000
                                                     2        0.5000000       -1.90846303    0.00000000
 ======================================================================================================
   517 basis functions,   885 primitive gaussians,   551 cartesian basis functions
    65 alpha electrons       65 beta electrons
       nuclear repulsion energy      1310.2473965756 Hartrees.
 NAtoms=   31 NActive=   31 NUniq=   31 SFac= 1.00D+00 NAtFMM=   60 NAOKFM=F Big=F
   1 Symmetry operations used in ECPInt.
 ECPInt:  NShTT=   24976 NPrTT=  120612 LenC2=   24318 LenP2D=   78704.
 LDataN:  DoStor=T MaxTD1= 6 Len=  172
 Initial guess from the checkpoint file:  "ANI1ccx_1597_conf3_mol2.chk"
 B after Tr=    -0.000001    0.000001    0.000001
         Rot=    1.000000    0.000000    0.000000    0.000000 Ang=   0.00 deg.
 >>>>>>>>>> Convergence criterion not met.
 SCF Done:  E(RHF) =  -904.313591459     A.U. after    2 cycles
            NFock=  1  Conv=0.26D-01     -V/T= 2.0030

 **********************************************************************

            Population analysis using the SCF Density.

 **********************************************************************

 Orbital symmetries:
       Occupied  (A) (A) (A) (A) (A) (A) (A) (A) (A) (A) (A) (A)
                 (A) (A) (A) (A) (A) (A) (A) (A) (A) (A) (A) (A)
                 (A) (A) (A) (A) (A) (A) (A) (A) (A) (A) (A) (A)
                 (A) (A) (A) (A) (A) (A) (A) (A) (A) (A) (A) (A)
                 (A) (A) (A) (A) (A) (A) (A) (A) (A) (A) (A) (A)
                 (A) (A) (A) (A) (A)
       Virtual   (A) (A) (A) (A) (A) (A) (A) (A) (A) (A) (A) (A)
                 (A) (A) (A) (A) (A) (A) (A) (A) (A) (A) (A) (A)
                 (A) (A) (A) (A) (A) (A) (A) (A) (A) (A) (A) (A)
                 (A) (A) (A) (A) (A) (A) (A) (A) (A) (A) (A) (A)
                 (A) (A) (A) (A) (A) (A) (A) (A) (A) (A) (A) (A)
                 (A) (A) (A) (A) (A) (A) (A) (A) (A) (A) (A) (A)
                 (A) (A) (A) (A) (A) (A) (A) (A) (A) (A) (A) (A)
                 (A) (A) (A) (A) (A) (A) (A) (A) (A) (A) (A) (A)
                 (A) (A) (A) (A) (A) (A) (A) (A) (A) (A) (A) (A)
                 (A) (A) (A) (A) (A) (A) (A) (A) (A) (A) (A) (A)
                 (A) (A) (A) (A) (A) (A) (A) (A) (A) (A) (A) (A)
                 (A) (A) (A) (A) (A) (A) (A) (A) (A) (A) (A) (A)
                 (A) (A) (A) (A) (A) (A) (A) (A) (A) (A) (A) (A)
                 (A) (A) (A) (A) (A) (A) (A) (A) (A) (A) (A) (A)
                 (A) (A) (A) (A) (A) (A) (A) (A) (A) (A) (A) (A)
                 (A) (A) (A) (A) (A) (A) (A) (A) (A) (A) (A) (A)
                 (A) (A) (A) (A) (A) (A) (A) (A) (A) (A) (A) (A)
                 (A) (A) (A) (A) (A) (A) (A) (A) (A) (A) (A) (A)
                 (A) (A) (A) (A) (A) (A) (A) (A) (A) (A) (A) (A)
                 (A) (A) (A) (A) (A) (A) (A) (A) (A) (A) (A) (A)
                 (A) (A) (A) (A) (A) (A) (A) (A) (A) (A) (A) (A)
                 (A) (A) (A) (A) (A) (A) (A) (A) (A) (A) (A) (A)
                 (A) (A) (A) (A) (A) (A) (A) (A) (A) (A) (A) (A)
                 (A) (A) (A) (A) (A) (A) (A) (A) (A) (A) (A) (A)
                 (A) (A) (A) (A) (A) (A) (A) (A) (A) (A) (A) (A)
                 (A) (A) (A) (A) (A) (A) (A) (A) (A) (A) (A) (A)
                 (A) (A) (A) (A) (A) (A) (A) (A) (A) (A) (A) (A)
                 (A) (A) (A) (A) (A) (A) (A) (A) (A) (A) (A) (A)
                 (A) (A) (A) (A) (A) (A) (A) (A) (A) (A) (A) (A)
                 (A) (A) (A) (A) (A) (A) (A) (A) (A) (A) (A) (A)
                 (A) (A) (A) (A) (A) (A) (A) (A) (A) (A) (A) (A)
                 (A) (A) (A) (A) (A) (A) (A) (A) (A) (A) (A) (A)
                 (A) (A) (A) (A) (A) (A) (A) (A) (A) (A) (A) (A)
                 (A) (A) (A) (A) (A) (A) (A) (A) (A) (A) (A) (A)
                 (A) (A) (A) (A) (A) (A) (A) (A) (A) (A) (A) (A)
                 (A) (A) (A) (A) (A) (A) (A) (A) (A) (A) (A) (A)
                 (A) (A) (A) (A) (A) (A) (A) (A) (A) (A) (A) (A)
                 (A) (A) (A) (A) (A) (A) (A) (A)
 The electronic state is 1-A.
 Alpha  occ. eigenvalues --  -20.62390 -20.55761 -20.53925 -20.51624 -20.51285
 Alpha  occ. eigenvalues --  -15.55137 -15.53919 -15.52565 -15.49242 -11.41694
 Alpha  occ. eigenvalues --  -11.39016 -11.36115 -11.36063 -11.32046 -11.28794
 Alpha  occ. eigenvalues --  -11.27156 -11.25871  -1.57430  -1.48108  -1.47795
 Alpha  occ. eigenvalues --   -1.46485  -1.46262  -1.25628  -1.25209  -1.22779
 Alpha  occ. eigenvalues --   -1.21820  -1.08182  -1.05606  -0.97057  -0.92869
 Alpha  occ. eigenvalues --   -0.86188  -0.85426  -0.82284  -0.81832  -0.78348
 Alpha  occ. eigenvalues --   -0.76214  -0.75234  -0.73375  -0.72457  -0.71656
 Alpha  occ. eigenvalues --   -0.69268  -0.68913  -0.67323  -0.64969  -0.64690
 Alpha  occ. eigenvalues --   -0.63960  -0.62900  -0.62208  -0.61263  -0.59826
 Alpha  occ. eigenvalues --   -0.58560  -0.57500  -0.55322  -0.54950  -0.53471
 Alpha  occ. eigenvalues --   -0.51427  -0.49709  -0.47175  -0.46810  -0.46421
 Alpha  occ. eigenvalues --   -0.45626  -0.44710  -0.42836  -0.42130  -0.41589
 Alpha virt. eigenvalues --    0.01628   0.03217   0.03670   0.04303   0.04505
 Alpha virt. eigenvalues --    0.04726   0.05240   0.05925   0.06603   0.07034
 Alpha virt. eigenvalues --    0.07424   0.08282   0.09528   0.09815   0.10344
 Alpha virt. eigenvalues --    0.10469   0.11543   0.12102   0.12193   0.12802
 Alpha virt. eigenvalues --    0.13313   0.13753   0.13863   0.14256   0.14280
 Alpha virt. eigenvalues --    0.14650   0.14932   0.15230   0.15694   0.15943
 Alpha virt. eigenvalues --    0.16183   0.17096   0.17283   0.17642   0.18210
 Alpha virt. eigenvalues --    0.18515   0.18853   0.19087   0.19407   0.19895
 Alpha virt. eigenvalues --    0.20313   0.20516   0.21036   0.21392   0.21881
 Alpha virt. eigenvalues --    0.22056   0.22316   0.22646   0.23243   0.24219
 Alpha virt. eigenvalues --    0.24341   0.25036   0.25384   0.26144   0.26593
 Alpha virt. eigenvalues --    0.27144   0.27341   0.27948   0.28173   0.28904
 Alpha virt. eigenvalues --    0.29547   0.30068   0.30512   0.30551   0.31109
 Alpha virt. eigenvalues --    0.31807   0.32511   0.32920   0.33540   0.33751
 Alpha virt. eigenvalues --    0.34278   0.34970   0.35019   0.35445   0.35467
 Alpha virt. eigenvalues --    0.35820   0.35898   0.36594   0.36857   0.37167
 Alpha virt. eigenvalues --    0.37602   0.37931   0.38264   0.38860   0.39068
 Alpha virt. eigenvalues --    0.39666   0.40195   0.40667   0.40959   0.41182
 Alpha virt. eigenvalues --    0.41678   0.41889   0.43068   0.43539   0.43855
 Alpha virt. eigenvalues --    0.44472   0.44826   0.44951   0.45656   0.45814
 Alpha virt. eigenvalues --    0.46934   0.47213   0.47360   0.48011   0.48478
 Alpha virt. eigenvalues --    0.49253   0.49777   0.49992   0.50443   0.51130
 Alpha virt. eigenvalues --    0.51485   0.51715   0.52159   0.52406   0.53182
 Alpha virt. eigenvalues --    0.53404   0.53837   0.54883   0.55666   0.55875
 Alpha virt. eigenvalues --    0.56152   0.56673   0.57226   0.58090   0.58277
 Alpha virt. eigenvalues --    0.58573   0.58890   0.59405   0.59896   0.60971
 Alpha virt. eigenvalues --    0.62029   0.62332   0.62618   0.62792   0.63206
 Alpha virt. eigenvalues --    0.63953   0.64096   0.64576   0.65026   0.65636
 Alpha virt. eigenvalues --    0.66147   0.66682   0.67421   0.68098   0.68435
 Alpha virt. eigenvalues --    0.68880   0.69974   0.70714   0.71126   0.71299
 Alpha virt. eigenvalues --    0.71815   0.72185   0.73215   0.73382   0.74273
 Alpha virt. eigenvalues --    0.74477   0.75530   0.76020   0.76564   0.76758
 Alpha virt. eigenvalues --    0.77523   0.77889   0.79080   0.79630   0.80468
 Alpha virt. eigenvalues --    0.80976   0.81140   0.81816   0.81994   0.82293
 Alpha virt. eigenvalues --    0.82863   0.83378   0.84383   0.84889   0.86080
 Alpha virt. eigenvalues --    0.86576   0.87064   0.87484   0.87660   0.88507
 Alpha virt. eigenvalues --    0.89042   0.89785   0.90154   0.90879   0.92042
 Alpha virt. eigenvalues --    0.92887   0.93140   0.94124   0.94829   0.95681
 Alpha virt. eigenvalues --    0.95972   0.96292   0.97000   0.97616   0.98074
 Alpha virt. eigenvalues --    0.99291   0.99502   1.00091   1.01232   1.01614
 Alpha virt. eigenvalues --    1.02548   1.02806   1.03546   1.03982   1.04573
 Alpha virt. eigenvalues --    1.05748   1.06410   1.07541   1.07846   1.08786
 Alpha virt. eigenvalues --    1.09274   1.09408   1.11463   1.12369   1.13104
 Alpha virt. eigenvalues --    1.13554   1.13628   1.14559   1.15737   1.17642
 Alpha virt. eigenvalues --    1.18462   1.19167   1.19447   1.20213   1.20724
 Alpha virt. eigenvalues --    1.23374   1.23946   1.24177   1.25921   1.26137
 Alpha virt. eigenvalues --    1.27076   1.27444   1.28080   1.28588   1.30051
 Alpha virt. eigenvalues --    1.31595   1.31749   1.33776   1.34445   1.35668
 Alpha virt. eigenvalues --    1.36400   1.37819   1.37908   1.39539   1.40002
 Alpha virt. eigenvalues --    1.40704   1.41641   1.42256   1.43669   1.44364
 Alpha virt. eigenvalues --    1.44993   1.46630   1.47723   1.48185   1.49569
 Alpha virt. eigenvalues --    1.50377   1.51212   1.51813   1.52429   1.52685
 Alpha virt. eigenvalues --    1.54651   1.55564   1.56640   1.57643   1.58511
 Alpha virt. eigenvalues --    1.59665   1.59892   1.60769   1.61766   1.63110
 Alpha virt. eigenvalues --    1.64777   1.66189   1.67940   1.70033   1.70447
 Alpha virt. eigenvalues --    1.71354   1.72172   1.72800   1.74747   1.76783
 Alpha virt. eigenvalues --    1.77048   1.77544   1.78279   1.79453   1.80726
 Alpha virt. eigenvalues --    1.81892   1.82921   1.83822   1.86014   1.86512
 Alpha virt. eigenvalues --    1.88470   1.88703   1.89537   1.90492   1.92058
 Alpha virt. eigenvalues --    1.93411   1.93973   1.94420   1.95065   1.96912
 Alpha virt. eigenvalues --    1.97391   1.99284   1.99853   2.01255   2.02029
 Alpha virt. eigenvalues --    2.02048   2.03099   2.04409   2.05425   2.06005
 Alpha virt. eigenvalues --    2.07143   2.07465   2.08850   2.09497   2.09914
 Alpha virt. eigenvalues --    2.10475   2.11098   2.11892   2.12579   2.13441
 Alpha virt. eigenvalues --    2.14486   2.15189   2.15897   2.16943   2.18417
 Alpha virt. eigenvalues --    2.20087   2.20956   2.21113   2.21980   2.22693
 Alpha virt. eigenvalues --    2.23475   2.24340   2.24820   2.25561   2.26213
 Alpha virt. eigenvalues --    2.26758   2.27589   2.28339   2.29115   2.30243
 Alpha virt. eigenvalues --    2.31694   2.32185   2.32461   2.33031   2.33644
 Alpha virt. eigenvalues --    2.35041   2.35800   2.36998   2.37863   2.38380
 Alpha virt. eigenvalues --    2.38623   2.40611   2.40947   2.42592   2.43701
 Alpha virt. eigenvalues --    2.44963   2.45691   2.46602   2.48551   2.49401
 Alpha virt. eigenvalues --    2.50384   2.51243   2.52332   2.52509   2.53757
 Alpha virt. eigenvalues --    2.55628   2.56434   2.58188   2.58619   2.59918
 Alpha virt. eigenvalues --    2.60690   2.61885   2.62802   2.64407   2.65350
 Alpha virt. eigenvalues --    2.66607   2.68351   2.68837   2.69797   2.73458
 Alpha virt. eigenvalues --    2.74372   2.74611   2.75977   2.76821   2.77652
 Alpha virt. eigenvalues --    2.78468   2.80975   2.82166   2.84353   2.86465
 Alpha virt. eigenvalues --    2.86733   2.91156   2.92180   2.92461   2.93122
 Alpha virt. eigenvalues --    2.96426   2.97344   2.99735   3.03203   3.05606
 Alpha virt. eigenvalues --    3.07996   3.09773   3.10086   3.12272   3.16680
 Alpha virt. eigenvalues --    3.18943   3.22713   3.24345   3.27589   3.29669
 Alpha virt. eigenvalues --    3.30864   3.31663   3.38793   3.39673   3.41393
 Alpha virt. eigenvalues --    3.44735   3.48809   3.52386   3.52934   3.59132
 Alpha virt. eigenvalues --    3.60648   3.64771   3.75672   3.80181   3.83547
 Alpha virt. eigenvalues --    3.85132   3.86351   3.88795   3.90817   3.91729
 Alpha virt. eigenvalues --    3.93301   3.94677   3.95999   3.97070   3.98916
 Alpha virt. eigenvalues --    4.00157   4.01201   4.03929   4.05234   4.07955
 Alpha virt. eigenvalues --    4.10999   4.12875   4.15504   4.16656   4.19139
 Alpha virt. eigenvalues --    4.20678   4.24077   4.31909   4.37266   4.38429
 Alpha virt. eigenvalues --    4.41494   4.53147
          Condensed to atoms (all electrons):
 Mulliken charges:
               1
     1  C   -2.184942
     2  C    0.506582
     3  C    0.052817
     4  C    0.321280
     5  C   -1.615532
     6  C    2.748018
     7  C   -0.208917
     8  C    0.300603
     9  H    0.394464
    10  H    0.101543
    11  H    0.143618
    12  H    0.210461
    13  H    0.248932
    14  H    0.095099
    15  H    0.321860
    16  H    0.003489
    17  H    0.286074
    18  H    0.248274
    19  H    0.039919
    20  H    0.177375
    21  H    0.273315
    22  H    0.134169
    23  N    1.076562
    24  N    0.867553
    25  N    1.821789
    26  N    0.777488
    27  O   -1.363318
    28  O   -1.471412
    29  O   -1.435415
    30  O   -1.403754
    31  O   -1.467997
 Sum of Mulliken charges =  -0.00000
 Mulliken charges with hydrogens summed into heavy atoms:
               1
     1  C   -2.145022
     2  C    0.506582
     3  C    0.587165
     4  C    0.321280
     5  C   -1.520433
     6  C    2.748018
     7  C    0.250477
     8  C    0.300603
    23  N    1.527252
    24  N    1.005211
    25  N    2.143649
    26  N    1.022649
    27  O   -1.363318
    28  O   -1.471412
    29  O   -1.435415
    30  O   -1.403754
    31  O   -1.073533
 Electronic spatial extent (au):  <R**2>=           4470.6788
 Charge=              0.0000 electrons
 Dipole moment (field-independent basis, Debye):
    X=             -6.5656    Y=              3.7766    Z=             -1.6379  Tot=              7.7494

 Test job not archived.
 1\1\GINC-SE212\SP\RHF\Aug-CC-pVDZ\C8H14N4O5\OHZDE\08-Apr-2025\0\\#t hf
  aug-cc-pvdz iop(5/13=1,5/36=2,99/5=2) pseudo=read geom=check guess=(r
 ead,tcheck) scf=(maxcycle=1)\\title\\0,1\C,0,-1.91805,-1.37906,-0.3024
 95\C,0,-0.663811,-1.06727,0.522297\C,0,-3.11555,-0.50173,0.101129\C,0,
 -2.98378,0.936453,-0.339628\C,0,1.21321,0.490927,0.946008\C,0,1.70319,
 1.83458,0.484589\C,0,2.4266,-0.507452,0.852707\C,0,2.87199,-1.03862,-0
 .536861\H,0,1.52867,3.14216,-0.848253\H,0,1.86688,0.329366,-1.69752\H,
 0,3.00208,-0.706207,-2.42726\H,0,2.22298,-1.3909,1.45485\H,0,3.31052,-
 0.0171038,1.28444\H,0,0.901174,0.564337,1.99982\H,0,-0.171556,0.56325,
 -0.708269\H,0,-4.95742,1.30108,0.308007\H,0,-4.04185,-0.939938,-0.3060
 57\H,0,-3.29857,-0.512735,1.18303\H,0,-1.76014,-1.10331,-1.35711\H,0,-
 1.50939,-3.29735,-0.638697\H,0,-2.34097,-3.03462,0.720705\H,0,-4.06499
 ,2.62791,-0.312881\N,0,-2.25791,-2.74647,-0.243987\N,0,-4.08495,1.6617
 8,-0.017563\N,0,0.0807348,-0.0237176,0.121739\N,0,2.7221,-0.202502,-1.
 5906\O,0,3.48606,-2.07773,-0.656986\O,0,-0.430234,-1.72569,1.5319\O,0,
 -2.02838,1.38627,-0.976576\O,0,2.4689,2.49051,1.13367\O,0,1.11491,2.30
 706,-0.645569\\Version=ES64L-G16RevC.01\State=1-A\HF=-904.3135915\RMSD
 =2.649e-02\Dipole=-2.5831258,1.4858355,-0.6444162\Quadrupole=4.1757526
 ,-4.5890378,0.4132852,-0.4744262,-5.309438,-1.8812789\PG=C01 [X(C8H14N
 4O5)]\\@


 THE UNDERLYING PHYSICAL LAWS NECESSARY FOR THE 
 MATHEMATICAL THEORY OF A LARGE PART OF PHYSICS AND THE
 WHOLE OF CHEMISTRY ARE THUS COMPLETELY KNOWN, AND THE
 DIFFICULTY IS ONLY THAT THE EXACT APPLICATION OF THESE
 LAWS LEADS TO EQUATIONS MUCH TOO COMPLICATED 
 TO BE SOLUBLE.

                                        -- P. A. M. DIRAC, 1929
 Job cpu time:       0 days  0 hours 11 minutes 41.9 seconds.
 Elapsed time:       0 days  0 hours  0 minutes 48.4 seconds.
 File lengths (MBytes):  RWF=     37 Int=      0 D2E=      0 Chk=     34 Scr=      1
 Normal termination of Gaussian 16 at Tue Apr  8 20:33:54 2025.
