 Entering Gaussian System, Link 0=g16
 Input=ANI1ccx_1715_conf1_mol1.gjf
 Output=ANI1ccx_1715_conf1_mol1.log
 Initial command:
 /arc/software/Gaussian/g16.c01/l1.exe "/tmp/slurm/4836548/Gau-605949.inp" -scrdir="/tmp/slurm/4836548/"
 Entering Link 1 = /arc/software/Gaussian/g16.c01/l1.exe PID=    605950.
  
 Copyright (c) 1988-2019, Gaussian, Inc.  All Rights Reserved.
  
 This is part of the Gaussian(R) 16 program.  It is based on
 the Gaussian(R) 09 system (copyright 2009, Gaussian, Inc.),
 the Gaussian(R) 03 system (copyright 2003, Gaussian, Inc.),
 the Gaussian(R) 98 system (copyright 1998, Gaussian, Inc.),
 the Gaussian(R) 94 system (copyright 1995, Gaussian, Inc.),
 the Gaussian 92(TM) system (copyright 1992, Gaussian, Inc.),
 the Gaussian 90(TM) system (copyright 1990, Gaussian, Inc.),
 the Gaussian 88(TM) system (copyright 1988, Gaussian, Inc.),
 the Gaussian 86(TM) system (copyright 1986, Carnegie Mellon
 University), and the Gaussian 82(TM) system (copyright 1983,
 Carnegie Mellon University). Gaussian is a federally registered
 trademark of Gaussian, Inc.
  
 This software contains proprietary and confidential information,
 including trade secrets, belonging to Gaussian, Inc.
  
 This software is provided under written license and may be
 used, copied, transmitted, or stored only in accord with that
 written license.
  
 The following legend is applicable only to US Government
 contracts under FAR:
  
                    RESTRICTED RIGHTS LEGEND
  
 Use, reproduction and disclosure by the US Government is
 subject to restrictions as set forth in subparagraphs (a)
 and (c) of the Commercial Computer Software - Restricted
 Rights clause in FAR 52.227-19.
  
 Gaussian, Inc.
 340 Quinnipiac St., Bldg. 40, Wallingford CT 06492
  
  
 ---------------------------------------------------------------
 Warning -- This program may not be used in any manner that
 competes with the business of Gaussian, Inc. or will provide
 assistance to any competitor of Gaussian, Inc.  The licensee
 of this program is prohibited from giving any competitor of
 Gaussian, Inc. access to this program.  By using this program,
 the user acknowledges that Gaussian, Inc. is engaged in the
 business of creating and licensing software in the field of
 computational chemistry and represents and warrants to the
 licensee that it is not a competitor of Gaussian, Inc. and that
 it will not use this program in any manner prohibited above.
 ---------------------------------------------------------------
  

 Cite this work as:
 Gaussian 16, Revision C.01,
 M. J. Frisch, G. W. Trucks, H. B. Schlegel, G. E. Scuseria, 
 M. A. Robb, J. R. Cheeseman, G. Scalmani, V. Barone, 
 G. A. Petersson, H. Nakatsuji, X. Li, M. Caricato, A. V. Marenich, 
 J. Bloino, B. G. Janesko, R. Gomperts, B. Mennucci, H. P. Hratchian, 
 J. V. Ortiz, A. F. Izmaylov, J. L. Sonnenberg, D. Williams-Young, 
 F. Ding, F. Lipparini, F. Egidi, J. Goings, B. Peng, A. Petrone, 
 T. Henderson, D. Ranasinghe, V. G. Zakrzewski, J. Gao, N. Rega, 
 G. Zheng, W. Liang, M. Hada, M. Ehara, K. Toyota, R. Fukuda, 
 J. Hasegawa, M. Ishida, T. Nakajima, Y. Honda, O. Kitao, H. Nakai, 
 T. Vreven, K. Throssell, J. A. Montgomery, Jr., J. E. Peralta, 
 F. Ogliaro, M. J. Bearpark, J. J. Heyd, E. N. Brothers, K. N. Kudin, 
 V. N. Staroverov, T. A. Keith, R. Kobayashi, J. Normand, 
 K. Raghavachari, A. P. Rendell, J. C. Burant, S. S. Iyengar, 
 J. Tomasi, M. Cossi, J. M. Millam, M. Klene, C. Adamo, R. Cammi, 
 J. W. Ochterski, R. L. Martin, K. Morokuma, O. Farkas, 
 J. B. Foresman, and D. J. Fox, Gaussian, Inc., Wallingford CT, 2019.
 
 ******************************************
 Gaussian 16:  ES64L-G16RevC.01  3-Jul-2019
                 8-Apr-2025 
 ******************************************
 %nprocs=16
 Will use up to   16 processors via shared memory.
 %mem=30GB
 %chk=ANI1ccx_1715_conf1_mol1.chk
 ----------------------------------------------------------------------
 #t hf aug-cc-pvdz symm=none int=(grid=ultrafine) guess=(read,tcheck) s
 table=(opt,rrhf)
 ----------------------------------------------------------------------
 -----
 title
 -----
 Symbolic Z-matrix:
 Charge =  0 Multiplicity = 1
 C                     1.98627  -1.13476  -0.32695 
 C                    -2.38924   0.49328  -0.31645 
 C                    -2.1288   -0.85306   0.28105 
 C                    -1.10539   0.70679  -1.28454 
 C                     0.23552   0.45853  -0.76147 
 C                     0.95573   1.45492  -0.18313 
 C                     0.79799  -0.86247  -0.91969 
 C                     2.23286   1.12041   0.41663 
 C                     2.78181  -0.15804   0.27399 
 H                    -1.32667  -0.01337  -2.10002 
 H                    -1.19782   1.72932  -1.62907 
 H                    -3.19677   0.46784  -1.10249 
 H                    -2.91053   1.24428   1.47886 
 H                    -1.9499   -1.70239   2.00172 
 H                     2.81338   1.80202   1.04945 
 H                     4.63606   0.45692   0.53736 
 H                     0.63495   2.49344  -0.19222 
 H                     2.50739  -2.06724  -0.24976 
 H                    -1.7921    2.20811   0.77384 
 H                     0.11179  -1.59668  -1.34164 
 N                    -2.62728   1.63917   0.56635 
 O                    -2.10155  -1.81346  -0.44231 
 O                    -2.02623  -0.80684   1.63813 
 O                     4.11038  -0.36097   0.5208 
 
                    Distance matrix (angstroms):
                    1          2          3          4          5
     1  C    0.000000
     2  C    4.668588   0.000000
     3  C    4.169272   1.495817   0.000000
     4  C    3.723794   1.622051   2.435482   0.000000
     5  C    2.406763   2.662443   2.897778   1.460571   0.000000
     6  C    2.790903   3.483009   3.880278   2.453776   1.358670
     7  C    1.355543   3.515732   3.163534   2.493701   1.444456
     8  C    2.387364   4.721706   4.789263   3.769477   2.411510
     9  C    1.395709   5.245245   4.959556   4.276361   2.817080
    10  H    3.921332   2.137021   2.649148   1.110228   2.110646
    11  H    4.476258   2.161073   3.344243   1.082963   2.102877
    12  H    5.480299   1.127211   2.190779   2.112844   3.449200
    13  H    5.735804   2.014670   2.538638   3.344220   3.941335
    14  H    4.608510   3.223029   1.927193   4.161353   4.132900
    15  H    3.347129   5.535860   5.662599   4.690820   3.424878
    16  H    3.209653   7.077087   6.895293   6.028766   4.588219
    17  H    3.874023   3.627919   4.365931   2.722877   2.150455
    18  H    1.071002   5.526092   4.821851   4.670996   3.435515
    19  H    5.163584   2.118006   3.118808   2.638644   3.086980
    20  H    2.180975   3.416733   2.864667   2.605908   2.139109
    21  N    5.456879   1.465973   2.557555   2.571243   3.369370
    22  O    4.145384   2.328015   1.202646   2.837844   3.275010
    23  O    4.479871   2.375390   1.361735   3.417750   3.531962
    24  O    2.414391   6.608766   6.263146   5.621709   4.162974
                    6          7          8          9         10
     6  C    0.000000
     7  C    2.436744   0.000000
     8  C    1.450056   2.788626   0.000000
     9  C    2.478942   2.420054   1.398613   0.000000
    10  H    3.322604   2.574551   4.504355   4.747257   0.000000
    11  H    2.608413   3.347216   4.040446   4.798041   1.809798
    12  H    4.366098   4.214406   5.675777   6.166833   2.173454
    13  H    4.213614   4.893317   5.253394   5.985060   4.110800
    14  H    4.815066   4.097680   5.289254   5.268697   4.479450
    15  H    2.256234   3.877997   1.096386   2.108118   5.509521
    16  H    3.880715   4.312148   2.496031   1.971238   6.536904
    17  H    1.086971   3.437725   2.192994   3.443354   3.711030
    18  H    3.849376   2.195982   3.268110   1.998667   4.726719
    19  H    3.005603   4.359480   4.184614   5.173891   3.662055
    20  H    3.371447   1.089941   3.869500   3.436420   2.269617
    21  N    3.665192   4.494330   4.890040   5.707336   3.395884
    22  O    4.482905   3.088621   5.304005   5.205834   2.566861
    23  O    4.162285   3.810741   4.831791   5.039749   3.884937
    24  O    3.707395   3.646708   2.393828   1.366453   6.045745
                   11         12         13         14         15
    11  H    0.000000
    12  H    2.421657   0.000000
    13  H    3.581601   2.710750   0.000000
    14  H    5.052217   3.987567   3.143097   0.000000
    15  H    4.823845   6.521717   5.767028   5.989703   0.000000
    16  H    6.351897   8.002654   7.645742   7.083913   2.322432
    17  H    2.451012   4.428739   4.113799   5.394425   2.601032
    18  H    5.481328   6.300096   6.580892   5.006965   4.093011
    19  H    2.521183   2.919288   1.636127   4.101781   4.631557
    20  H    3.586078   3.907168   5.016040   3.929348   4.956520
    21  N    2.621330   2.116927   1.033845   3.699344   5.464493
    22  O    3.844012   2.615276   3.700689   2.451244   6.281208
    23  O    4.218169   3.241290   2.239293   0.969556   5.529422
    24  O    6.096575   7.531031   7.265527   6.381186   2.576857
                   16         17         18         19         20
    16  H    0.000000
    17  H    4.548472   0.000000
    18  H    3.394433   4.930430   0.000000
    19  H    6.666621   2.627785   6.149144   0.000000
    20  H    5.311967   4.280648   2.674427   4.751468   0.000000
    21  N    7.358985   3.456495   6.385010   1.031633   4.649048
    22  O    7.177030   5.108851   4.619936   4.212812   2.398885
    23  O    6.869852   4.617780   5.070152   3.145112   3.751532
    24  O    0.972395   4.553532   2.464691   6.442317   4.580876
                   21         22         23         24
    21  N    0.000000
    22  O    3.635167   0.000000
    23  O    2.737319   2.312396   0.000000
    24  O    7.028420   6.451774   6.253416   0.000000
 Symmetry turned off by external request.
 Rotational constants (GHZ):           1.5120893           0.4846918           0.4422536
   398 basis functions,   680 primitive gaussians,   424 cartesian basis functions
    48 alpha electrons       48 beta electrons
       nuclear repulsion energy       791.6547427202 Hartrees.
 NAtoms=   24 NActive=   24 NUniq=   24 SFac= 1.00D+00 NAtFMM=   60 NAOKFM=F Big=F
 ExpMin= 2.97D-02 ExpMax= 1.17D+04 ExpMxC= 4.01D+02 IAcc=3 IRadAn=         5 AccDes= 0.00D+00
 Harris functional with IExCor=  205 and IRadAn=       5 diagonalized for initial guess.
 HarFok:  IExCor=  205 AccDes= 0.00D+00 IRadAn=         5 IDoV= 1 UseB2=F ITyADJ=14
 ICtDFT=  3500011 ScaDFX=  1.000000  1.000000  1.000000  1.000000
 FoFCou: FMM=F IPFlag=           0 FMFlag=      100000 FMFlg1=           0
         NFxFlg=           0 DoJE=T BraDBF=F KetDBF=T FulRan=T
         wScrn=  0.000000 ICntrl=       500 IOpCl=  0 I1Cent=   200000004 NGrid=           0
         NMat0=    1 NMatS0=      1 NMatT0=    0 NMatD0=    1 NMtDS0=    0 NMtDT0=    0
 Symmetry not used in FoFCou.
 SCF Done:  E(RHF) =  -626.311211598     A.U. after   16 cycles
            NFock= 16  Conv=0.54D-08     -V/T= 2.0013

 **********************************************************************

            Population analysis using the SCF Density.

 **********************************************************************

 Alpha  occ. eigenvalues --  -20.63753 -20.60287 -20.56664 -15.56177 -11.40287
 Alpha  occ. eigenvalues --  -11.30954 -11.28788 -11.25193 -11.24724 -11.24594
 Alpha  occ. eigenvalues --  -11.24498 -11.24121 -11.23797  -1.47333  -1.40824
 Alpha  occ. eigenvalues --   -1.38372  -1.19325  -1.15762  -1.06149  -1.02038
 Alpha  occ. eigenvalues --   -0.98426  -0.91285  -0.85941  -0.83033  -0.78610
 Alpha  occ. eigenvalues --   -0.74013  -0.71593  -0.70643  -0.67169  -0.66573
 Alpha  occ. eigenvalues --   -0.65756  -0.63014  -0.62009  -0.60110  -0.59942
 Alpha  occ. eigenvalues --   -0.59165  -0.58334  -0.55570  -0.53456  -0.52642
 Alpha  occ. eigenvalues --   -0.50947  -0.49004  -0.48251  -0.47172  -0.44583
 Alpha  occ. eigenvalues --   -0.40130  -0.34331  -0.30871
 Alpha virt. eigenvalues --    0.02905   0.03621   0.04161   0.04483   0.05289
 Alpha virt. eigenvalues --    0.06068   0.06212   0.06884   0.07035   0.08302
 Alpha virt. eigenvalues --    0.08765   0.09896   0.10819   0.11137   0.11729
 Alpha virt. eigenvalues --    0.12163   0.12787   0.13332   0.13587   0.13897
 Alpha virt. eigenvalues --    0.14294   0.14628   0.15170   0.15191   0.16106
 Alpha virt. eigenvalues --    0.16372   0.16897   0.17489   0.17557   0.17754
 Alpha virt. eigenvalues --    0.18296   0.18573   0.18734   0.19856   0.20006
 Alpha virt. eigenvalues --    0.20366   0.21067   0.21767   0.22016   0.22703
 Alpha virt. eigenvalues --    0.22870   0.23281   0.24407   0.24936   0.25421
 Alpha virt. eigenvalues --    0.26563   0.27394   0.27676   0.28334   0.28725
 Alpha virt. eigenvalues --    0.29277   0.29887   0.30070   0.31358   0.31623
 Alpha virt. eigenvalues --    0.31893   0.32165   0.33365   0.34011   0.34492
 Alpha virt. eigenvalues --    0.34579   0.35086   0.35803   0.36598   0.36981
 Alpha virt. eigenvalues --    0.37275   0.37637   0.38296   0.38873   0.39511
 Alpha virt. eigenvalues --    0.40331   0.40776   0.41190   0.41533   0.42713
 Alpha virt. eigenvalues --    0.43245   0.43870   0.44311   0.45057   0.45345
 Alpha virt. eigenvalues --    0.46119   0.46289   0.47530   0.48201   0.48631
 Alpha virt. eigenvalues --    0.49071   0.49643   0.49830   0.50535   0.50903
 Alpha virt. eigenvalues --    0.51969   0.52192   0.53288   0.53882   0.54889
 Alpha virt. eigenvalues --    0.55056   0.55823   0.56941   0.57995   0.58455
 Alpha virt. eigenvalues --    0.58746   0.59523   0.60472   0.61594   0.62144
 Alpha virt. eigenvalues --    0.62486   0.62830   0.63196   0.63518   0.64674
 Alpha virt. eigenvalues --    0.65142   0.66268   0.66427   0.67640   0.68087
 Alpha virt. eigenvalues --    0.68540   0.69021   0.69132   0.69353   0.69984
 Alpha virt. eigenvalues --    0.70804   0.71380   0.72057   0.72637   0.72967
 Alpha virt. eigenvalues --    0.73482   0.74468   0.75471   0.75827   0.76334
 Alpha virt. eigenvalues --    0.77276   0.78367   0.79319   0.79656   0.80468
 Alpha virt. eigenvalues --    0.80969   0.81810   0.82556   0.83458   0.84132
 Alpha virt. eigenvalues --    0.85275   0.85817   0.86291   0.86648   0.87631
 Alpha virt. eigenvalues --    0.88390   0.89326   0.89971   0.90328   0.91738
 Alpha virt. eigenvalues --    0.92299   0.93710   0.94033   0.94981   0.95629
 Alpha virt. eigenvalues --    0.96190   0.97762   0.98619   0.99372   0.99541
 Alpha virt. eigenvalues --    1.00424   1.00897   1.02370   1.02840   1.04205
 Alpha virt. eigenvalues --    1.04709   1.05224   1.07205   1.07455   1.08685
 Alpha virt. eigenvalues --    1.08946   1.10096   1.10382   1.11014   1.12064
 Alpha virt. eigenvalues --    1.12344   1.14062   1.15026   1.17165   1.19287
 Alpha virt. eigenvalues --    1.20497   1.21572   1.22984   1.24044   1.25083
 Alpha virt. eigenvalues --    1.26615   1.27099   1.28272   1.29543   1.31369
 Alpha virt. eigenvalues --    1.31830   1.33836   1.34438   1.35575   1.37704
 Alpha virt. eigenvalues --    1.38717   1.39195   1.40573   1.42460   1.44552
 Alpha virt. eigenvalues --    1.46518   1.47884   1.48430   1.49314   1.51042
 Alpha virt. eigenvalues --    1.54333   1.55617   1.56507   1.57693   1.59330
 Alpha virt. eigenvalues --    1.59822   1.60117   1.61030   1.61850   1.64098
 Alpha virt. eigenvalues --    1.65839   1.67825   1.68875   1.69104   1.70217
 Alpha virt. eigenvalues --    1.70552   1.72024   1.73023   1.74696   1.75585
 Alpha virt. eigenvalues --    1.75722   1.76909   1.77641   1.78737   1.79698
 Alpha virt. eigenvalues --    1.80258   1.82323   1.83327   1.84121   1.86157
 Alpha virt. eigenvalues --    1.87857   1.88756   1.90513   1.90866   1.92831
 Alpha virt. eigenvalues --    1.93539   1.94878   1.95849   1.97025   1.98381
 Alpha virt. eigenvalues --    1.99358   1.99952   2.01009   2.04319   2.05414
 Alpha virt. eigenvalues --    2.06201   2.06418   2.08623   2.10643   2.11146
 Alpha virt. eigenvalues --    2.12604   2.14107   2.15491   2.17315   2.18154
 Alpha virt. eigenvalues --    2.19302   2.20059   2.21352   2.21825   2.22987
 Alpha virt. eigenvalues --    2.24930   2.25398   2.25858   2.27054   2.28545
 Alpha virt. eigenvalues --    2.29861   2.31129   2.32343   2.34542   2.35289
 Alpha virt. eigenvalues --    2.36683   2.37614   2.39567   2.40754   2.41629
 Alpha virt. eigenvalues --    2.42575   2.44435   2.45231   2.46764   2.47410
 Alpha virt. eigenvalues --    2.50272   2.50511   2.52011   2.52580   2.54066
 Alpha virt. eigenvalues --    2.55671   2.57449   2.59465   2.61308   2.62358
 Alpha virt. eigenvalues --    2.64487   2.65895   2.66782   2.70761   2.71886
 Alpha virt. eigenvalues --    2.74281   2.76801   2.77668   2.79209   2.82287
 Alpha virt. eigenvalues --    2.83888   2.85313   2.89207   2.90617   2.94376
 Alpha virt. eigenvalues --    2.95601   2.98747   3.00770   3.01942   3.04201
 Alpha virt. eigenvalues --    3.05473   3.11537   3.16040   3.17938   3.18979
 Alpha virt. eigenvalues --    3.20634   3.23423   3.27250   3.32931   3.38118
 Alpha virt. eigenvalues --    3.41086   3.42090   3.53942   3.60963   3.66493
 Alpha virt. eigenvalues --    3.70567   3.74018   3.75846   3.78620   3.80427
 Alpha virt. eigenvalues --    3.81861   3.82612   3.83559   3.84840   3.88911
 Alpha virt. eigenvalues --    3.90469   3.91910   3.95301   3.99596   4.09096
 Alpha virt. eigenvalues --    4.16693   4.31678   4.34045   4.40889   4.68633
          Condensed to atoms (all electrons):
 Mulliken charges:
               1
     1  C    0.980609
     2  C    0.058794
     3  C    1.565020
     4  C    0.010760
     5  C    1.058531
     6  C    0.335711
     7  C    0.528510
     8  C    0.307738
     9  C    0.250317
    10  H   -0.091111
    11  H   -0.243932
    12  H    0.063061
    13  H    0.090926
    14  H    0.191034
    15  H   -0.537464
    16  H    0.168449
    17  H   -0.607859
    18  H   -0.528297
    19  H    0.067683
    20  H   -0.564352
    21  N   -0.552039
    22  O   -0.834551
    23  O   -0.817800
    24  O   -0.899742
 Sum of Mulliken charges =  -0.00000
 Mulliken charges with hydrogens summed into heavy atoms:
               1
     1  C    0.452311
     2  C    0.121855
     3  C    1.565020
     4  C   -0.324282
     5  C    1.058531
     6  C   -0.272148
     7  C   -0.035841
     8  C   -0.229725
     9  C    0.250317
    21  N   -0.393429
    22  O   -0.834551
    23  O   -0.626766
    24  O   -0.731293
 Electronic spatial extent (au):  <R**2>=           2619.8939
 Charge=             -0.0000 electrons
 Dipole moment (field-independent basis, Debye):
    X=              1.0583    Y=              1.5371    Z=              1.6857  Tot=              2.5148
 NROrb=    398 NOA=    48 NOB=    48 NVA=   350 NVB=   350

 **** Warning!!: The largest alpha MO coefficient is  0.86107663D+02

    12 initial guesses have been made.
 Iteration     1 Dimension    12 NMult     0 NNew     12
 Iteration     2 Dimension    24 NMult    12 NNew     12
 Iteration     3 Dimension    27 NMult    24 NNew      3
 Iteration     4 Dimension    30 NMult    27 NNew      3
 Iteration     5 Dimension    33 NMult    30 NNew      3
 Iteration     6 Dimension    36 NMult    33 NNew      3
 ***********************************************************************
 Stability analysis using <AA,BB:AA,BB> singles matrix:
 ***********************************************************************
 Ground to excited state transition densities written to RWF  633

 Eigenvectors of the stability matrix:
 
 Excited state symmetry could not be determined.
 Eigenvector   1:      Singlet-?Sym  Eigenvalue= 0.1621768  <S**2>=0.000
      47 -> 60         0.10295
      47 -> 63        -0.26471
      47 -> 65         0.12404
      47 -> 70        -0.11427
      48 -> 59        -0.14830
      48 -> 60         0.40875
      48 -> 61        -0.21210
 The wavefunction is stable under the perturbations considered.
 The wavefunction is already stable.

 **********************************************************************

            Population analysis using the SCF Density.

 **********************************************************************

 Alpha  occ. eigenvalues --  -20.63753 -20.60287 -20.56664 -15.56177 -11.40287
 Alpha  occ. eigenvalues --  -11.30954 -11.28788 -11.25193 -11.24724 -11.24594
 Alpha  occ. eigenvalues --  -11.24498 -11.24121 -11.23797  -1.47333  -1.40824
 Alpha  occ. eigenvalues --   -1.38372  -1.19325  -1.15762  -1.06149  -1.02038
 Alpha  occ. eigenvalues --   -0.98426  -0.91285  -0.85941  -0.83033  -0.78610
 Alpha  occ. eigenvalues --   -0.74013  -0.71593  -0.70643  -0.67169  -0.66573
 Alpha  occ. eigenvalues --   -0.65756  -0.63014  -0.62009  -0.60110  -0.59942
 Alpha  occ. eigenvalues --   -0.59165  -0.58334  -0.55570  -0.53456  -0.52642
 Alpha  occ. eigenvalues --   -0.50947  -0.49004  -0.48251  -0.47172  -0.44583
 Alpha  occ. eigenvalues --   -0.40130  -0.34331  -0.30871
 Alpha virt. eigenvalues --    0.02905   0.03621   0.04161   0.04483   0.05289
 Alpha virt. eigenvalues --    0.06068   0.06212   0.06884   0.07035   0.08302
 Alpha virt. eigenvalues --    0.08765   0.09896   0.10819   0.11137   0.11729
 Alpha virt. eigenvalues --    0.12163   0.12787   0.13332   0.13587   0.13897
 Alpha virt. eigenvalues --    0.14294   0.14628   0.15170   0.15191   0.16106
 Alpha virt. eigenvalues --    0.16372   0.16897   0.17489   0.17557   0.17754
 Alpha virt. eigenvalues --    0.18296   0.18573   0.18734   0.19856   0.20006
 Alpha virt. eigenvalues --    0.20366   0.21067   0.21767   0.22016   0.22703
 Alpha virt. eigenvalues --    0.22870   0.23281   0.24407   0.24936   0.25421
 Alpha virt. eigenvalues --    0.26563   0.27394   0.27676   0.28334   0.28725
 Alpha virt. eigenvalues --    0.29277   0.29887   0.30070   0.31358   0.31623
 Alpha virt. eigenvalues --    0.31893   0.32165   0.33365   0.34011   0.34492
 Alpha virt. eigenvalues --    0.34579   0.35086   0.35803   0.36598   0.36981
 Alpha virt. eigenvalues --    0.37275   0.37637   0.38296   0.38873   0.39511
 Alpha virt. eigenvalues --    0.40331   0.40776   0.41190   0.41533   0.42713
 Alpha virt. eigenvalues --    0.43245   0.43870   0.44311   0.45057   0.45345
 Alpha virt. eigenvalues --    0.46119   0.46289   0.47530   0.48201   0.48631
 Alpha virt. eigenvalues --    0.49071   0.49643   0.49830   0.50535   0.50903
 Alpha virt. eigenvalues --    0.51969   0.52192   0.53288   0.53882   0.54889
 Alpha virt. eigenvalues --    0.55056   0.55823   0.56941   0.57995   0.58455
 Alpha virt. eigenvalues --    0.58746   0.59523   0.60472   0.61594   0.62144
 Alpha virt. eigenvalues --    0.62486   0.62830   0.63196   0.63518   0.64674
 Alpha virt. eigenvalues --    0.65142   0.66268   0.66427   0.67640   0.68087
 Alpha virt. eigenvalues --    0.68540   0.69021   0.69132   0.69353   0.69984
 Alpha virt. eigenvalues --    0.70804   0.71380   0.72057   0.72637   0.72967
 Alpha virt. eigenvalues --    0.73482   0.74468   0.75471   0.75827   0.76334
 Alpha virt. eigenvalues --    0.77276   0.78367   0.79319   0.79656   0.80468
 Alpha virt. eigenvalues --    0.80969   0.81810   0.82556   0.83458   0.84132
 Alpha virt. eigenvalues --    0.85275   0.85817   0.86291   0.86648   0.87631
 Alpha virt. eigenvalues --    0.88390   0.89326   0.89971   0.90328   0.91738
 Alpha virt. eigenvalues --    0.92299   0.93710   0.94033   0.94981   0.95629
 Alpha virt. eigenvalues --    0.96190   0.97762   0.98619   0.99372   0.99541
 Alpha virt. eigenvalues --    1.00424   1.00897   1.02370   1.02840   1.04205
 Alpha virt. eigenvalues --    1.04709   1.05224   1.07205   1.07455   1.08685
 Alpha virt. eigenvalues --    1.08946   1.10096   1.10382   1.11014   1.12064
 Alpha virt. eigenvalues --    1.12344   1.14062   1.15026   1.17165   1.19287
 Alpha virt. eigenvalues --    1.20497   1.21572   1.22984   1.24044   1.25083
 Alpha virt. eigenvalues --    1.26615   1.27099   1.28272   1.29543   1.31369
 Alpha virt. eigenvalues --    1.31830   1.33836   1.34438   1.35575   1.37704
 Alpha virt. eigenvalues --    1.38717   1.39195   1.40573   1.42460   1.44552
 Alpha virt. eigenvalues --    1.46518   1.47884   1.48430   1.49314   1.51042
 Alpha virt. eigenvalues --    1.54333   1.55617   1.56507   1.57693   1.59330
 Alpha virt. eigenvalues --    1.59822   1.60117   1.61030   1.61850   1.64098
 Alpha virt. eigenvalues --    1.65839   1.67825   1.68875   1.69104   1.70217
 Alpha virt. eigenvalues --    1.70552   1.72024   1.73023   1.74696   1.75585
 Alpha virt. eigenvalues --    1.75722   1.76909   1.77641   1.78737   1.79698
 Alpha virt. eigenvalues --    1.80258   1.82323   1.83327   1.84121   1.86157
 Alpha virt. eigenvalues --    1.87857   1.88756   1.90513   1.90866   1.92831
 Alpha virt. eigenvalues --    1.93539   1.94878   1.95849   1.97025   1.98381
 Alpha virt. eigenvalues --    1.99358   1.99952   2.01009   2.04319   2.05414
 Alpha virt. eigenvalues --    2.06201   2.06418   2.08623   2.10643   2.11146
 Alpha virt. eigenvalues --    2.12604   2.14107   2.15491   2.17315   2.18154
 Alpha virt. eigenvalues --    2.19302   2.20059   2.21352   2.21825   2.22987
 Alpha virt. eigenvalues --    2.24930   2.25398   2.25858   2.27054   2.28545
 Alpha virt. eigenvalues --    2.29861   2.31129   2.32343   2.34542   2.35289
 Alpha virt. eigenvalues --    2.36683   2.37614   2.39567   2.40754   2.41629
 Alpha virt. eigenvalues --    2.42575   2.44435   2.45231   2.46764   2.47410
 Alpha virt. eigenvalues --    2.50272   2.50511   2.52011   2.52580   2.54066
 Alpha virt. eigenvalues --    2.55671   2.57449   2.59465   2.61308   2.62358
 Alpha virt. eigenvalues --    2.64487   2.65895   2.66782   2.70761   2.71886
 Alpha virt. eigenvalues --    2.74281   2.76801   2.77668   2.79209   2.82287
 Alpha virt. eigenvalues --    2.83888   2.85313   2.89207   2.90617   2.94376
 Alpha virt. eigenvalues --    2.95601   2.98747   3.00770   3.01942   3.04201
 Alpha virt. eigenvalues --    3.05473   3.11537   3.16040   3.17938   3.18979
 Alpha virt. eigenvalues --    3.20634   3.23423   3.27250   3.32931   3.38118
 Alpha virt. eigenvalues --    3.41086   3.42090   3.53942   3.60963   3.66493
 Alpha virt. eigenvalues --    3.70567   3.74018   3.75846   3.78620   3.80427
 Alpha virt. eigenvalues --    3.81861   3.82612   3.83559   3.84840   3.88911
 Alpha virt. eigenvalues --    3.90469   3.91910   3.95301   3.99596   4.09096
 Alpha virt. eigenvalues --    4.16693   4.31678   4.34045   4.40889   4.68633
          Condensed to atoms (all electrons):
 Mulliken charges:
               1
     1  C    0.980609
     2  C    0.058794
     3  C    1.565020
     4  C    0.010760
     5  C    1.058531
     6  C    0.335711
     7  C    0.528510
     8  C    0.307738
     9  C    0.250317
    10  H   -0.091111
    11  H   -0.243932
    12  H    0.063061
    13  H    0.090926
    14  H    0.191034
    15  H   -0.537464
    16  H    0.168449
    17  H   -0.607859
    18  H   -0.528297
    19  H    0.067683
    20  H   -0.564352
    21  N   -0.552039
    22  O   -0.834551
    23  O   -0.817800
    24  O   -0.899742
 Sum of Mulliken charges =  -0.00000
 Mulliken charges with hydrogens summed into heavy atoms:
               1
     1  C    0.452311
     2  C    0.121855
     3  C    1.565020
     4  C   -0.324282
     5  C    1.058531
     6  C   -0.272148
     7  C   -0.035841
     8  C   -0.229725
     9  C    0.250317
    21  N   -0.393429
    22  O   -0.834551
    23  O   -0.626766
    24  O   -0.731293
 Electronic spatial extent (au):  <R**2>=           2619.8939
 Charge=             -0.0000 electrons
 Dipole moment (field-independent basis, Debye):
    X=              1.0583    Y=              1.5371    Z=              1.6857  Tot=              2.5148
 Unable to Open any file for archive entry.
 1\1\GINC-SE252\Stability\RHF\Aug-CC-pVDZ\C9H11N1O3\OHZDE\08-Apr-2025\0
 \\#t hf aug-cc-pvdz symm=none int=(grid=ultrafine) guess=(read,tcheck)
  stable=(opt,rrhf)\\title\\0,1\C,0,1.98627,-1.13476,-0.326954\C,0,-2.3
 8924,0.49328,-0.316454\C,0,-2.1288,-0.853059,0.28105\C,0,-1.10539,0.70
 6791,-1.28454\C,0,0.235518,0.458529,-0.761474\C,0,0.95573,1.45492,-0.1
 83129\C,0,0.797986,-0.862474,-0.919692\C,0,2.23286,1.12041,0.416625\C,
 0,2.78181,-0.158037,0.273988\H,0,-1.32667,-0.0133708,-2.10002\H,0,-1.1
 9782,1.72932,-1.62907\H,0,-3.19677,0.467838,-1.10249\H,0,-2.91053,1.24
 428,1.47886\H,0,-1.9499,-1.70239,2.00172\H,0,2.81338,1.80202,1.04945\H
 ,0,4.63606,0.456919,0.537364\H,0,0.63495,2.49344,-0.192222\H,0,2.50739
 ,-2.06724,-0.249757\H,0,-1.7921,2.20811,0.773836\H,0,0.111785,-1.59668
 ,-1.34164\N,0,-2.62728,1.63917,0.566354\O,0,-2.10155,-1.81346,-0.44230
 6\O,0,-2.02623,-0.806837,1.63813\O,0,4.11038,-0.360967,0.520799\\Versi
 on=ES64L-G16RevC.01\HF=-626.3112116\RMSD=5.378e-09\Dipole=0.4163733,0.
 6047343,0.6632026\Quadrupole=-0.7450642,-0.2334687,0.9785329,5.9969609
 ,-1.1789128,-2.1322174\PG=Unknown\\@
 The archive entry for this job was punched.


 Children are likely to live up to what you believe of them.
 -- Lady Bird Johnson
 Job cpu time:       0 days  1 hours  6 minutes 37.8 seconds.
 Elapsed time:       0 days  0 hours  4 minutes 18.5 seconds.
 File lengths (MBytes):  RWF=    683 Int=      0 D2E=      0 Chk=     21 Scr=      1
 Normal termination of Gaussian 16 at Tue Apr  8 20:31:29 2025.
 Initial command:
 /arc/software/Gaussian/g16.c01/l1.exe "/tmp/slurm/4836548/Gau-605949.inp" -scrdir="/tmp/slurm/4836548/"
 Entering Link 1 = /arc/software/Gaussian/g16.c01/l1.exe PID=    606254.
  
 Copyright (c) 1988-2019, Gaussian, Inc.  All Rights Reserved.
  
 This is part of the Gaussian(R) 16 program.  It is based on
 the Gaussian(R) 09 system (copyright 2009, Gaussian, Inc.),
 the Gaussian(R) 03 system (copyright 2003, Gaussian, Inc.),
 the Gaussian(R) 98 system (copyright 1998, Gaussian, Inc.),
 the Gaussian(R) 94 system (copyright 1995, Gaussian, Inc.),
 the Gaussian 92(TM) system (copyright 1992, Gaussian, Inc.),
 the Gaussian 90(TM) system (copyright 1990, Gaussian, Inc.),
 the Gaussian 88(TM) system (copyright 1988, Gaussian, Inc.),
 the Gaussian 86(TM) system (copyright 1986, Carnegie Mellon
 University), and the Gaussian 82(TM) system (copyright 1983,
 Carnegie Mellon University). Gaussian is a federally registered
 trademark of Gaussian, Inc.
  
 This software contains proprietary and confidential information,
 including trade secrets, belonging to Gaussian, Inc.
  
 This software is provided under written license and may be
 used, copied, transmitted, or stored only in accord with that
 written license.
  
 The following legend is applicable only to US Government
 contracts under FAR:
  
                    RESTRICTED RIGHTS LEGEND
  
 Use, reproduction and disclosure by the US Government is
 subject to restrictions as set forth in subparagraphs (a)
 and (c) of the Commercial Computer Software - Restricted
 Rights clause in FAR 52.227-19.
  
 Gaussian, Inc.
 340 Quinnipiac St., Bldg. 40, Wallingford CT 06492
  
  
 ---------------------------------------------------------------
 Warning -- This program may not be used in any manner that
 competes with the business of Gaussian, Inc. or will provide
 assistance to any competitor of Gaussian, Inc.  The licensee
 of this program is prohibited from giving any competitor of
 Gaussian, Inc. access to this program.  By using this program,
 the user acknowledges that Gaussian, Inc. is engaged in the
 business of creating and licensing software in the field of
 computational chemistry and represents and warrants to the
 licensee that it is not a competitor of Gaussian, Inc. and that
 it will not use this program in any manner prohibited above.
 ---------------------------------------------------------------
  

 Cite this work as:
 Gaussian 16, Revision C.01,
 M. J. Frisch, G. W. Trucks, H. B. Schlegel, G. E. Scuseria, 
 M. A. Robb, J. R. Cheeseman, G. Scalmani, V. Barone, 
 G. A. Petersson, H. Nakatsuji, X. Li, M. Caricato, A. V. Marenich, 
 J. Bloino, B. G. Janesko, R. Gomperts, B. Mennucci, H. P. Hratchian, 
 J. V. Ortiz, A. F. Izmaylov, J. L. Sonnenberg, D. Williams-Young, 
 F. Ding, F. Lipparini, F. Egidi, J. Goings, B. Peng, A. Petrone, 
 T. Henderson, D. Ranasinghe, V. G. Zakrzewski, J. Gao, N. Rega, 
 G. Zheng, W. Liang, M. Hada, M. Ehara, K. Toyota, R. Fukuda, 
 J. Hasegawa, M. Ishida, T. Nakajima, Y. Honda, O. Kitao, H. Nakai, 
 T. Vreven, K. Throssell, J. A. Montgomery, Jr., J. E. Peralta, 
 F. Ogliaro, M. J. Bearpark, J. J. Heyd, E. N. Brothers, K. N. Kudin, 
 V. N. Staroverov, T. A. Keith, R. Kobayashi, J. Normand, 
 K. Raghavachari, A. P. Rendell, J. C. Burant, S. S. Iyengar, 
 J. Tomasi, M. Cossi, J. M. Millam, M. Klene, C. Adamo, R. Cammi, 
 J. W. Ochterski, R. L. Martin, K. Morokuma, O. Farkas, 
 J. B. Foresman, and D. J. Fox, Gaussian, Inc., Wallingford CT, 2019.
 
 ******************************************
 Gaussian 16:  ES64L-G16RevC.01  3-Jul-2019
                 8-Apr-2025 
 ******************************************
 %nprocs=16
 Will use up to   16 processors via shared memory.
 %mem=30GB
 %chk=ANI1ccx_1715_conf1_mol1.chk
 ----------------------------------------------------------------------
 #t hf aug-cc-pvdz iop(5/13=1,5/36=2,99/5=2) pseudo=read geom=check gue
 ss=(read,tcheck) scf=(maxcycle=1)
 ----------------------------------------------------------------------
 -----
 title
 -----
 Structure from the checkpoint file:  "ANI1ccx_1715_conf1_mol1.chk"
 Charge =  0 Multiplicity = 1
 Z-Matrix found in chk file.
 C,0,1.98627,-1.13476,-0.326954
 C,0,-2.38924,0.49328,-0.316454
 C,0,-2.1288,-0.853059,0.28105
 C,0,-1.10539,0.706791,-1.28454
 C,0,0.235518,0.458529,-0.761474
 C,0,0.95573,1.45492,-0.183129
 C,0,0.797986,-0.862474,-0.919692
 C,0,2.23286,1.12041,0.416625
 C,0,2.78181,-0.158037,0.273988
 H,0,-1.32667,-0.0133708,-2.10002
 H,0,-1.19782,1.72932,-1.62907
 H,0,-3.19677,0.467838,-1.10249
 H,0,-2.91053,1.24428,1.47886
 H,0,-1.9499,-1.70239,2.00172
 H,0,2.81338,1.80202,1.04945
 H,0,4.63606,0.456919,0.537364
 H,0,0.63495,2.49344,-0.192222
 H,0,2.50739,-2.06724,-0.249757
 H,0,-1.7921,2.20811,0.773836
 H,0,0.111785,-1.59668,-1.34164
 N,0,-2.62728,1.63917,0.566354
 O,0,-2.10155,-1.81346,-0.442306
 O,0,-2.02623,-0.806837,1.63813
 O,0,4.11038,-0.360967,0.520799
 Recover connectivity data from disk.
                    Distance matrix (angstroms):
                    1          2          3          4          5
     1  C    0.000000
     2  C    4.668588   0.000000
     3  C    4.169272   1.495817   0.000000
     4  C    3.723794   1.622051   2.435482   0.000000
     5  C    2.406763   2.662443   2.897778   1.460571   0.000000
     6  C    2.790903   3.483009   3.880278   2.453776   1.358670
     7  C    1.355543   3.515732   3.163534   2.493701   1.444456
     8  C    2.387364   4.721706   4.789263   3.769477   2.411510
     9  C    1.395709   5.245245   4.959556   4.276361   2.817080
    10  H    3.921332   2.137021   2.649148   1.110228   2.110646
    11  H    4.476258   2.161073   3.344243   1.082963   2.102877
    12  H    5.480299   1.127211   2.190779   2.112844   3.449200
    13  H    5.735804   2.014670   2.538638   3.344220   3.941335
    14  H    4.608510   3.223029   1.927193   4.161353   4.132900
    15  H    3.347129   5.535860   5.662599   4.690820   3.424878
    16  H    3.209653   7.077087   6.895293   6.028766   4.588219
    17  H    3.874023   3.627919   4.365931   2.722877   2.150455
    18  H    1.071002   5.526092   4.821851   4.670996   3.435515
    19  H    5.163584   2.118006   3.118808   2.638644   3.086980
    20  H    2.180975   3.416733   2.864667   2.605908   2.139109
    21  N    5.456879   1.465973   2.557555   2.571243   3.369370
    22  O    4.145384   2.328015   1.202646   2.837844   3.275010
    23  O    4.479871   2.375390   1.361735   3.417750   3.531962
    24  O    2.414391   6.608766   6.263146   5.621709   4.162974
                    6          7          8          9         10
     6  C    0.000000
     7  C    2.436744   0.000000
     8  C    1.450056   2.788626   0.000000
     9  C    2.478942   2.420054   1.398613   0.000000
    10  H    3.322604   2.574551   4.504355   4.747257   0.000000
    11  H    2.608413   3.347216   4.040446   4.798041   1.809798
    12  H    4.366098   4.214406   5.675777   6.166833   2.173454
    13  H    4.213614   4.893317   5.253394   5.985060   4.110800
    14  H    4.815066   4.097680   5.289254   5.268697   4.479450
    15  H    2.256234   3.877997   1.096386   2.108118   5.509521
    16  H    3.880715   4.312148   2.496031   1.971238   6.536904
    17  H    1.086971   3.437725   2.192994   3.443354   3.711030
    18  H    3.849376   2.195982   3.268110   1.998667   4.726719
    19  H    3.005603   4.359480   4.184614   5.173891   3.662055
    20  H    3.371447   1.089941   3.869500   3.436420   2.269617
    21  N    3.665192   4.494330   4.890040   5.707336   3.395884
    22  O    4.482905   3.088621   5.304005   5.205834   2.566861
    23  O    4.162285   3.810741   4.831791   5.039749   3.884937
    24  O    3.707395   3.646708   2.393828   1.366453   6.045745
                   11         12         13         14         15
    11  H    0.000000
    12  H    2.421657   0.000000
    13  H    3.581601   2.710750   0.000000
    14  H    5.052217   3.987567   3.143097   0.000000
    15  H    4.823845   6.521717   5.767028   5.989703   0.000000
    16  H    6.351897   8.002654   7.645742   7.083913   2.322432
    17  H    2.451012   4.428739   4.113799   5.394425   2.601032
    18  H    5.481328   6.300096   6.580892   5.006965   4.093011
    19  H    2.521183   2.919288   1.636127   4.101781   4.631557
    20  H    3.586078   3.907168   5.016040   3.929348   4.956520
    21  N    2.621330   2.116927   1.033845   3.699344   5.464493
    22  O    3.844012   2.615276   3.700689   2.451244   6.281208
    23  O    4.218169   3.241290   2.239293   0.969556   5.529422
    24  O    6.096575   7.531031   7.265527   6.381186   2.576857
                   16         17         18         19         20
    16  H    0.000000
    17  H    4.548472   0.000000
    18  H    3.394433   4.930430   0.000000
    19  H    6.666621   2.627785   6.149144   0.000000
    20  H    5.311967   4.280648   2.674427   4.751468   0.000000
    21  N    7.358985   3.456495   6.385010   1.031633   4.649048
    22  O    7.177030   5.108851   4.619936   4.212812   2.398885
    23  O    6.869852   4.617780   5.070152   3.145112   3.751532
    24  O    0.972395   4.553532   2.464691   6.442317   4.580876
                   21         22         23         24
    21  N    0.000000
    22  O    3.635167   0.000000
    23  O    2.737319   2.312396   0.000000
    24  O    7.028420   6.451774   6.253416   0.000000
 Framework group  C1[X(C9H11NO3)]
 Deg. of freedom    66
                         Standard orientation:                         
 ---------------------------------------------------------------------
 Center     Atomic      Atomic             Coordinates (Angstroms)
 Number     Number       Type             X           Y           Z
 ---------------------------------------------------------------------
      1          6           0        1.986269   -1.134760   -0.326954
      2          6           0       -2.389241    0.493281   -0.316454
      3          6           0       -2.128801   -0.853058    0.281050
      4          6           0       -1.105391    0.706792   -1.284540
      5          6           0        0.235517    0.458530   -0.761474
      6          6           0        0.955729    1.454921   -0.183129
      7          6           0        0.797985   -0.862473   -0.919692
      8          6           0        2.232859    1.120410    0.416625
      9          6           0        2.781809   -0.158037    0.273988
     10          1           0       -1.326671   -0.013370   -2.100020
     11          1           0       -1.197821    1.729321   -1.629070
     12          1           0       -3.196771    0.467839   -1.102490
     13          1           0       -2.910531    1.244281    1.478860
     14          1           0       -1.949901   -1.702389    2.001720
     15          1           0        2.813379    1.802020    1.049450
     16          1           0        4.636059    0.456919    0.537364
     17          1           0        0.634950    2.493441   -0.192222
     18          1           0        2.507389   -2.067240   -0.249757
     19          1           0       -1.792100    2.208111    0.773836
     20          1           0        0.111784   -1.596679   -1.341640
     21          7           0       -2.627281    1.639171    0.566354
     22          8           0       -2.101551   -1.813459   -0.442306
     23          8           0       -2.026231   -0.806836    1.638130
     24          8           0        4.110379   -0.360967    0.520799
 ---------------------------------------------------------------------
 Rotational constants (GHZ):           1.5120893           0.4846918           0.4422536
 ======================================================================================================
                                       Pseudopotential Parameters
 ======================================================================================================
  Center     Atomic      Valence      Angular      Power
  Number     Number     Electrons     Momentum     of R      Exponent        Coefficient   SO-Coeffient
 ======================================================================================================
    1          6            6
                                      G and up 
                                                     0        0.0000010       -0.00007288    0.00000000
                                                     2        0.1200000        0.10466671    0.00000000
                                                     2        0.1400000       -0.65716157    0.00000000
                                                     2        0.1600000        1.18890794    0.00000000
                                                     2        0.2000000       -1.25772850    0.00000000
                                                     2        0.2600000        1.01188378    0.00000000
                                                     2        0.4000000       -1.09380874    0.00000000
                                                     2        0.5000000        0.96944888    0.00000000
                                                     2        1.0000000       -0.79256938    0.00000000
                                                     2        3.0000000        1.06443276    0.00000000
                                      S - G
                                                     0        0.0000010       -0.00635295    0.00000000
                                                     2        0.1200000        0.16918955    0.00000000
                                                     2        0.1600000       -0.38862576    0.00000000
                                                     2        0.2800000        0.25638263    0.00000000
                                                     2        0.5000000        0.29628419    0.00000000
                                                     2        0.9000000       -0.28791512    0.00000000
                                      P - G
                                                     0        0.0000010       -0.04756931    0.00000000
                                                     2        0.1200000        0.28430375    0.00000000
                                                     2        0.1600000       -0.69640032    0.00000000
                                                     2        0.2600000        1.13005668    0.00000000
                                                     2        0.4000000       -1.31433324    0.00000000
                                                     2        0.7000000        0.91526469    0.00000000
                                      D - G
                                                     0        0.0000010       -0.11496411    0.00000000
                                                     2        0.1200000        0.16620776    0.00000000
                                                     2        0.1800000       -0.30959819    0.00000000
                                                     2        0.3000000        0.16621458    0.00000000
                                                     2        0.6000000        0.27350556    0.00000000
                                      F - G
                                                     0        0.0000010        0.12037550    0.00000000
                                                     2        0.1200000       -0.48737077    0.00000000
                                                     2        0.1400000        0.58315350    0.00000000
                                                     2        0.3000000        0.00005188    0.00000000
                                                     2        0.5000000       -1.16063549    0.00000000
                                                     2        0.8000000        2.09053308    0.00000000
    2          6            6
                                      G and up 
                                                     0        0.0000010       -0.00007288    0.00000000
                                                     2        0.1200000        0.10466671    0.00000000
                                                     2        0.1400000       -0.65716157    0.00000000
                                                     2        0.1600000        1.18890794    0.00000000
                                                     2        0.2000000       -1.25772850    0.00000000
                                                     2        0.2600000        1.01188378    0.00000000
                                                     2        0.4000000       -1.09380874    0.00000000
                                                     2        0.5000000        0.96944888    0.00000000
                                                     2        1.0000000       -0.79256938    0.00000000
                                                     2        3.0000000        1.06443276    0.00000000
                                      S - G
                                                     0        0.0000010       -0.00635295    0.00000000
                                                     2        0.1200000        0.16918955    0.00000000
                                                     2        0.1600000       -0.38862576    0.00000000
                                                     2        0.2800000        0.25638263    0.00000000
                                                     2        0.5000000        0.29628419    0.00000000
                                                     2        0.9000000       -0.28791512    0.00000000
                                      P - G
                                                     0        0.0000010       -0.04756931    0.00000000
                                                     2        0.1200000        0.28430375    0.00000000
                                                     2        0.1600000       -0.69640032    0.00000000
                                                     2        0.2600000        1.13005668    0.00000000
                                                     2        0.4000000       -1.31433324    0.00000000
                                                     2        0.7000000        0.91526469    0.00000000
                                      D - G
                                                     0        0.0000010       -0.11496411    0.00000000
                                                     2        0.1200000        0.16620776    0.00000000
                                                     2        0.1800000       -0.30959819    0.00000000
                                                     2        0.3000000        0.16621458    0.00000000
                                                     2        0.6000000        0.27350556    0.00000000
                                      F - G
                                                     0        0.0000010        0.12037550    0.00000000
                                                     2        0.1200000       -0.48737077    0.00000000
                                                     2        0.1400000        0.58315350    0.00000000
                                                     2        0.3000000        0.00005188    0.00000000
                                                     2        0.5000000       -1.16063549    0.00000000
                                                     2        0.8000000        2.09053308    0.00000000
    3          6            6
                                      G and up 
                                                     0        0.0000010       -0.00007288    0.00000000
                                                     2        0.1200000        0.10466671    0.00000000
                                                     2        0.1400000       -0.65716157    0.00000000
                                                     2        0.1600000        1.18890794    0.00000000
                                                     2        0.2000000       -1.25772850    0.00000000
                                                     2        0.2600000        1.01188378    0.00000000
                                                     2        0.4000000       -1.09380874    0.00000000
                                                     2        0.5000000        0.96944888    0.00000000
                                                     2        1.0000000       -0.79256938    0.00000000
                                                     2        3.0000000        1.06443276    0.00000000
                                      S - G
                                                     0        0.0000010       -0.00635295    0.00000000
                                                     2        0.1200000        0.16918955    0.00000000
                                                     2        0.1600000       -0.38862576    0.00000000
                                                     2        0.2800000        0.25638263    0.00000000
                                                     2        0.5000000        0.29628419    0.00000000
                                                     2        0.9000000       -0.28791512    0.00000000
                                      P - G
                                                     0        0.0000010       -0.04756931    0.00000000
                                                     2        0.1200000        0.28430375    0.00000000
                                                     2        0.1600000       -0.69640032    0.00000000
                                                     2        0.2600000        1.13005668    0.00000000
                                                     2        0.4000000       -1.31433324    0.00000000
                                                     2        0.7000000        0.91526469    0.00000000
                                      D - G
                                                     0        0.0000010       -0.11496411    0.00000000
                                                     2        0.1200000        0.16620776    0.00000000
                                                     2        0.1800000       -0.30959819    0.00000000
                                                     2        0.3000000        0.16621458    0.00000000
                                                     2        0.6000000        0.27350556    0.00000000
                                      F - G
                                                     0        0.0000010        0.12037550    0.00000000
                                                     2        0.1200000       -0.48737077    0.00000000
                                                     2        0.1400000        0.58315350    0.00000000
                                                     2        0.3000000        0.00005188    0.00000000
                                                     2        0.5000000       -1.16063549    0.00000000
                                                     2        0.8000000        2.09053308    0.00000000
    4          6            6
                                      G and up 
                                                     0        0.0000010       -0.00007288    0.00000000
                                                     2        0.1200000        0.10466671    0.00000000
                                                     2        0.1400000       -0.65716157    0.00000000
                                                     2        0.1600000        1.18890794    0.00000000
                                                     2        0.2000000       -1.25772850    0.00000000
                                                     2        0.2600000        1.01188378    0.00000000
                                                     2        0.4000000       -1.09380874    0.00000000
                                                     2        0.5000000        0.96944888    0.00000000
                                                     2        1.0000000       -0.79256938    0.00000000
                                                     2        3.0000000        1.06443276    0.00000000
                                      S - G
                                                     0        0.0000010       -0.00635295    0.00000000
                                                     2        0.1200000        0.16918955    0.00000000
                                                     2        0.1600000       -0.38862576    0.00000000
                                                     2        0.2800000        0.25638263    0.00000000
                                                     2        0.5000000        0.29628419    0.00000000
                                                     2        0.9000000       -0.28791512    0.00000000
                                      P - G
                                                     0        0.0000010       -0.04756931    0.00000000
                                                     2        0.1200000        0.28430375    0.00000000
                                                     2        0.1600000       -0.69640032    0.00000000
                                                     2        0.2600000        1.13005668    0.00000000
                                                     2        0.4000000       -1.31433324    0.00000000
                                                     2        0.7000000        0.91526469    0.00000000
                                      D - G
                                                     0        0.0000010       -0.11496411    0.00000000
                                                     2        0.1200000        0.16620776    0.00000000
                                                     2        0.1800000       -0.30959819    0.00000000
                                                     2        0.3000000        0.16621458    0.00000000
                                                     2        0.6000000        0.27350556    0.00000000
                                      F - G
                                                     0        0.0000010        0.12037550    0.00000000
                                                     2        0.1200000       -0.48737077    0.00000000
                                                     2        0.1400000        0.58315350    0.00000000
                                                     2        0.3000000        0.00005188    0.00000000
                                                     2        0.5000000       -1.16063549    0.00000000
                                                     2        0.8000000        2.09053308    0.00000000
    5          6            6
                                      G and up 
                                                     0        0.0000010       -0.00007288    0.00000000
                                                     2        0.1200000        0.10466671    0.00000000
                                                     2        0.1400000       -0.65716157    0.00000000
                                                     2        0.1600000        1.18890794    0.00000000
                                                     2        0.2000000       -1.25772850    0.00000000
                                                     2        0.2600000        1.01188378    0.00000000
                                                     2        0.4000000       -1.09380874    0.00000000
                                                     2        0.5000000        0.96944888    0.00000000
                                                     2        1.0000000       -0.79256938    0.00000000
                                                     2        3.0000000        1.06443276    0.00000000
                                      S - G
                                                     0        0.0000010       -0.00635295    0.00000000
                                                     2        0.1200000        0.16918955    0.00000000
                                                     2        0.1600000       -0.38862576    0.00000000
                                                     2        0.2800000        0.25638263    0.00000000
                                                     2        0.5000000        0.29628419    0.00000000
                                                     2        0.9000000       -0.28791512    0.00000000
                                      P - G
                                                     0        0.0000010       -0.04756931    0.00000000
                                                     2        0.1200000        0.28430375    0.00000000
                                                     2        0.1600000       -0.69640032    0.00000000
                                                     2        0.2600000        1.13005668    0.00000000
                                                     2        0.4000000       -1.31433324    0.00000000
                                                     2        0.7000000        0.91526469    0.00000000
                                      D - G
                                                     0        0.0000010       -0.11496411    0.00000000
                                                     2        0.1200000        0.16620776    0.00000000
                                                     2        0.1800000       -0.30959819    0.00000000
                                                     2        0.3000000        0.16621458    0.00000000
                                                     2        0.6000000        0.27350556    0.00000000
                                      F - G
                                                     0        0.0000010        0.12037550    0.00000000
                                                     2        0.1200000       -0.48737077    0.00000000
                                                     2        0.1400000        0.58315350    0.00000000
                                                     2        0.3000000        0.00005188    0.00000000
                                                     2        0.5000000       -1.16063549    0.00000000
                                                     2        0.8000000        2.09053308    0.00000000
    6          6            6
                                      G and up 
                                                     0        0.0000010       -0.00007288    0.00000000
                                                     2        0.1200000        0.10466671    0.00000000
                                                     2        0.1400000       -0.65716157    0.00000000
                                                     2        0.1600000        1.18890794    0.00000000
                                                     2        0.2000000       -1.25772850    0.00000000
                                                     2        0.2600000        1.01188378    0.00000000
                                                     2        0.4000000       -1.09380874    0.00000000
                                                     2        0.5000000        0.96944888    0.00000000
                                                     2        1.0000000       -0.79256938    0.00000000
                                                     2        3.0000000        1.06443276    0.00000000
                                      S - G
                                                     0        0.0000010       -0.00635295    0.00000000
                                                     2        0.1200000        0.16918955    0.00000000
                                                     2        0.1600000       -0.38862576    0.00000000
                                                     2        0.2800000        0.25638263    0.00000000
                                                     2        0.5000000        0.29628419    0.00000000
                                                     2        0.9000000       -0.28791512    0.00000000
                                      P - G
                                                     0        0.0000010       -0.04756931    0.00000000
                                                     2        0.1200000        0.28430375    0.00000000
                                                     2        0.1600000       -0.69640032    0.00000000
                                                     2        0.2600000        1.13005668    0.00000000
                                                     2        0.4000000       -1.31433324    0.00000000
                                                     2        0.7000000        0.91526469    0.00000000
                                      D - G
                                                     0        0.0000010       -0.11496411    0.00000000
                                                     2        0.1200000        0.16620776    0.00000000
                                                     2        0.1800000       -0.30959819    0.00000000
                                                     2        0.3000000        0.16621458    0.00000000
                                                     2        0.6000000        0.27350556    0.00000000
                                      F - G
                                                     0        0.0000010        0.12037550    0.00000000
                                                     2        0.1200000       -0.48737077    0.00000000
                                                     2        0.1400000        0.58315350    0.00000000
                                                     2        0.3000000        0.00005188    0.00000000
                                                     2        0.5000000       -1.16063549    0.00000000
                                                     2        0.8000000        2.09053308    0.00000000
    7          6            6
                                      G and up 
                                                     0        0.0000010       -0.00007288    0.00000000
                                                     2        0.1200000        0.10466671    0.00000000
                                                     2        0.1400000       -0.65716157    0.00000000
                                                     2        0.1600000        1.18890794    0.00000000
                                                     2        0.2000000       -1.25772850    0.00000000
                                                     2        0.2600000        1.01188378    0.00000000
                                                     2        0.4000000       -1.09380874    0.00000000
                                                     2        0.5000000        0.96944888    0.00000000
                                                     2        1.0000000       -0.79256938    0.00000000
                                                     2        3.0000000        1.06443276    0.00000000
                                      S - G
                                                     0        0.0000010       -0.00635295    0.00000000
                                                     2        0.1200000        0.16918955    0.00000000
                                                     2        0.1600000       -0.38862576    0.00000000
                                                     2        0.2800000        0.25638263    0.00000000
                                                     2        0.5000000        0.29628419    0.00000000
                                                     2        0.9000000       -0.28791512    0.00000000
                                      P - G
                                                     0        0.0000010       -0.04756931    0.00000000
                                                     2        0.1200000        0.28430375    0.00000000
                                                     2        0.1600000       -0.69640032    0.00000000
                                                     2        0.2600000        1.13005668    0.00000000
                                                     2        0.4000000       -1.31433324    0.00000000
                                                     2        0.7000000        0.91526469    0.00000000
                                      D - G
                                                     0        0.0000010       -0.11496411    0.00000000
                                                     2        0.1200000        0.16620776    0.00000000
                                                     2        0.1800000       -0.30959819    0.00000000
                                                     2        0.3000000        0.16621458    0.00000000
                                                     2        0.6000000        0.27350556    0.00000000
                                      F - G
                                                     0        0.0000010        0.12037550    0.00000000
                                                     2        0.1200000       -0.48737077    0.00000000
                                                     2        0.1400000        0.58315350    0.00000000
                                                     2        0.3000000        0.00005188    0.00000000
                                                     2        0.5000000       -1.16063549    0.00000000
                                                     2        0.8000000        2.09053308    0.00000000
    8          6            6
                                      G and up 
                                                     0        0.0000010       -0.00007288    0.00000000
                                                     2        0.1200000        0.10466671    0.00000000
                                                     2        0.1400000       -0.65716157    0.00000000
                                                     2        0.1600000        1.18890794    0.00000000
                                                     2        0.2000000       -1.25772850    0.00000000
                                                     2        0.2600000        1.01188378    0.00000000
                                                     2        0.4000000       -1.09380874    0.00000000
                                                     2        0.5000000        0.96944888    0.00000000
                                                     2        1.0000000       -0.79256938    0.00000000
                                                     2        3.0000000        1.06443276    0.00000000
                                      S - G
                                                     0        0.0000010       -0.00635295    0.00000000
                                                     2        0.1200000        0.16918955    0.00000000
                                                     2        0.1600000       -0.38862576    0.00000000
                                                     2        0.2800000        0.25638263    0.00000000
                                                     2        0.5000000        0.29628419    0.00000000
                                                     2        0.9000000       -0.28791512    0.00000000
                                      P - G
                                                     0        0.0000010       -0.04756931    0.00000000
                                                     2        0.1200000        0.28430375    0.00000000
                                                     2        0.1600000       -0.69640032    0.00000000
                                                     2        0.2600000        1.13005668    0.00000000
                                                     2        0.4000000       -1.31433324    0.00000000
                                                     2        0.7000000        0.91526469    0.00000000
                                      D - G
                                                     0        0.0000010       -0.11496411    0.00000000
                                                     2        0.1200000        0.16620776    0.00000000
                                                     2        0.1800000       -0.30959819    0.00000000
                                                     2        0.3000000        0.16621458    0.00000000
                                                     2        0.6000000        0.27350556    0.00000000
                                      F - G
                                                     0        0.0000010        0.12037550    0.00000000
                                                     2        0.1200000       -0.48737077    0.00000000
                                                     2        0.1400000        0.58315350    0.00000000
                                                     2        0.3000000        0.00005188    0.00000000
                                                     2        0.5000000       -1.16063549    0.00000000
                                                     2        0.8000000        2.09053308    0.00000000
    9          6            6
                                      G and up 
                                                     0        0.0000010       -0.00007288    0.00000000
                                                     2        0.1200000        0.10466671    0.00000000
                                                     2        0.1400000       -0.65716157    0.00000000
                                                     2        0.1600000        1.18890794    0.00000000
                                                     2        0.2000000       -1.25772850    0.00000000
                                                     2        0.2600000        1.01188378    0.00000000
                                                     2        0.4000000       -1.09380874    0.00000000
                                                     2        0.5000000        0.96944888    0.00000000
                                                     2        1.0000000       -0.79256938    0.00000000
                                                     2        3.0000000        1.06443276    0.00000000
                                      S - G
                                                     0        0.0000010       -0.00635295    0.00000000
                                                     2        0.1200000        0.16918955    0.00000000
                                                     2        0.1600000       -0.38862576    0.00000000
                                                     2        0.2800000        0.25638263    0.00000000
                                                     2        0.5000000        0.29628419    0.00000000
                                                     2        0.9000000       -0.28791512    0.00000000
                                      P - G
                                                     0        0.0000010       -0.04756931    0.00000000
                                                     2        0.1200000        0.28430375    0.00000000
                                                     2        0.1600000       -0.69640032    0.00000000
                                                     2        0.2600000        1.13005668    0.00000000
                                                     2        0.4000000       -1.31433324    0.00000000
                                                     2        0.7000000        0.91526469    0.00000000
                                      D - G
                                                     0        0.0000010       -0.11496411    0.00000000
                                                     2        0.1200000        0.16620776    0.00000000
                                                     2        0.1800000       -0.30959819    0.00000000
                                                     2        0.3000000        0.16621458    0.00000000
                                                     2        0.6000000        0.27350556    0.00000000
                                      F - G
                                                     0        0.0000010        0.12037550    0.00000000
                                                     2        0.1200000       -0.48737077    0.00000000
                                                     2        0.1400000        0.58315350    0.00000000
                                                     2        0.3000000        0.00005188    0.00000000
                                                     2        0.5000000       -1.16063549    0.00000000
                                                     2        0.8000000        2.09053308    0.00000000
   10          1            1
                                      F and up 
                                                     0        0.0000010       -0.00007675    0.00000000
                                                     2        0.1200000        0.05352699    0.00000000
                                                     2        0.1400000       -0.25123645    0.00000000
                                                     2        0.1600000        0.32188106    0.00000000
                                                     2        0.2200000       -0.25206857    0.00000000
                                                     2        0.3000000        0.19290477    0.00000000
                                                     2        0.5000000       -0.10129770    0.00000000
                                                     2        0.9000000        0.00314995    0.00000000
                                                     2        1.5000000        0.18401192    0.00000000
                                      S - F
                                                     0        0.0000010        0.08065976    0.00000000
                                                     2        0.1200000       -0.09231673    0.00000000
                                                     2        0.1600000       -0.03278082    0.00000000
                                                     2        0.2800000        0.38423402    0.00000000
                                                     2        0.6000000       -1.09357590    0.00000000
                                                     2        1.1000000        1.53099489    0.00000000
                                                     2        3.0000000       -2.63300202    0.00000000
                                      P - F
                                                     0        0.0000010       -0.11638665    0.00000000
                                                     2        0.1200000        0.35468655    0.00000000
                                                     2        0.1600000       -0.59160923    0.00000000
                                                     2        0.3000000        0.49390547    0.00000000
                                                     2        0.6000000       -0.37949835    0.00000000
                                                     2        1.6000000        0.89304688    0.00000000
                                      D - F
                                                     0        0.0000010        0.05443663    0.00000000
                                                     2        0.1200000       -0.29679479    0.00000000
                                                     2        0.1400000        0.36849872    0.00000000
                                                     2        0.2400000        0.02793449    0.00000000
                                                     2        0.4000000       -0.46312857    0.00000000
                                                     2        0.7000000        0.97587598    0.00000000
                                                     2        1.5000000       -2.43431102    0.00000000
   11          1            1
                                      F and up 
                                                     0        0.0000010       -0.00007675    0.00000000
                                                     2        0.1200000        0.05352699    0.00000000
                                                     2        0.1400000       -0.25123645    0.00000000
                                                     2        0.1600000        0.32188106    0.00000000
                                                     2        0.2200000       -0.25206857    0.00000000
                                                     2        0.3000000        0.19290477    0.00000000
                                                     2        0.5000000       -0.10129770    0.00000000
                                                     2        0.9000000        0.00314995    0.00000000
                                                     2        1.5000000        0.18401192    0.00000000
                                      S - F
                                                     0        0.0000010        0.08065976    0.00000000
                                                     2        0.1200000       -0.09231673    0.00000000
                                                     2        0.1600000       -0.03278082    0.00000000
                                                     2        0.2800000        0.38423402    0.00000000
                                                     2        0.6000000       -1.09357590    0.00000000
                                                     2        1.1000000        1.53099489    0.00000000
                                                     2        3.0000000       -2.63300202    0.00000000
                                      P - F
                                                     0        0.0000010       -0.11638665    0.00000000
[...]
                                                     2        0.1600000        1.04289661    0.00000000
                                                     2        0.2400000       -1.92800913    0.00000000
                                                     2        0.4000000        2.26691633    0.00000000
                                                     2        0.7000000       -1.97391482    0.00000000
                                      F - G
                                                     0        0.0000010       -0.02604870    0.00000000
                                                     2        0.1200000        0.37362552    0.00000000
                                                     2        0.1600000       -1.43526367    0.00000000
                                                     2        0.2200000        1.76778079    0.00000000
                                                     2        0.5000000       -1.90846303    0.00000000
   23          8            8
                                      G and up 
                                                     0        0.0000010        0.00049668    0.00000000
                                                     2        0.1200000       -0.01803391    0.00000000
                                                     2        0.1400000        0.04014195    0.00000000
                                                     2        0.2000000       -0.02692147    0.00000000
                                                     2        0.2800000       -0.04241843    0.00000000
                                                     2        0.4000000        0.15412145    0.00000000
                                                     2        0.7000000       -0.40587006    0.00000000
                                                     2        1.1000000        1.75666647    0.00000000
                                      S - G
                                                     0        0.0000010       -0.01088195    0.00000000
                                                     2        0.1200000        0.09867335    0.00000000
                                                     2        0.2400000       -0.08484177    0.00000000
                                                     2        0.6000000       -1.39011554    0.00000000
                                                     2        2.5000000        1.36225910    0.00000000
                                      P - G
                                                     0        0.0000010        0.05874028    0.00000000
                                                     2        0.1200000       -0.11700340    0.00000000
                                                     2        0.1600000        0.08847775    0.00000000
                                                     2        0.3000000        0.04709907    0.00000000
                                                     2        1.2000000       -1.80388338    0.00000000
                                      D - G
                                                     0        0.0000010       -0.00541262    0.00000000
                                                     2        0.1200000       -0.26547906    0.00000000
                                                     2        0.1600000        1.04289661    0.00000000
                                                     2        0.2400000       -1.92800913    0.00000000
                                                     2        0.4000000        2.26691633    0.00000000
                                                     2        0.7000000       -1.97391482    0.00000000
                                      F - G
                                                     0        0.0000010       -0.02604870    0.00000000
                                                     2        0.1200000        0.37362552    0.00000000
                                                     2        0.1600000       -1.43526367    0.00000000
                                                     2        0.2200000        1.76778079    0.00000000
                                                     2        0.5000000       -1.90846303    0.00000000
   24          8            8
                                      G and up 
                                                     0        0.0000010        0.00049668    0.00000000
                                                     2        0.1200000       -0.01803391    0.00000000
                                                     2        0.1400000        0.04014195    0.00000000
                                                     2        0.2000000       -0.02692147    0.00000000
                                                     2        0.2800000       -0.04241843    0.00000000
                                                     2        0.4000000        0.15412145    0.00000000
                                                     2        0.7000000       -0.40587006    0.00000000
                                                     2        1.1000000        1.75666647    0.00000000
                                      S - G
                                                     0        0.0000010       -0.01088195    0.00000000
                                                     2        0.1200000        0.09867335    0.00000000
                                                     2        0.2400000       -0.08484177    0.00000000
                                                     2        0.6000000       -1.39011554    0.00000000
                                                     2        2.5000000        1.36225910    0.00000000
                                      P - G
                                                     0        0.0000010        0.05874028    0.00000000
                                                     2        0.1200000       -0.11700340    0.00000000
                                                     2        0.1600000        0.08847775    0.00000000
                                                     2        0.3000000        0.04709907    0.00000000
                                                     2        1.2000000       -1.80388338    0.00000000
                                      D - G
                                                     0        0.0000010       -0.00541262    0.00000000
                                                     2        0.1200000       -0.26547906    0.00000000
                                                     2        0.1600000        1.04289661    0.00000000
                                                     2        0.2400000       -1.92800913    0.00000000
                                                     2        0.4000000        2.26691633    0.00000000
                                                     2        0.7000000       -1.97391482    0.00000000
                                      F - G
                                                     0        0.0000010       -0.02604870    0.00000000
                                                     2        0.1200000        0.37362552    0.00000000
                                                     2        0.1600000       -1.43526367    0.00000000
                                                     2        0.2200000        1.76778079    0.00000000
                                                     2        0.5000000       -1.90846303    0.00000000
 ======================================================================================================
   398 basis functions,   680 primitive gaussians,   424 cartesian basis functions
    48 alpha electrons       48 beta electrons
       nuclear repulsion energy       791.6547427202 Hartrees.
 NAtoms=   24 NActive=   24 NUniq=   24 SFac= 1.00D+00 NAtFMM=   60 NAOKFM=F Big=F
   1 Symmetry operations used in ECPInt.
 ECPInt:  NShTT=   14878 NPrTT=   71494 LenC2=   14671 LenP2D=   50169.
 LDataN:  DoStor=T MaxTD1= 6 Len=  172
 Initial guess from the checkpoint file:  "ANI1ccx_1715_conf1_mol1.chk"
 B after Tr=    -0.000002    0.000001   -0.000000
         Rot=    1.000000    0.000000    0.000000    0.000000 Ang=   0.00 deg.
 >>>>>>>>>> Convergence criterion not met.
 SCF Done:  E(RHF) =  -626.942905013     A.U. after    2 cycles
            NFock=  1  Conv=0.32D-01     -V/T= 2.0029

 **********************************************************************

            Population analysis using the SCF Density.

 **********************************************************************

 Orbital symmetries:
       Occupied  (A) (A) (A) (A) (A) (A) (A) (A) (A) (A) (A) (A)
                 (A) (A) (A) (A) (A) (A) (A) (A) (A) (A) (A) (A)
                 (A) (A) (A) (A) (A) (A) (A) (A) (A) (A) (A) (A)
                 (A) (A) (A) (A) (A) (A) (A) (A) (A) (A) (A) (A)
       Virtual   (A) (A) (A) (A) (A) (A) (A) (A) (A) (A) (A) (A)
                 (A) (A) (A) (A) (A) (A) (A) (A) (A) (A) (A) (A)
                 (A) (A) (A) (A) (A) (A) (A) (A) (A) (A) (A) (A)
                 (A) (A) (A) (A) (A) (A) (A) (A) (A) (A) (A) (A)
                 (A) (A) (A) (A) (A) (A) (A) (A) (A) (A) (A) (A)
                 (A) (A) (A) (A) (A) (A) (A) (A) (A) (A) (A) (A)
                 (A) (A) (A) (A) (A) (A) (A) (A) (A) (A) (A) (A)
                 (A) (A) (A) (A) (A) (A) (A) (A) (A) (A) (A) (A)
                 (A) (A) (A) (A) (A) (A) (A) (A) (A) (A) (A) (A)
                 (A) (A) (A) (A) (A) (A) (A) (A) (A) (A) (A) (A)
                 (A) (A) (A) (A) (A) (A) (A) (A) (A) (A) (A) (A)
                 (A) (A) (A) (A) (A) (A) (A) (A) (A) (A) (A) (A)
                 (A) (A) (A) (A) (A) (A) (A) (A) (A) (A) (A) (A)
                 (A) (A) (A) (A) (A) (A) (A) (A) (A) (A) (A) (A)
                 (A) (A) (A) (A) (A) (A) (A) (A) (A) (A) (A) (A)
                 (A) (A) (A) (A) (A) (A) (A) (A) (A) (A) (A) (A)
                 (A) (A) (A) (A) (A) (A) (A) (A) (A) (A) (A) (A)
                 (A) (A) (A) (A) (A) (A) (A) (A) (A) (A) (A) (A)
                 (A) (A) (A) (A) (A) (A) (A) (A) (A) (A) (A) (A)
                 (A) (A) (A) (A) (A) (A) (A) (A) (A) (A) (A) (A)
                 (A) (A) (A) (A) (A) (A) (A) (A) (A) (A) (A) (A)
                 (A) (A) (A) (A) (A) (A) (A) (A) (A) (A) (A) (A)
                 (A) (A) (A) (A) (A) (A) (A) (A) (A) (A) (A) (A)
                 (A) (A) (A) (A) (A) (A) (A) (A) (A) (A) (A) (A)
                 (A) (A) (A) (A) (A) (A) (A) (A) (A) (A) (A) (A)
                 (A) (A) (A) (A) (A) (A) (A) (A) (A) (A) (A) (A)
                 (A) (A) (A) (A) (A) (A) (A) (A) (A) (A) (A) (A)
                 (A) (A) (A) (A) (A) (A) (A) (A) (A) (A) (A) (A)
                 (A) (A) (A) (A) (A) (A) (A) (A) (A) (A) (A) (A)
                 (A) (A)
 The electronic state is 1-A.
 Alpha  occ. eigenvalues --  -20.61663 -20.58213 -20.54426 -15.49718 -11.40198
 Alpha  occ. eigenvalues --  -11.30945 -11.28833 -11.25337 -11.24866 -11.24751
 Alpha  occ. eigenvalues --  -11.24708 -11.24146 -11.23925  -1.55161  -1.49164
 Alpha  occ. eigenvalues --   -1.46954  -1.19284  -1.15770  -1.06289  -1.02016
 Alpha  occ. eigenvalues --   -0.98980  -0.91765  -0.86642  -0.83576  -0.79159
 Alpha  occ. eigenvalues --   -0.74573  -0.72141  -0.71979  -0.68465  -0.68338
 Alpha  occ. eigenvalues --   -0.66980  -0.63868  -0.63143  -0.61242  -0.60284
 Alpha  occ. eigenvalues --   -0.59581  -0.59131  -0.56092  -0.54113  -0.53868
 Alpha  occ. eigenvalues --   -0.51762  -0.49789  -0.48582  -0.47714  -0.45008
 Alpha  occ. eigenvalues --   -0.42856  -0.35231  -0.31644
 Alpha virt. eigenvalues --    0.02845   0.03316   0.03682   0.04278   0.04910
 Alpha virt. eigenvalues --    0.05578   0.05861   0.06444   0.06621   0.08193
 Alpha virt. eigenvalues --    0.08843   0.09467   0.10616   0.11124   0.11412
 Alpha virt. eigenvalues --    0.12158   0.12584   0.13100   0.13399   0.13577
 Alpha virt. eigenvalues --    0.14354   0.14486   0.15156   0.15299   0.16094
 Alpha virt. eigenvalues --    0.16351   0.16933   0.17352   0.17617   0.17801
 Alpha virt. eigenvalues --    0.18285   0.18409   0.18704   0.19767   0.19907
 Alpha virt. eigenvalues --    0.20371   0.21070   0.21754   0.22038   0.22698
 Alpha virt. eigenvalues --    0.22771   0.23377   0.24481   0.24876   0.25472
 Alpha virt. eigenvalues --    0.26470   0.27383   0.27489   0.28050   0.28647
 Alpha virt. eigenvalues --    0.29001   0.29691   0.29963   0.31199   0.31436
 Alpha virt. eigenvalues --    0.31609   0.32065   0.33007   0.33773   0.34250
 Alpha virt. eigenvalues --    0.34286   0.34865   0.35437   0.36206   0.36709
 Alpha virt. eigenvalues --    0.36970   0.37393   0.37934   0.38736   0.39207
 Alpha virt. eigenvalues --    0.40064   0.40518   0.40951   0.41338   0.42554
 Alpha virt. eigenvalues --    0.42827   0.43663   0.44115   0.44857   0.45238
 Alpha virt. eigenvalues --    0.45974   0.46070   0.47410   0.48088   0.48569
 Alpha virt. eigenvalues --    0.48958   0.49330   0.49493   0.50155   0.50749
 Alpha virt. eigenvalues --    0.51636   0.51857   0.53135   0.53740   0.54798
 Alpha virt. eigenvalues --    0.54925   0.55667   0.56775   0.57850   0.58329
 Alpha virt. eigenvalues --    0.58800   0.59268   0.60275   0.61457   0.62021
 Alpha virt. eigenvalues --    0.62411   0.62822   0.63116   0.63460   0.64571
 Alpha virt. eigenvalues --    0.65096   0.66124   0.66380   0.67581   0.67946
 Alpha virt. eigenvalues --    0.68507   0.68935   0.69003   0.69154   0.69903
 Alpha virt. eigenvalues --    0.70706   0.71195   0.72028   0.72318   0.72845
 Alpha virt. eigenvalues --    0.73446   0.74447   0.75307   0.75811   0.76209
 Alpha virt. eigenvalues --    0.77453   0.78376   0.79353   0.79772   0.80406
 Alpha virt. eigenvalues --    0.81010   0.81808   0.82600   0.83286   0.84153
 Alpha virt. eigenvalues --    0.85166   0.85884   0.86379   0.86766   0.87600
 Alpha virt. eigenvalues --    0.88426   0.89338   0.90075   0.90334   0.91979
 Alpha virt. eigenvalues --    0.92368   0.93688   0.94092   0.95296   0.95636
 Alpha virt. eigenvalues --    0.96424   0.97909   0.98897   0.99511   0.99818
 Alpha virt. eigenvalues --    1.00572   1.01091   1.02657   1.03338   1.04411
 Alpha virt. eigenvalues --    1.04938   1.05627   1.07545   1.07670   1.08775
 Alpha virt. eigenvalues --    1.09288   1.10223   1.10597   1.11054   1.12297
 Alpha virt. eigenvalues --    1.12660   1.14216   1.14810   1.17416   1.19794
 Alpha virt. eigenvalues --    1.20631   1.22090   1.23801   1.24781   1.25949
 Alpha virt. eigenvalues --    1.27251   1.28119   1.28965   1.30380   1.32011
 Alpha virt. eigenvalues --    1.32474   1.34551   1.35192   1.36192   1.37360
 Alpha virt. eigenvalues --    1.39419   1.40052   1.41572   1.43448   1.45242
 Alpha virt. eigenvalues --    1.47253   1.48683   1.49553   1.50077   1.52261
 Alpha virt. eigenvalues --    1.55323   1.56291   1.56902   1.58655   1.59843
 Alpha virt. eigenvalues --    1.60396   1.60806   1.61911   1.62884   1.65264
 Alpha virt. eigenvalues --    1.66802   1.67708   1.69679   1.69911   1.71222
 Alpha virt. eigenvalues --    1.71443   1.73120   1.73295   1.74694   1.75224
 Alpha virt. eigenvalues --    1.76545   1.77551   1.78807   1.79470   1.80109
 Alpha virt. eigenvalues --    1.82285   1.83067   1.84316   1.85803   1.87156
 Alpha virt. eigenvalues --    1.88524   1.89153   1.91026   1.92016   1.93540
 Alpha virt. eigenvalues --    1.94228   1.95146   1.96703   1.97466   1.99636
 Alpha virt. eigenvalues --    2.00742   2.01443   2.02267   2.04587   2.05321
 Alpha virt. eigenvalues --    2.06273   2.07900   2.09642   2.10850   2.11910
 Alpha virt. eigenvalues --    2.14678   2.15422   2.16634   2.17609   2.18825
 Alpha virt. eigenvalues --    2.19125   2.20099   2.21803   2.22943   2.23475
 Alpha virt. eigenvalues --    2.24026   2.24707   2.26282   2.27030   2.29303
 Alpha virt. eigenvalues --    2.29438   2.30563   2.31758   2.32809   2.33646
 Alpha virt. eigenvalues --    2.34221   2.36723   2.38508   2.39497   2.41439
 Alpha virt. eigenvalues --    2.41792   2.43359   2.43997   2.45454   2.46730
 Alpha virt. eigenvalues --    2.47724   2.51095   2.52642   2.53307   2.53426
 Alpha virt. eigenvalues --    2.54825   2.55186   2.57634   2.58595   2.59676
 Alpha virt. eigenvalues --    2.64341   2.64749   2.66457   2.67008   2.68732
 Alpha virt. eigenvalues --    2.72110   2.74458   2.76606   2.78371   2.81081
 Alpha virt. eigenvalues --    2.81341   2.82843   2.86857   2.91812   2.93280
 Alpha virt. eigenvalues --    2.94876   2.98471   3.01986   3.06268   3.07212
 Alpha virt. eigenvalues --    3.07392   3.11065   3.17600   3.19641   3.21316
 Alpha virt. eigenvalues --    3.22556   3.23637   3.24801   3.33597   3.34144
 Alpha virt. eigenvalues --    3.42267   3.44011   3.54494   3.58679   3.63559
 Alpha virt. eigenvalues --    3.71716   3.77483   3.84015   3.85845   3.88090
 Alpha virt. eigenvalues --    3.89063   3.90830   3.91829   3.92299   3.97083
 Alpha virt. eigenvalues --    3.99747   4.00036   4.03574   4.07164   4.15457
 Alpha virt. eigenvalues --    4.24114   4.37712   4.42695   4.49909   4.70198
          Condensed to atoms (all electrons):
 Mulliken charges:
               1
     1  C    0.886545
     2  C   -1.997926
     3  C    3.047859
     4  C   -0.943213
     5  C    1.754629
     6  C   -0.067712
     7  C    0.053301
     8  C   -0.089246
     9  C    0.938352
    10  H    0.123063
    11  H    0.018356
    12  H    0.288955
    13  H    0.243564
    14  H    0.376285
    15  H   -0.305524
    16  H    0.371221
    17  H   -0.317072
    18  H   -0.331452
    19  H    0.248899
    20  H   -0.246644
    21  N    0.552116
    22  O   -1.428239
    23  O   -1.479495
    24  O   -1.696624
 Sum of Mulliken charges =  -0.00000
 Mulliken charges with hydrogens summed into heavy atoms:
               1
     1  C    0.555093
     2  C   -1.708971
     3  C    3.047859
     4  C   -0.801793
     5  C    1.754629
     6  C   -0.384784
     7  C   -0.193343
     8  C   -0.394770
     9  C    0.938352
    21  N    1.044580
    22  O   -1.428239
    23  O   -1.103210
    24  O   -1.325403
 Electronic spatial extent (au):  <R**2>=           2618.5131
 Charge=             -0.0000 electrons
 Dipole moment (field-independent basis, Debye):
    X=              1.1834    Y=              1.3433    Z=              1.6511  Tot=              2.4354

 Test job not archived.
 1\1\GINC-SE252\SP\RHF\Aug-CC-pVDZ\C9H11N1O3\OHZDE\08-Apr-2025\0\\#t hf
  aug-cc-pvdz iop(5/13=1,5/36=2,99/5=2) pseudo=read geom=check guess=(r
 ead,tcheck) scf=(maxcycle=1)\\title\\0,1\C,0,1.98627,-1.13476,-0.32695
 4\C,0,-2.38924,0.49328,-0.316454\C,0,-2.1288,-0.853059,0.28105\C,0,-1.
 10539,0.706791,-1.28454\C,0,0.235518,0.458529,-0.761474\C,0,0.95573,1.
 45492,-0.183129\C,0,0.797986,-0.862474,-0.919692\C,0,2.23286,1.12041,0
 .416625\C,0,2.78181,-0.158037,0.273988\H,0,-1.32667,-0.0133708,-2.1000
 2\H,0,-1.19782,1.72932,-1.62907\H,0,-3.19677,0.467838,-1.10249\H,0,-2.
 91053,1.24428,1.47886\H,0,-1.9499,-1.70239,2.00172\H,0,2.81338,1.80202
 ,1.04945\H,0,4.63606,0.456919,0.537364\H,0,0.63495,2.49344,-0.192222\H
 ,0,2.50739,-2.06724,-0.249757\H,0,-1.7921,2.20811,0.773836\H,0,0.11178
 5,-1.59668,-1.34164\N,0,-2.62728,1.63917,0.566354\O,0,-2.10155,-1.8134
 6,-0.442306\O,0,-2.02623,-0.806837,1.63813\O,0,4.11038,-0.360967,0.520
 799\\Version=ES64L-G16RevC.01\State=1-A\HF=-626.942905\RMSD=3.202e-02\
 Dipole=0.4655887,0.5285035,0.6495908\Quadrupole=-0.7205684,-0.1524076,
 0.872976,6.2094902,-0.9193284,-1.95952\PG=C01 [X(C9H11N1O3)]\\@


 THE PROMISED LAND ALWAYS LIES ON THE OTHER SIDE OF A WILDERNESS.

                         -- HAVELOCK ELLIS
 Job cpu time:       0 days  0 hours  4 minutes 49.6 seconds.
 Elapsed time:       0 days  0 hours  0 minutes 19.8 seconds.
 File lengths (MBytes):  RWF=     25 Int=      0 D2E=      0 Chk=     21 Scr=      1
 Normal termination of Gaussian 16 at Tue Apr  8 20:31:49 2025.
