 Entering Gaussian System, Link 0=g16
 Input=ANI1ccx_1592_conf19_mol1.gjf
 Output=ANI1ccx_1592_conf19_mol1.log
 Initial command:
 /arc/software/Gaussian/g16.c01/l1.exe "/tmp/slurm/4836214/Gau-818704.inp" -scrdir="/tmp/slurm/4836214/"
 Entering Link 1 = /arc/software/Gaussian/g16.c01/l1.exe PID=    818705.
  
 Copyright (c) 1988-2019, Gaussian, Inc.  All Rights Reserved.
  
 This is part of the Gaussian(R) 16 program.  It is based on
 the Gaussian(R) 09 system (copyright 2009, Gaussian, Inc.),
 the Gaussian(R) 03 system (copyright 2003, Gaussian, Inc.),
 the Gaussian(R) 98 system (copyright 1998, Gaussian, Inc.),
 the Gaussian(R) 94 system (copyright 1995, Gaussian, Inc.),
 the Gaussian 92(TM) system (copyright 1992, Gaussian, Inc.),
 the Gaussian 90(TM) system (copyright 1990, Gaussian, Inc.),
 the Gaussian 88(TM) system (copyright 1988, Gaussian, Inc.),
 the Gaussian 86(TM) system (copyright 1986, Carnegie Mellon
 University), and the Gaussian 82(TM) system (copyright 1983,
 Carnegie Mellon University). Gaussian is a federally registered
 trademark of Gaussian, Inc.
  
 This software contains proprietary and confidential information,
 including trade secrets, belonging to Gaussian, Inc.
  
 This software is provided under written license and may be
 used, copied, transmitted, or stored only in accord with that
 written license.
  
 The following legend is applicable only to US Government
 contracts under FAR:
  
                    RESTRICTED RIGHTS LEGEND
  
 Use, reproduction and disclosure by the US Government is
 subject to restrictions as set forth in subparagraphs (a)
 and (c) of the Commercial Computer Software - Restricted
 Rights clause in FAR 52.227-19.
  
 Gaussian, Inc.
 340 Quinnipiac St., Bldg. 40, Wallingford CT 06492
  
  
 ---------------------------------------------------------------
 Warning -- This program may not be used in any manner that
 competes with the business of Gaussian, Inc. or will provide
 assistance to any competitor of Gaussian, Inc.  The licensee
 of this program is prohibited from giving any competitor of
 Gaussian, Inc. access to this program.  By using this program,
 the user acknowledges that Gaussian, Inc. is engaged in the
 business of creating and licensing software in the field of
 computational chemistry and represents and warrants to the
 licensee that it is not a competitor of Gaussian, Inc. and that
 it will not use this program in any manner prohibited above.
 ---------------------------------------------------------------
  

 Cite this work as:
 Gaussian 16, Revision C.01,
 M. J. Frisch, G. W. Trucks, H. B. Schlegel, G. E. Scuseria, 
 M. A. Robb, J. R. Cheeseman, G. Scalmani, V. Barone, 
 G. A. Petersson, H. Nakatsuji, X. Li, M. Caricato, A. V. Marenich, 
 J. Bloino, B. G. Janesko, R. Gomperts, B. Mennucci, H. P. Hratchian, 
 J. V. Ortiz, A. F. Izmaylov, J. L. Sonnenberg, D. Williams-Young, 
 F. Ding, F. Lipparini, F. Egidi, J. Goings, B. Peng, A. Petrone, 
 T. Henderson, D. Ranasinghe, V. G. Zakrzewski, J. Gao, N. Rega, 
 G. Zheng, W. Liang, M. Hada, M. Ehara, K. Toyota, R. Fukuda, 
 J. Hasegawa, M. Ishida, T. Nakajima, Y. Honda, O. Kitao, H. Nakai, 
 T. Vreven, K. Throssell, J. A. Montgomery, Jr., J. E. Peralta, 
 F. Ogliaro, M. J. Bearpark, J. J. Heyd, E. N. Brothers, K. N. Kudin, 
 V. N. Staroverov, T. A. Keith, R. Kobayashi, J. Normand, 
 K. Raghavachari, A. P. Rendell, J. C. Burant, S. S. Iyengar, 
 J. Tomasi, M. Cossi, J. M. Millam, M. Klene, C. Adamo, R. Cammi, 
 J. W. Ochterski, R. L. Martin, K. Morokuma, O. Farkas, 
 J. B. Foresman, and D. J. Fox, Gaussian, Inc., Wallingford CT, 2019.
 
 ******************************************
 Gaussian 16:  ES64L-G16RevC.01  3-Jul-2019
                 8-Apr-2025 
 ******************************************
 %nprocs=16
 Will use up to   16 processors via shared memory.
 %mem=30GB
 %chk=ANI1ccx_1592_conf19_mol1.chk
 ----------------------------------------------------------------------
 #t hf aug-cc-pvdz symm=none int=(grid=ultrafine) guess=(read,tcheck) s
 table=(opt,rrhf)
 ----------------------------------------------------------------------
 -----
 title
 -----
 Symbolic Z-matrix:
 Charge =  0 Multiplicity = 1
 C                     0.53343   1.29938  -0.31647 
 C                    -0.81551   1.87883  -0.0709 
 C                     1.32571   1.00024   0.8475 
 C                     2.67753   0.33553   0.51745 
 C                     2.46115  -1.04903   0.02025 
 C                    -1.6494   -0.44572   0.63352 
 C                    -2.02966  -1.34541  -0.61684 
 C                    -2.34835  -0.82794   1.87449 
 H                    -0.24715  -1.80733  -0.65499 
 H                    -3.40905  -0.79606   1.73267 
 H                    -2.09466  -0.12351   2.62213 
 H                    -2.06401  -1.83097   2.13219 
 H                    -0.59781  -0.68919   0.52501 
 H                    -2.7952    1.48566   0.22049 
 H                     3.36822  -2.67704  -0.17898 
 H                     3.21652   0.83304  -0.2908 
 H                     3.32462   0.24716   1.41167 
 H                     1.56164   1.80816   1.53872 
 H                     0.76847   0.27437   1.46037 
 H                     0.35749   0.38434  -0.96263 
 H                     0.86005   2.4466   -1.97722 
 H                     1.29929   3.15129  -0.67045 
 N                     1.41119   2.25756  -1.11199 
 N                    -1.81005   1.01964   0.28041 
 O                    -1.01907   3.13891  -0.13391 
 O                     1.4367   -1.58304  -0.2534 
 O                     3.57045  -1.80533   0.14063 
 O                    -3.10235  -1.36336  -1.09635 
 O                    -1.09645  -2.22747  -0.95961 
 
                    Distance matrix (angstroms):
                    1          2          3          4          5
     1  C    0.000000
     2  C    1.488520   0.000000
     3  C    1.439451   2.490020   0.000000
     4  C    2.494314   3.863838   1.542138   0.000000
     5  C    3.056882   4.395130   2.484566   1.486954   0.000000
     6  C    2.951708   2.568096   3.314795   4.398426   4.199608
     7  C    3.695206   3.488256   4.347972   5.125407   4.545448
     8  C    4.198859   3.668890   4.230327   5.334295   5.159300
     9  H    3.221109   3.775176   3.551592   3.810540   2.892381
    10  H    4.912531   4.139368   5.140834   6.309019   6.120100
    11  H    4.191278   3.591380   4.013859   5.235858   5.327455
    12  H    4.747810   4.491658   4.599607   5.457411   5.054581
    13  H    2.437660   2.645228   2.580329   3.431903   3.121136
    14  H    3.376800   2.039282   4.196507   5.600157   5.839004
    15  H    4.885374   6.186374   4.329882   3.168223   1.874269
    16  H    2.723440   4.171246   2.213330   1.091456   2.051710
    17  H    3.447376   4.690527   2.209313   1.107327   2.088477
    18  H    2.181241   2.871711   1.089122   2.111125   3.358333
    19  H    2.064718   2.725454   1.101374   2.130108   2.586597
    20  H    1.133924   2.098720   2.143209   2.752376   2.728729
    21  H    2.044722   2.600752   3.207463   3.739410   4.332762
    22  H    2.035049   2.539880   2.632848   3.352484   4.412446
    23  N    1.523624   2.487063   2.329753   2.820083   3.649373
    24  N    2.434419   1.360419   3.186684   4.545610   4.752918
    25  O    2.414010   1.277971   3.321907   4.684875   5.447434
    26  O    3.021296   4.134041   2.810272   2.411385   1.187244
    27  O    4.367114   5.731877   3.661931   2.350017   1.347972
    28  O    4.573540   4.097924   5.382644   6.236792   5.683145
    29  O    3.938121   4.210751   4.421606   4.795163   3.873676
                    6          7          8          9         10
     6  C    0.000000
     7  C    1.586644   0.000000
     8  C    1.474661   2.564382   0.000000
     9  H    2.341053   1.841781   3.431106   0.000000
    10  H    2.104100   2.779333   1.070614   4.089152   0.000000
    11  H    2.063163   3.462396   1.058087   4.121654   1.723684
    12  H    2.082506   2.791792   1.073933   3.327143   1.743499
    13  H    1.084849   1.945412   2.214667   1.663003   3.061527
    14  H    2.283348   3.049939   2.878911   4.254737   2.805307
    15  H    5.551167   5.576923   6.349415   3.748854   7.288612
    16  H    5.115345   5.689846   6.197990   4.370493   7.116639
    17  H    5.081975   5.943016   5.792463   4.609724   6.821558
    18  H    4.026181   5.242983   4.727555   4.599548   5.614921
    19  H    2.654863   3.842915   3.331836   3.136826   4.321068
    20  H    2.695238   2.968179   4.103711   2.294262   4.779625
    21  H    4.634526   4.957864   5.987664   4.590221   6.519460
    22  H    4.830486   5.595096   5.967937   5.194193   6.597351
    23  N    4.440916   5.006597   5.707320   4.413874   6.375845
    24  N    1.515841   2.539043   2.498882   3.362940   2.821813
    25  O    3.719655   4.622081   4.640749   5.033156   4.967908
    26  O    3.406485   3.493452   4.407346   1.745548   5.295763
    27  O    5.416485   5.669790   6.244497   3.899629   7.229566
    28  O    2.438356   1.175125   3.111444   2.923023   2.901594
    29  O    2.453254   1.329061   3.399715   0.995298   3.826934
                   11         12         13         14         15
    11  H    0.000000
    12  H    1.776629   0.000000
    13  H    2.637895   2.456918   0.000000
    14  H    2.974568   3.897342   3.106643   0.000000
    15  H    6.649043   5.963761   4.491828   7.448180   0.000000
    16  H    6.132597   6.391541   4.187101   6.068616   3.515134
    17  H    5.565178   5.820233   4.128968   6.356492   3.329114
    18  H    4.274768   5.171152   3.453635   4.563310   5.131396
    19  H    3.115365   3.592592   1.915741   3.962863   4.261097
    20  H    4.372809   4.511005   2.068361   3.542903   4.364700
    21  H    6.040679   6.613244   4.268451   4.371980   5.981327
    22  H    5.751895   6.632459   4.447178   4.509207   6.204148
    23  N    5.648373   6.270390   3.924177   4.479402   5.389876
    24  N    2.621345   3.408749   2.109373   1.091460   6.378946
    25  O    4.404092   5.561189   3.907171   2.452238   7.285302
    26  O    4.782197   4.243522   2.354594   5.248854   2.221068
    27  O    6.409355   5.976127   4.332193   7.166484   0.950223
    28  O    4.047193   3.423489   3.058762   3.153620   6.666004
    29  O    4.272229   3.263833   2.195229   4.250378   4.554644
                   16         17         18         19         20
    16  H    0.000000
    17  H    1.803698   0.000000
    18  H    2.652662   2.358169   0.000000
    19  H    3.061314   2.556759   1.728521   0.000000
    20  H    2.970982   3.802625   3.119936   2.460066   0.000000
    21  H    3.316707   4.732463   3.641657   4.067434   2.352636
    22  H    3.032195   4.107453   2.598707   3.619237   2.937412
    23  N    2.441893   3.751237   2.692742   3.311070   2.154427
    24  N    5.062361   5.314256   3.684210   2.931981   2.578177
    25  O    4.825130   5.442305   3.350919   3.733986   3.188947
    26  O    3.001098   3.112287   3.837648   2.614095   2.353351
    27  O    2.696735   2.426661   4.364318   3.730674   4.041648
    28  O    6.738041   7.084482   6.225346   4.919574   3.878509
    29  O    5.330641   5.593980   5.439982   3.948848   2.989228
                   21         22         23         24         25
    21  H    0.000000
    22  H    1.548275   0.000000
    23  N    1.043126   1.003110   0.000000
    24  N    3.776579   3.887938   3.721237   0.000000
    25  O    2.721797   2.379669   2.763979   2.299699   0.000000
    26  O    4.420642   4.754650   3.935484   4.195269   5.323711
    27  O    5.469046   5.512178   4.768495   6.078632   6.751635
    28  O    5.567079   6.319643   5.786480   3.040426   5.053393
    29  O    5.168207   5.895273   5.140717   3.548322   5.430083
                   26         27         28         29
    26  O    0.000000
    27  O    2.181184   0.000000
    28  O    4.621883   6.800862   0.000000
    29  O    2.707558   4.813387   2.188383   0.000000
 Symmetry turned off by external request.
 Rotational constants (GHZ):           0.6745390           0.4799556           0.3343670
   471 basis functions,   799 primitive gaussians,   501 cartesian basis functions
    58 alpha electrons       58 beta electrons
       nuclear repulsion energy      1096.4355023431 Hartrees.
 NAtoms=   29 NActive=   29 NUniq=   29 SFac= 1.00D+00 NAtFMM=   60 NAOKFM=F Big=F
 ExpMin= 2.97D-02 ExpMax= 1.17D+04 ExpMxC= 4.01D+02 IAcc=3 IRadAn=         5 AccDes= 0.00D+00
 Harris functional with IExCor=  205 and IRadAn=       5 diagonalized for initial guess.
 HarFok:  IExCor=  205 AccDes= 0.00D+00 IRadAn=         5 IDoV= 1 UseB2=F ITyADJ=14
 ICtDFT=  3500011 ScaDFX=  1.000000  1.000000  1.000000  1.000000
 FoFCou: FMM=F IPFlag=           0 FMFlag=      100000 FMFlg1=           0
         NFxFlg=           0 DoJE=T BraDBF=F KetDBF=T FulRan=T
         wScrn=  0.000000 ICntrl=       500 IOpCl=  0 I1Cent=   200000004 NGrid=           0
         NMat0=    1 NMatS0=      1 NMatT0=    0 NMatD0=    1 NMtDS0=    0 NMtDT0=    0
 Symmetry not used in FoFCou.
 SCF Done:  E(RHF) =  -794.416481728     A.U. after   15 cycles
            NFock= 15  Conv=0.56D-08     -V/T= 2.0009

 **********************************************************************

            Population analysis using the SCF Density.

 **********************************************************************

 Alpha  occ. eigenvalues --  -20.64375 -20.61323 -20.60242 -20.55194 -20.53956
 Alpha  occ. eigenvalues --  -15.62034 -15.56804 -11.43008 -11.38343 -11.37553
 Alpha  occ. eigenvalues --  -11.31998 -11.29610 -11.27686 -11.26539 -11.24862
 Alpha  occ. eigenvalues --   -1.51955  -1.47383  -1.41151  -1.37605  -1.36702
 Alpha  occ. eigenvalues --   -1.23805  -1.20764  -1.10454  -1.07667  -1.01326
 Alpha  occ. eigenvalues --   -0.92485  -0.91052  -0.84007  -0.82151  -0.78625
 Alpha  occ. eigenvalues --   -0.75683  -0.73676  -0.73434  -0.70927  -0.69498
 Alpha  occ. eigenvalues --   -0.67608  -0.66253  -0.66030  -0.64256  -0.63671
 Alpha  occ. eigenvalues --   -0.61920  -0.60279  -0.59115  -0.58524  -0.58388
 Alpha  occ. eigenvalues --   -0.57053  -0.55879  -0.55331  -0.53627  -0.52252
 Alpha  occ. eigenvalues --   -0.51954  -0.50991  -0.48658  -0.47930  -0.44790
 Alpha  occ. eigenvalues --   -0.43896  -0.42843  -0.39290
 Alpha virt. eigenvalues --    0.02220   0.03245   0.03752   0.04261   0.05278
 Alpha virt. eigenvalues --    0.05660   0.06067   0.06364   0.06890   0.07625
 Alpha virt. eigenvalues --    0.08518   0.08875   0.09802   0.10265   0.10594
 Alpha virt. eigenvalues --    0.11038   0.12110   0.12306   0.12808   0.13607
 Alpha virt. eigenvalues --    0.13626   0.14140   0.14430   0.14540   0.14788
 Alpha virt. eigenvalues --    0.15234   0.15530   0.15906   0.16329   0.16685
 Alpha virt. eigenvalues --    0.17173   0.17338   0.18033   0.18297   0.18686
 Alpha virt. eigenvalues --    0.19173   0.19431   0.19838   0.20192   0.21313
 Alpha virt. eigenvalues --    0.21411   0.21642   0.22556   0.23208   0.23592
 Alpha virt. eigenvalues --    0.24262   0.24971   0.25680   0.26041   0.26502
 Alpha virt. eigenvalues --    0.26677   0.27229   0.27584   0.27871   0.28635
 Alpha virt. eigenvalues --    0.29375   0.30015   0.30694   0.30807   0.31332
 Alpha virt. eigenvalues --    0.31365   0.31934   0.32308   0.33002   0.33131
 Alpha virt. eigenvalues --    0.34193   0.34492   0.35406   0.35597   0.35830
 Alpha virt. eigenvalues --    0.36098   0.36286   0.37009   0.37212   0.37449
 Alpha virt. eigenvalues --    0.38162   0.38683   0.39309   0.40000   0.40264
 Alpha virt. eigenvalues --    0.40984   0.41375   0.41632   0.42116   0.42540
 Alpha virt. eigenvalues --    0.42999   0.43848   0.44079   0.44926   0.45372
 Alpha virt. eigenvalues --    0.46087   0.46170   0.46945   0.47181   0.47684
 Alpha virt. eigenvalues --    0.48008   0.48529   0.49024   0.49705   0.49974
 Alpha virt. eigenvalues --    0.50899   0.51447   0.51672   0.52466   0.52882
 Alpha virt. eigenvalues --    0.54072   0.54391   0.54662   0.54881   0.55449
 Alpha virt. eigenvalues --    0.56263   0.56852   0.57427   0.57984   0.58311
 Alpha virt. eigenvalues --    0.58940   0.59434   0.59875   0.60705   0.61102
 Alpha virt. eigenvalues --    0.61725   0.62063   0.63139   0.63850   0.64450
 Alpha virt. eigenvalues --    0.64882   0.65368   0.65940   0.66527   0.67207
 Alpha virt. eigenvalues --    0.68030   0.68166   0.68814   0.69320   0.69568
 Alpha virt. eigenvalues --    0.70642   0.71327   0.71701   0.72050   0.72434
 Alpha virt. eigenvalues --    0.73468   0.74051   0.74786   0.75590   0.76217
 Alpha virt. eigenvalues --    0.76496   0.77331   0.77688   0.78277   0.78934
 Alpha virt. eigenvalues --    0.79431   0.79838   0.80441   0.81114   0.82139
 Alpha virt. eigenvalues --    0.83261   0.83540   0.83832   0.84265   0.85464
 Alpha virt. eigenvalues --    0.85680   0.85769   0.87202   0.87645   0.88362
 Alpha virt. eigenvalues --    0.88968   0.89746   0.89940   0.90533   0.91966
 Alpha virt. eigenvalues --    0.92948   0.93804   0.94230   0.94953   0.95098
 Alpha virt. eigenvalues --    0.96017   0.97691   0.98160   0.98849   0.99545
 Alpha virt. eigenvalues --    1.00032   1.01189   1.01698   1.02710   1.03789
 Alpha virt. eigenvalues --    1.04321   1.05119   1.05612   1.06147   1.07306
 Alpha virt. eigenvalues --    1.08021   1.08400   1.09197   1.09434   1.11722
 Alpha virt. eigenvalues --    1.12002   1.13797   1.14167   1.15201   1.16190
 Alpha virt. eigenvalues --    1.16380   1.17447   1.17963   1.18402   1.19664
 Alpha virt. eigenvalues --    1.20938   1.21677   1.22391   1.23218   1.23818
 Alpha virt. eigenvalues --    1.24717   1.26115   1.26848   1.27825   1.29403
 Alpha virt. eigenvalues --    1.30682   1.30930   1.32347   1.32531   1.33744
 Alpha virt. eigenvalues --    1.34329   1.35172   1.35780   1.36537   1.37845
 Alpha virt. eigenvalues --    1.38883   1.41139   1.42162   1.42259   1.43514
 Alpha virt. eigenvalues --    1.44048   1.46108   1.46335   1.47472   1.49563
 Alpha virt. eigenvalues --    1.50074   1.51077   1.52407   1.54388   1.55179
 Alpha virt. eigenvalues --    1.55853   1.58580   1.59525   1.60342   1.61229
 Alpha virt. eigenvalues --    1.63475   1.64454   1.66272   1.67207   1.69167
 Alpha virt. eigenvalues --    1.70196   1.70972   1.71774   1.72572   1.74391
 Alpha virt. eigenvalues --    1.75883   1.76172   1.78200   1.79607   1.79879
 Alpha virt. eigenvalues --    1.81182   1.81915   1.83526   1.84098   1.86079
 Alpha virt. eigenvalues --    1.86374   1.88051   1.88952   1.90231   1.90373
 Alpha virt. eigenvalues --    1.91925   1.93007   1.94071   1.95516   1.96024
 Alpha virt. eigenvalues --    1.97377   1.98321   1.98834   2.00902   2.02423
 Alpha virt. eigenvalues --    2.03471   2.04034   2.04972   2.06523   2.07442
 Alpha virt. eigenvalues --    2.09027   2.09223   2.10119   2.11868   2.12141
 Alpha virt. eigenvalues --    2.13627   2.15380   2.15907   2.17043   2.17713
 Alpha virt. eigenvalues --    2.20089   2.21685   2.22112   2.22512   2.23279
 Alpha virt. eigenvalues --    2.24359   2.25630   2.26815   2.27880   2.28502
 Alpha virt. eigenvalues --    2.30085   2.30456   2.31380   2.32501   2.34953
 Alpha virt. eigenvalues --    2.35977   2.37717   2.37926   2.38770   2.39546
 Alpha virt. eigenvalues --    2.40438   2.42564   2.44840   2.45086   2.46357
 Alpha virt. eigenvalues --    2.47350   2.49176   2.50032   2.50728   2.51679
 Alpha virt. eigenvalues --    2.52856   2.53275   2.55721   2.56169   2.57400
 Alpha virt. eigenvalues --    2.59232   2.60119   2.61790   2.63284   2.64366
 Alpha virt. eigenvalues --    2.65946   2.68069   2.70692   2.72046   2.73917
 Alpha virt. eigenvalues --    2.74145   2.75551   2.76520   2.77885   2.79599
 Alpha virt. eigenvalues --    2.79982   2.83202   2.84492   2.85117   2.85689
 Alpha virt. eigenvalues --    2.88435   2.89273   2.92296   2.93147   2.94569
 Alpha virt. eigenvalues --    2.97140   2.98098   2.99401   3.00575   3.01669
 Alpha virt. eigenvalues --    3.02523   3.05303   3.06935   3.08776   3.11346
 Alpha virt. eigenvalues --    3.12663   3.14123   3.15725   3.17591   3.18863
 Alpha virt. eigenvalues --    3.22044   3.24477   3.25383   3.28638   3.32520
 Alpha virt. eigenvalues --    3.35536   3.41101   3.42448   3.46449   3.54787
 Alpha virt. eigenvalues --    3.59418   3.61879   3.65278   3.71064   3.73050
 Alpha virt. eigenvalues --    3.75922   3.77163   3.78685   3.79015   3.80643
 Alpha virt. eigenvalues --    3.81085   3.83463   3.83922   3.85424   3.86381
 Alpha virt. eigenvalues --    3.86872   3.89058   3.91963   3.92178   3.94699
 Alpha virt. eigenvalues --    3.98582   4.01154   4.03144   4.08194   4.10921
 Alpha virt. eigenvalues --    4.15229   4.19522   4.20387   4.28375   4.35396
 Alpha virt. eigenvalues --    4.43854   4.52932   4.59607
          Condensed to atoms (all electrons):
 Mulliken charges:
               1
     1  C   -0.037736
     2  C    1.123599
     3  C    0.503886
     4  C    0.524356
     5  C    0.790139
     6  C   -0.398100
     7  C    1.163946
     8  C    0.948742
     9  H    0.443515
    10  H    0.005470
    11  H   -0.045351
    12  H    0.047751
    13  H   -0.051885
    14  H    0.009877
    15  H    0.155960
    16  H    0.006463
    17  H    0.025894
    18  H   -0.221583
    19  H   -0.201990
    20  H    0.098647
    21  H    0.018199
    22  H    0.097259
    23  N   -0.414566
    24  N   -0.684560
    25  O   -0.968851
    26  O   -0.767783
    27  O   -0.721631
    28  O   -0.760731
    29  O   -0.688939
 Sum of Mulliken charges =  -0.00000
 Mulliken charges with hydrogens summed into heavy atoms:
               1
     1  C    0.060912
     2  C    1.123599
     3  C    0.080314
     4  C    0.556714
     5  C    0.790139
     6  C   -0.449985
     7  C    1.163946
     8  C    0.956612
    23  N   -0.299108
    24  N   -0.674682
    25  O   -0.968851
    26  O   -0.767783
    27  O   -0.565671
    28  O   -0.760731
    29  O   -0.245425
 Electronic spatial extent (au):  <R**2>=           3405.0537
 Charge=             -0.0000 electrons
 Dipole moment (field-independent basis, Debye):
    X=              4.3966    Y=             -1.5165    Z=              3.7048  Tot=              5.9460
 NROrb=    471 NOA=    58 NOB=    58 NVA=   413 NVB=   413

 **** Warning!!: The largest alpha MO coefficient is  0.77970374D+02

    12 initial guesses have been made.
 Iteration     1 Dimension    12 NMult     0 NNew     12
 New state      1 was old state      3
 Iteration     2 Dimension    24 NMult    12 NNew     12
 Iteration     3 Dimension    27 NMult    24 NNew      3
 New state      1 was old state      2
 Iteration     4 Dimension    30 NMult    27 NNew      3
 Iteration     5 Dimension    33 NMult    30 NNew      3
 Iteration     6 Dimension    36 NMult    33 NNew      3
 Iteration     7 Dimension    39 NMult    36 NNew      3
 Iteration     8 Dimension    42 NMult    39 NNew      3
 Iteration     9 Dimension    45 NMult    42 NNew      3
 Iteration    10 Dimension    48 NMult    45 NNew      3
 Iteration    11 Dimension    51 NMult    48 NNew      3
 Iteration    12 Dimension    54 NMult    51 NNew      3
 ***********************************************************************
 Stability analysis using <AA,BB:AA,BB> singles matrix:
 ***********************************************************************
 Ground to excited state transition densities written to RWF  633

 Eigenvectors of the stability matrix:
 
 Excited state symmetry could not be determined.
 Eigenvector   1:      Singlet-?Sym  Eigenvalue= 0.2325490  <S**2>=0.000
      56 -> 79         0.14450
      56 -> 80        -0.12319
      56 -> 81        -0.22457
      56 -> 82        -0.19575
      57 -> 79         0.15619
      57 -> 80        -0.14040
      57 -> 81        -0.25659
      57 -> 82        -0.21312
      57 -> 86         0.11708
 The wavefunction is stable under the perturbations considered.
 The wavefunction is already stable.

 **********************************************************************

            Population analysis using the SCF Density.

 **********************************************************************

 Alpha  occ. eigenvalues --  -20.64375 -20.61323 -20.60242 -20.55194 -20.53956
 Alpha  occ. eigenvalues --  -15.62034 -15.56804 -11.43008 -11.38343 -11.37553
 Alpha  occ. eigenvalues --  -11.31998 -11.29610 -11.27686 -11.26539 -11.24862
 Alpha  occ. eigenvalues --   -1.51955  -1.47383  -1.41151  -1.37605  -1.36702
 Alpha  occ. eigenvalues --   -1.23805  -1.20764  -1.10454  -1.07667  -1.01326
 Alpha  occ. eigenvalues --   -0.92485  -0.91052  -0.84007  -0.82151  -0.78625
 Alpha  occ. eigenvalues --   -0.75683  -0.73676  -0.73434  -0.70927  -0.69498
 Alpha  occ. eigenvalues --   -0.67608  -0.66253  -0.66030  -0.64256  -0.63671
 Alpha  occ. eigenvalues --   -0.61920  -0.60279  -0.59115  -0.58524  -0.58388
 Alpha  occ. eigenvalues --   -0.57053  -0.55879  -0.55331  -0.53627  -0.52252
 Alpha  occ. eigenvalues --   -0.51954  -0.50991  -0.48658  -0.47930  -0.44790
 Alpha  occ. eigenvalues --   -0.43896  -0.42843  -0.39290
 Alpha virt. eigenvalues --    0.02220   0.03245   0.03752   0.04261   0.05278
 Alpha virt. eigenvalues --    0.05660   0.06067   0.06364   0.06890   0.07625
 Alpha virt. eigenvalues --    0.08518   0.08875   0.09802   0.10265   0.10594
 Alpha virt. eigenvalues --    0.11038   0.12110   0.12306   0.12808   0.13607
 Alpha virt. eigenvalues --    0.13626   0.14140   0.14430   0.14540   0.14788
 Alpha virt. eigenvalues --    0.15234   0.15530   0.15906   0.16329   0.16685
 Alpha virt. eigenvalues --    0.17173   0.17338   0.18033   0.18297   0.18686
 Alpha virt. eigenvalues --    0.19173   0.19431   0.19838   0.20192   0.21313
 Alpha virt. eigenvalues --    0.21411   0.21642   0.22556   0.23208   0.23592
 Alpha virt. eigenvalues --    0.24262   0.24971   0.25680   0.26041   0.26502
 Alpha virt. eigenvalues --    0.26677   0.27229   0.27584   0.27871   0.28635
 Alpha virt. eigenvalues --    0.29375   0.30015   0.30694   0.30807   0.31332
 Alpha virt. eigenvalues --    0.31365   0.31934   0.32308   0.33002   0.33131
 Alpha virt. eigenvalues --    0.34193   0.34492   0.35406   0.35597   0.35830
 Alpha virt. eigenvalues --    0.36098   0.36286   0.37009   0.37212   0.37449
 Alpha virt. eigenvalues --    0.38162   0.38683   0.39309   0.40000   0.40264
 Alpha virt. eigenvalues --    0.40984   0.41375   0.41632   0.42116   0.42540
 Alpha virt. eigenvalues --    0.42999   0.43848   0.44079   0.44926   0.45372
 Alpha virt. eigenvalues --    0.46087   0.46170   0.46945   0.47181   0.47684
 Alpha virt. eigenvalues --    0.48008   0.48529   0.49024   0.49705   0.49974
 Alpha virt. eigenvalues --    0.50899   0.51447   0.51672   0.52466   0.52882
 Alpha virt. eigenvalues --    0.54072   0.54391   0.54662   0.54881   0.55449
 Alpha virt. eigenvalues --    0.56263   0.56852   0.57427   0.57984   0.58311
 Alpha virt. eigenvalues --    0.58940   0.59434   0.59875   0.60705   0.61102
 Alpha virt. eigenvalues --    0.61725   0.62063   0.63139   0.63850   0.64450
 Alpha virt. eigenvalues --    0.64882   0.65368   0.65940   0.66527   0.67207
 Alpha virt. eigenvalues --    0.68030   0.68166   0.68814   0.69320   0.69568
 Alpha virt. eigenvalues --    0.70642   0.71327   0.71701   0.72050   0.72434
 Alpha virt. eigenvalues --    0.73468   0.74051   0.74786   0.75590   0.76217
 Alpha virt. eigenvalues --    0.76496   0.77331   0.77688   0.78277   0.78934
 Alpha virt. eigenvalues --    0.79431   0.79838   0.80441   0.81114   0.82139
 Alpha virt. eigenvalues --    0.83261   0.83540   0.83832   0.84265   0.85464
 Alpha virt. eigenvalues --    0.85680   0.85769   0.87202   0.87645   0.88362
 Alpha virt. eigenvalues --    0.88968   0.89746   0.89940   0.90533   0.91966
 Alpha virt. eigenvalues --    0.92948   0.93804   0.94230   0.94953   0.95098
 Alpha virt. eigenvalues --    0.96017   0.97691   0.98160   0.98849   0.99545
 Alpha virt. eigenvalues --    1.00032   1.01189   1.01698   1.02710   1.03789
 Alpha virt. eigenvalues --    1.04321   1.05119   1.05612   1.06147   1.07306
 Alpha virt. eigenvalues --    1.08021   1.08400   1.09197   1.09434   1.11722
 Alpha virt. eigenvalues --    1.12002   1.13797   1.14167   1.15201   1.16190
 Alpha virt. eigenvalues --    1.16380   1.17447   1.17963   1.18402   1.19664
 Alpha virt. eigenvalues --    1.20938   1.21677   1.22391   1.23218   1.23818
 Alpha virt. eigenvalues --    1.24717   1.26115   1.26848   1.27825   1.29403
 Alpha virt. eigenvalues --    1.30682   1.30930   1.32347   1.32531   1.33744
 Alpha virt. eigenvalues --    1.34329   1.35172   1.35780   1.36537   1.37845
 Alpha virt. eigenvalues --    1.38883   1.41139   1.42162   1.42259   1.43514
 Alpha virt. eigenvalues --    1.44048   1.46108   1.46335   1.47472   1.49563
 Alpha virt. eigenvalues --    1.50074   1.51077   1.52407   1.54388   1.55179
 Alpha virt. eigenvalues --    1.55853   1.58580   1.59525   1.60342   1.61229
 Alpha virt. eigenvalues --    1.63475   1.64454   1.66272   1.67207   1.69167
 Alpha virt. eigenvalues --    1.70196   1.70972   1.71774   1.72572   1.74391
 Alpha virt. eigenvalues --    1.75883   1.76172   1.78200   1.79607   1.79879
 Alpha virt. eigenvalues --    1.81182   1.81915   1.83526   1.84098   1.86079
 Alpha virt. eigenvalues --    1.86374   1.88051   1.88952   1.90231   1.90373
 Alpha virt. eigenvalues --    1.91925   1.93007   1.94071   1.95516   1.96024
 Alpha virt. eigenvalues --    1.97377   1.98321   1.98834   2.00902   2.02423
 Alpha virt. eigenvalues --    2.03471   2.04034   2.04972   2.06523   2.07442
 Alpha virt. eigenvalues --    2.09027   2.09223   2.10119   2.11868   2.12141
 Alpha virt. eigenvalues --    2.13627   2.15380   2.15907   2.17043   2.17713
 Alpha virt. eigenvalues --    2.20089   2.21685   2.22112   2.22512   2.23279
 Alpha virt. eigenvalues --    2.24359   2.25630   2.26815   2.27880   2.28502
 Alpha virt. eigenvalues --    2.30085   2.30456   2.31380   2.32501   2.34953
 Alpha virt. eigenvalues --    2.35977   2.37717   2.37926   2.38770   2.39546
 Alpha virt. eigenvalues --    2.40438   2.42564   2.44840   2.45086   2.46357
 Alpha virt. eigenvalues --    2.47350   2.49176   2.50032   2.50728   2.51679
 Alpha virt. eigenvalues --    2.52856   2.53275   2.55721   2.56169   2.57400
 Alpha virt. eigenvalues --    2.59232   2.60119   2.61790   2.63284   2.64366
 Alpha virt. eigenvalues --    2.65946   2.68069   2.70692   2.72046   2.73917
 Alpha virt. eigenvalues --    2.74145   2.75551   2.76520   2.77885   2.79599
 Alpha virt. eigenvalues --    2.79982   2.83202   2.84492   2.85117   2.85689
 Alpha virt. eigenvalues --    2.88435   2.89273   2.92296   2.93147   2.94569
 Alpha virt. eigenvalues --    2.97140   2.98098   2.99401   3.00575   3.01669
 Alpha virt. eigenvalues --    3.02523   3.05303   3.06935   3.08776   3.11346
 Alpha virt. eigenvalues --    3.12663   3.14123   3.15725   3.17591   3.18863
 Alpha virt. eigenvalues --    3.22044   3.24477   3.25383   3.28638   3.32520
 Alpha virt. eigenvalues --    3.35536   3.41101   3.42448   3.46449   3.54787
 Alpha virt. eigenvalues --    3.59418   3.61879   3.65278   3.71064   3.73050
 Alpha virt. eigenvalues --    3.75922   3.77163   3.78685   3.79015   3.80643
 Alpha virt. eigenvalues --    3.81085   3.83463   3.83922   3.85424   3.86381
 Alpha virt. eigenvalues --    3.86872   3.89058   3.91963   3.92178   3.94699
 Alpha virt. eigenvalues --    3.98582   4.01154   4.03144   4.08194   4.10921
 Alpha virt. eigenvalues --    4.15229   4.19522   4.20387   4.28375   4.35396
 Alpha virt. eigenvalues --    4.43854   4.52932   4.59607
          Condensed to atoms (all electrons):
 Mulliken charges:
               1
     1  C   -0.037736
     2  C    1.123599
     3  C    0.503886
     4  C    0.524356
     5  C    0.790139
     6  C   -0.398100
     7  C    1.163946
     8  C    0.948742
     9  H    0.443515
    10  H    0.005470
    11  H   -0.045351
    12  H    0.047751
    13  H   -0.051885
    14  H    0.009877
    15  H    0.155960
    16  H    0.006463
    17  H    0.025894
    18  H   -0.221583
    19  H   -0.201990
    20  H    0.098647
    21  H    0.018199
    22  H    0.097259
    23  N   -0.414566
    24  N   -0.684560
    25  O   -0.968851
    26  O   -0.767783
    27  O   -0.721631
    28  O   -0.760731
    29  O   -0.688939
 Sum of Mulliken charges =  -0.00000
 Mulliken charges with hydrogens summed into heavy atoms:
               1
     1  C    0.060912
     2  C    1.123599
     3  C    0.080314
     4  C    0.556714
     5  C    0.790139
     6  C   -0.449985
     7  C    1.163946
     8  C    0.956612
    23  N   -0.299108
    24  N   -0.674682
    25  O   -0.968851
    26  O   -0.767783
    27  O   -0.565671
    28  O   -0.760731
    29  O   -0.245425
 Electronic spatial extent (au):  <R**2>=           3405.0537
 Charge=             -0.0000 electrons
 Dipole moment (field-independent basis, Debye):
    X=              4.3966    Y=             -1.5165    Z=              3.7048  Tot=              5.9460
 Unable to Open any file for archive entry.
 1\1\GINC-SE058\Stability\RHF\Aug-CC-pVDZ\C8H14N2O5\OHZDE\08-Apr-2025\0
 \\#t hf aug-cc-pvdz symm=none int=(grid=ultrafine) guess=(read,tcheck)
  stable=(opt,rrhf)\\title\\0,1\C,0,0.533426,1.29938,-0.31647\C,0,-0.81
 5509,1.87883,-0.0709041\C,0,1.32571,1.00024,0.847497\C,0,2.67753,0.335
 531,0.517445\C,0,2.46115,-1.04903,0.0202506\C,0,-1.6494,-0.445719,0.63
 3521\C,0,-2.02966,-1.34541,-0.616838\C,0,-2.34835,-0.827938,1.87449\H,
 0,-0.247153,-1.80733,-0.654986\H,0,-3.40905,-0.796059,1.73267\H,0,-2.0
 9466,-0.123507,2.62213\H,0,-2.06401,-1.83097,2.13219\H,0,-0.597809,-0.
 68919,0.525006\H,0,-2.7952,1.48566,0.220489\H,0,3.36822,-2.67704,-0.17
 8975\H,0,3.21652,0.833038,-0.290795\H,0,3.32462,0.24716,1.41167\H,0,1.
 56164,1.80816,1.53872\H,0,0.76847,0.274365,1.46037\H,0,0.357493,0.3843
 35,-0.96263\H,0,0.860053,2.4466,-1.97722\H,0,1.29929,3.15129,-0.670454
 \N,0,1.41119,2.25756,-1.11199\N,0,-1.81005,1.01964,0.280408\O,0,-1.019
 07,3.13891,-0.133912\O,0,1.4367,-1.58304,-0.2534\O,0,3.57045,-1.80533,
 0.140633\O,0,-3.10235,-1.36336,-1.09635\O,0,-1.09645,-2.22747,-0.95960
 9\\Version=ES64L-G16RevC.01\HF=-794.4164817\RMSD=5.597e-09\Dipole=1.72
 9764,-0.5966349,1.4575734\Quadrupole=0.8243201,-6.4058034,5.5814833,-4
 .3074654,-5.8320144,-3.2494178\PG=Unknown\\@
 The archive entry for this job was punched.


 MEMORIES ARE LIKE AN ENGLISH GRAMMER LESSON -
 PRESENT TENSE, AND PAST PERFECT.
 Job cpu time:       0 days  2 hours 53 minutes 16.3 seconds.
 Elapsed time:       0 days  0 hours 11 minutes 12.9 seconds.
 File lengths (MBytes):  RWF=    974 Int=      0 D2E=      0 Chk=     29 Scr=      1
 Normal termination of Gaussian 16 at Tue Apr  8 20:14:20 2025.
 Initial command:
 /arc/software/Gaussian/g16.c01/l1.exe "/tmp/slurm/4836214/Gau-818704.inp" -scrdir="/tmp/slurm/4836214/"
 Entering Link 1 = /arc/software/Gaussian/g16.c01/l1.exe PID=    819167.
  
 Copyright (c) 1988-2019, Gaussian, Inc.  All Rights Reserved.
  
 This is part of the Gaussian(R) 16 program.  It is based on
 the Gaussian(R) 09 system (copyright 2009, Gaussian, Inc.),
 the Gaussian(R) 03 system (copyright 2003, Gaussian, Inc.),
 the Gaussian(R) 98 system (copyright 1998, Gaussian, Inc.),
 the Gaussian(R) 94 system (copyright 1995, Gaussian, Inc.),
 the Gaussian 92(TM) system (copyright 1992, Gaussian, Inc.),
 the Gaussian 90(TM) system (copyright 1990, Gaussian, Inc.),
 the Gaussian 88(TM) system (copyright 1988, Gaussian, Inc.),
 the Gaussian 86(TM) system (copyright 1986, Carnegie Mellon
 University), and the Gaussian 82(TM) system (copyright 1983,
 Carnegie Mellon University). Gaussian is a federally registered
 trademark of Gaussian, Inc.
  
 This software contains proprietary and confidential information,
 including trade secrets, belonging to Gaussian, Inc.
  
 This software is provided under written license and may be
 used, copied, transmitted, or stored only in accord with that
 written license.
  
 The following legend is applicable only to US Government
 contracts under FAR:
  
                    RESTRICTED RIGHTS LEGEND
  
 Use, reproduction and disclosure by the US Government is
 subject to restrictions as set forth in subparagraphs (a)
 and (c) of the Commercial Computer Software - Restricted
 Rights clause in FAR 52.227-19.
  
 Gaussian, Inc.
 340 Quinnipiac St., Bldg. 40, Wallingford CT 06492
  
  
 ---------------------------------------------------------------
 Warning -- This program may not be used in any manner that
 competes with the business of Gaussian, Inc. or will provide
 assistance to any competitor of Gaussian, Inc.  The licensee
 of this program is prohibited from giving any competitor of
 Gaussian, Inc. access to this program.  By using this program,
 the user acknowledges that Gaussian, Inc. is engaged in the
 business of creating and licensing software in the field of
 computational chemistry and represents and warrants to the
 licensee that it is not a competitor of Gaussian, Inc. and that
 it will not use this program in any manner prohibited above.
 ---------------------------------------------------------------
  

 Cite this work as:
 Gaussian 16, Revision C.01,
 M. J. Frisch, G. W. Trucks, H. B. Schlegel, G. E. Scuseria, 
 M. A. Robb, J. R. Cheeseman, G. Scalmani, V. Barone, 
 G. A. Petersson, H. Nakatsuji, X. Li, M. Caricato, A. V. Marenich, 
 J. Bloino, B. G. Janesko, R. Gomperts, B. Mennucci, H. P. Hratchian, 
 J. V. Ortiz, A. F. Izmaylov, J. L. Sonnenberg, D. Williams-Young, 
 F. Ding, F. Lipparini, F. Egidi, J. Goings, B. Peng, A. Petrone, 
 T. Henderson, D. Ranasinghe, V. G. Zakrzewski, J. Gao, N. Rega, 
 G. Zheng, W. Liang, M. Hada, M. Ehara, K. Toyota, R. Fukuda, 
 J. Hasegawa, M. Ishida, T. Nakajima, Y. Honda, O. Kitao, H. Nakai, 
 T. Vreven, K. Throssell, J. A. Montgomery, Jr., J. E. Peralta, 
 F. Ogliaro, M. J. Bearpark, J. J. Heyd, E. N. Brothers, K. N. Kudin, 
 V. N. Staroverov, T. A. Keith, R. Kobayashi, J. Normand, 
 K. Raghavachari, A. P. Rendell, J. C. Burant, S. S. Iyengar, 
 J. Tomasi, M. Cossi, J. M. Millam, M. Klene, C. Adamo, R. Cammi, 
 J. W. Ochterski, R. L. Martin, K. Morokuma, O. Farkas, 
 J. B. Foresman, and D. J. Fox, Gaussian, Inc., Wallingford CT, 2019.
 
 ******************************************
 Gaussian 16:  ES64L-G16RevC.01  3-Jul-2019
                 8-Apr-2025 
 ******************************************
 %nprocs=16
 Will use up to   16 processors via shared memory.
 %mem=30GB
 %chk=ANI1ccx_1592_conf19_mol1.chk
 ----------------------------------------------------------------------
 #t hf aug-cc-pvdz iop(5/13=1,5/36=2,99/5=2) pseudo=read geom=check gue
 ss=(read,tcheck) scf=(maxcycle=1)
 ----------------------------------------------------------------------
 -----
 title
 -----
 Structure from the checkpoint file:  "ANI1ccx_1592_conf19_mol1.chk"
 Charge =  0 Multiplicity = 1
 Z-Matrix found in chk file.
 C,0,0.533426,1.29938,-0.31647
 C,0,-0.815509,1.87883,-0.0709041
 C,0,1.32571,1.00024,0.847497
 C,0,2.67753,0.335531,0.517445
 C,0,2.46115,-1.04903,0.0202506
 C,0,-1.6494,-0.445719,0.633521
 C,0,-2.02966,-1.34541,-0.616838
 C,0,-2.34835,-0.827938,1.87449
 H,0,-0.247153,-1.80733,-0.654986
 H,0,-3.40905,-0.796059,1.73267
 H,0,-2.09466,-0.123507,2.62213
 H,0,-2.06401,-1.83097,2.13219
 H,0,-0.597809,-0.68919,0.525006
 H,0,-2.7952,1.48566,0.220489
 H,0,3.36822,-2.67704,-0.178975
 H,0,3.21652,0.833038,-0.290795
 H,0,3.32462,0.24716,1.41167
 H,0,1.56164,1.80816,1.53872
 H,0,0.76847,0.274365,1.46037
 H,0,0.357493,0.384335,-0.96263
 H,0,0.860053,2.4466,-1.97722
 H,0,1.29929,3.15129,-0.670454
 N,0,1.41119,2.25756,-1.11199
 N,0,-1.81005,1.01964,0.280408
 O,0,-1.01907,3.13891,-0.133912
 O,0,1.4367,-1.58304,-0.2534
 O,0,3.57045,-1.80533,0.140633
 O,0,-3.10235,-1.36336,-1.09635
 O,0,-1.09645,-2.22747,-0.959609
 Recover connectivity data from disk.
                    Distance matrix (angstroms):
                    1          2          3          4          5
     1  C    0.000000
     2  C    1.488520   0.000000
     3  C    1.439451   2.490020   0.000000
     4  C    2.494314   3.863838   1.542138   0.000000
     5  C    3.056882   4.395130   2.484566   1.486954   0.000000
     6  C    2.951708   2.568096   3.314795   4.398426   4.199608
     7  C    3.695206   3.488256   4.347972   5.125407   4.545448
     8  C    4.198859   3.668890   4.230327   5.334295   5.159300
     9  H    3.221109   3.775176   3.551592   3.810540   2.892381
    10  H    4.912531   4.139368   5.140834   6.309019   6.120100
    11  H    4.191278   3.591380   4.013859   5.235858   5.327455
    12  H    4.747810   4.491658   4.599607   5.457411   5.054581
    13  H    2.437660   2.645228   2.580329   3.431903   3.121136
    14  H    3.376800   2.039282   4.196507   5.600157   5.839004
    15  H    4.885374   6.186374   4.329882   3.168223   1.874269
    16  H    2.723440   4.171246   2.213330   1.091456   2.051710
    17  H    3.447376   4.690527   2.209313   1.107327   2.088477
    18  H    2.181241   2.871711   1.089122   2.111125   3.358333
    19  H    2.064718   2.725454   1.101374   2.130108   2.586597
    20  H    1.133924   2.098720   2.143209   2.752376   2.728729
    21  H    2.044722   2.600752   3.207463   3.739410   4.332762
    22  H    2.035049   2.539880   2.632848   3.352484   4.412446
    23  N    1.523624   2.487063   2.329753   2.820083   3.649373
    24  N    2.434419   1.360419   3.186684   4.545610   4.752918
    25  O    2.414010   1.277971   3.321907   4.684875   5.447434
    26  O    3.021296   4.134041   2.810272   2.411385   1.187244
    27  O    4.367114   5.731877   3.661931   2.350017   1.347972
    28  O    4.573540   4.097924   5.382644   6.236792   5.683145
    29  O    3.938121   4.210751   4.421606   4.795163   3.873676
                    6          7          8          9         10
     6  C    0.000000
     7  C    1.586644   0.000000
     8  C    1.474661   2.564382   0.000000
     9  H    2.341053   1.841781   3.431106   0.000000
    10  H    2.104100   2.779333   1.070614   4.089152   0.000000
    11  H    2.063163   3.462396   1.058087   4.121654   1.723684
    12  H    2.082506   2.791792   1.073933   3.327143   1.743499
    13  H    1.084849   1.945412   2.214667   1.663003   3.061527
    14  H    2.283348   3.049939   2.878911   4.254737   2.805307
    15  H    5.551167   5.576923   6.349415   3.748854   7.288612
    16  H    5.115345   5.689846   6.197990   4.370493   7.116639
    17  H    5.081975   5.943016   5.792463   4.609724   6.821558
    18  H    4.026181   5.242983   4.727555   4.599548   5.614921
    19  H    2.654863   3.842915   3.331836   3.136826   4.321068
    20  H    2.695238   2.968179   4.103711   2.294262   4.779625
    21  H    4.634526   4.957864   5.987664   4.590221   6.519460
    22  H    4.830486   5.595096   5.967937   5.194193   6.597351
    23  N    4.440916   5.006597   5.707320   4.413874   6.375845
    24  N    1.515841   2.539043   2.498882   3.362940   2.821813
    25  O    3.719655   4.622081   4.640749   5.033156   4.967908
    26  O    3.406485   3.493452   4.407346   1.745548   5.295763
    27  O    5.416485   5.669790   6.244497   3.899629   7.229566
    28  O    2.438356   1.175125   3.111444   2.923023   2.901594
    29  O    2.453254   1.329061   3.399715   0.995298   3.826934
                   11         12         13         14         15
    11  H    0.000000
    12  H    1.776629   0.000000
    13  H    2.637895   2.456918   0.000000
    14  H    2.974568   3.897342   3.106643   0.000000
    15  H    6.649043   5.963761   4.491828   7.448180   0.000000
    16  H    6.132597   6.391541   4.187101   6.068616   3.515134
    17  H    5.565178   5.820233   4.128968   6.356492   3.329114
    18  H    4.274768   5.171152   3.453635   4.563310   5.131396
    19  H    3.115365   3.592592   1.915741   3.962863   4.261097
    20  H    4.372809   4.511005   2.068361   3.542903   4.364700
    21  H    6.040679   6.613244   4.268451   4.371980   5.981327
    22  H    5.751895   6.632459   4.447178   4.509207   6.204148
    23  N    5.648373   6.270390   3.924177   4.479402   5.389876
    24  N    2.621345   3.408749   2.109373   1.091460   6.378946
    25  O    4.404092   5.561189   3.907171   2.452238   7.285302
    26  O    4.782197   4.243522   2.354594   5.248854   2.221068
    27  O    6.409355   5.976127   4.332193   7.166484   0.950223
    28  O    4.047193   3.423489   3.058762   3.153620   6.666004
    29  O    4.272229   3.263833   2.195229   4.250378   4.554644
                   16         17         18         19         20
    16  H    0.000000
    17  H    1.803698   0.000000
    18  H    2.652662   2.358169   0.000000
    19  H    3.061314   2.556759   1.728521   0.000000
    20  H    2.970982   3.802625   3.119936   2.460066   0.000000
    21  H    3.316707   4.732463   3.641657   4.067434   2.352636
    22  H    3.032195   4.107453   2.598707   3.619237   2.937412
    23  N    2.441893   3.751237   2.692742   3.311070   2.154427
    24  N    5.062361   5.314256   3.684210   2.931981   2.578177
    25  O    4.825130   5.442305   3.350919   3.733986   3.188947
    26  O    3.001098   3.112287   3.837648   2.614095   2.353351
    27  O    2.696735   2.426661   4.364318   3.730674   4.041648
    28  O    6.738041   7.084482   6.225346   4.919574   3.878509
    29  O    5.330641   5.593980   5.439982   3.948848   2.989228
                   21         22         23         24         25
    21  H    0.000000
    22  H    1.548275   0.000000
    23  N    1.043126   1.003110   0.000000
    24  N    3.776579   3.887938   3.721237   0.000000
    25  O    2.721797   2.379669   2.763979   2.299699   0.000000
    26  O    4.420642   4.754650   3.935484   4.195269   5.323711
    27  O    5.469046   5.512178   4.768495   6.078632   6.751635
    28  O    5.567079   6.319643   5.786480   3.040426   5.053393
    29  O    5.168207   5.895273   5.140717   3.548322   5.430083
                   26         27         28         29
    26  O    0.000000
    27  O    2.181184   0.000000
    28  O    4.621883   6.800862   0.000000
    29  O    2.707558   4.813387   2.188383   0.000000
 Framework group  C1[X(C8H14N2O5)]
 Deg. of freedom    81
                         Standard orientation:                         
 ---------------------------------------------------------------------
 Center     Atomic      Atomic             Coordinates (Angstroms)
 Number     Number       Type             X           Y           Z
 ---------------------------------------------------------------------
      1          6           0        0.533428    1.299380   -0.316470
      2          6           0       -0.815507    1.878832   -0.070904
      3          6           0        1.325711    1.000239    0.847497
      4          6           0        2.677530    0.335528    0.517445
      5          6           0        2.461148   -1.049032    0.020251
      6          6           0       -1.649401   -0.445716    0.633521
      7          6           0       -2.029662   -1.345406   -0.616838
      8          6           0       -2.348351   -0.827934    1.874490
      9          1           0       -0.247156   -1.807329   -0.654986
     10          1           0       -3.409051   -0.796053    1.732670
     11          1           0       -2.094660   -0.123503    2.622130
     12          1           0       -2.064013   -1.830966    2.132190
     13          1           0       -0.597810   -0.689188    0.525006
     14          1           0       -2.795198    1.485665    0.220489
     15          1           0        3.368216   -2.677044   -0.178975
     16          1           0        3.216521    0.833035   -0.290795
     17          1           0        3.324620    0.247156    1.411670
     18          1           0        1.561642    1.808159    1.538720
     19          1           0        0.768470    0.274365    1.460370
     20          1           0        0.357493    0.384335   -0.962630
     21          1           0        0.860056    2.446600   -1.977220
     22          1           0        1.299294    3.151289   -0.670454
     23          7           0        1.411193    2.257559   -1.111990
     24          7           0       -1.810049    1.019643    0.280408
     25          8           0       -1.019066    3.138912   -0.133912
     26          8           0        1.436698   -1.583041   -0.253400
     27          8           0        3.570447   -1.805334    0.140633
     28          8           0       -3.102352   -1.363355   -1.096350
     29          8           0       -1.096453   -2.227468   -0.959609
 ---------------------------------------------------------------------
 Rotational constants (GHZ):           0.6745390           0.4799556           0.3343670
 ======================================================================================================
                                       Pseudopotential Parameters
 ======================================================================================================
  Center     Atomic      Valence      Angular      Power
  Number     Number     Electrons     Momentum     of R      Exponent        Coefficient   SO-Coeffient
 ======================================================================================================
    1          6            6
                                      G and up 
                                                     0        0.0000010       -0.00007288    0.00000000
                                                     2        0.1200000        0.10466671    0.00000000
                                                     2        0.1400000       -0.65716157    0.00000000
                                                     2        0.1600000        1.18890794    0.00000000
                                                     2        0.2000000       -1.25772850    0.00000000
                                                     2        0.2600000        1.01188378    0.00000000
                                                     2        0.4000000       -1.09380874    0.00000000
                                                     2        0.5000000        0.96944888    0.00000000
                                                     2        1.0000000       -0.79256938    0.00000000
                                                     2        3.0000000        1.06443276    0.00000000
                                      S - G
                                                     0        0.0000010       -0.00635295    0.00000000
                                                     2        0.1200000        0.16918955    0.00000000
                                                     2        0.1600000       -0.38862576    0.00000000
                                                     2        0.2800000        0.25638263    0.00000000
                                                     2        0.5000000        0.29628419    0.00000000
                                                     2        0.9000000       -0.28791512    0.00000000
                                      P - G
                                                     0        0.0000010       -0.04756931    0.00000000
                                                     2        0.1200000        0.28430375    0.00000000
                                                     2        0.1600000       -0.69640032    0.00000000
                                                     2        0.2600000        1.13005668    0.00000000
                                                     2        0.4000000       -1.31433324    0.00000000
                                                     2        0.7000000        0.91526469    0.00000000
                                      D - G
                                                     0        0.0000010       -0.11496411    0.00000000
                                                     2        0.1200000        0.16620776    0.00000000
                                                     2        0.1800000       -0.30959819    0.00000000
                                                     2        0.3000000        0.16621458    0.00000000
                                                     2        0.6000000        0.27350556    0.00000000
                                      F - G
                                                     0        0.0000010        0.12037550    0.00000000
                                                     2        0.1200000       -0.48737077    0.00000000
                                                     2        0.1400000        0.58315350    0.00000000
                                                     2        0.3000000        0.00005188    0.00000000
                                                     2        0.5000000       -1.16063549    0.00000000
                                                     2        0.8000000        2.09053308    0.00000000
    2          6            6
                                      G and up 
                                                     0        0.0000010       -0.00007288    0.00000000
                                                     2        0.1200000        0.10466671    0.00000000
                                                     2        0.1400000       -0.65716157    0.00000000
                                                     2        0.1600000        1.18890794    0.00000000
                                                     2        0.2000000       -1.25772850    0.00000000
                                                     2        0.2600000        1.01188378    0.00000000
                                                     2        0.4000000       -1.09380874    0.00000000
                                                     2        0.5000000        0.96944888    0.00000000
                                                     2        1.0000000       -0.79256938    0.00000000
                                                     2        3.0000000        1.06443276    0.00000000
                                      S - G
                                                     0        0.0000010       -0.00635295    0.00000000
                                                     2        0.1200000        0.16918955    0.00000000
                                                     2        0.1600000       -0.38862576    0.00000000
                                                     2        0.2800000        0.25638263    0.00000000
                                                     2        0.5000000        0.29628419    0.00000000
                                                     2        0.9000000       -0.28791512    0.00000000
                                      P - G
                                                     0        0.0000010       -0.04756931    0.00000000
                                                     2        0.1200000        0.28430375    0.00000000
                                                     2        0.1600000       -0.69640032    0.00000000
                                                     2        0.2600000        1.13005668    0.00000000
                                                     2        0.4000000       -1.31433324    0.00000000
                                                     2        0.7000000        0.91526469    0.00000000
                                      D - G
                                                     0        0.0000010       -0.11496411    0.00000000
                                                     2        0.1200000        0.16620776    0.00000000
                                                     2        0.1800000       -0.30959819    0.00000000
                                                     2        0.3000000        0.16621458    0.00000000
                                                     2        0.6000000        0.27350556    0.00000000
                                      F - G
                                                     0        0.0000010        0.12037550    0.00000000
                                                     2        0.1200000       -0.48737077    0.00000000
                                                     2        0.1400000        0.58315350    0.00000000
                                                     2        0.3000000        0.00005188    0.00000000
                                                     2        0.5000000       -1.16063549    0.00000000
                                                     2        0.8000000        2.09053308    0.00000000
    3          6            6
                                      G and up 
                                                     0        0.0000010       -0.00007288    0.00000000
                                                     2        0.1200000        0.10466671    0.00000000
                                                     2        0.1400000       -0.65716157    0.00000000
                                                     2        0.1600000        1.18890794    0.00000000
                                                     2        0.2000000       -1.25772850    0.00000000
                                                     2        0.2600000        1.01188378    0.00000000
                                                     2        0.4000000       -1.09380874    0.00000000
                                                     2        0.5000000        0.96944888    0.00000000
                                                     2        1.0000000       -0.79256938    0.00000000
                                                     2        3.0000000        1.06443276    0.00000000
                                      S - G
                                                     0        0.0000010       -0.00635295    0.00000000
                                                     2        0.1200000        0.16918955    0.00000000
                                                     2        0.1600000       -0.38862576    0.00000000
                                                     2        0.2800000        0.25638263    0.00000000
                                                     2        0.5000000        0.29628419    0.00000000
                                                     2        0.9000000       -0.28791512    0.00000000
                                      P - G
                                                     0        0.0000010       -0.04756931    0.00000000
                                                     2        0.1200000        0.28430375    0.00000000
                                                     2        0.1600000       -0.69640032    0.00000000
                                                     2        0.2600000        1.13005668    0.00000000
                                                     2        0.4000000       -1.31433324    0.00000000
                                                     2        0.7000000        0.91526469    0.00000000
                                      D - G
                                                     0        0.0000010       -0.11496411    0.00000000
                                                     2        0.1200000        0.16620776    0.00000000
                                                     2        0.1800000       -0.30959819    0.00000000
                                                     2        0.3000000        0.16621458    0.00000000
                                                     2        0.6000000        0.27350556    0.00000000
                                      F - G
                                                     0        0.0000010        0.12037550    0.00000000
                                                     2        0.1200000       -0.48737077    0.00000000
                                                     2        0.1400000        0.58315350    0.00000000
                                                     2        0.3000000        0.00005188    0.00000000
                                                     2        0.5000000       -1.16063549    0.00000000
                                                     2        0.8000000        2.09053308    0.00000000
    4          6            6
                                      G and up 
                                                     0        0.0000010       -0.00007288    0.00000000
                                                     2        0.1200000        0.10466671    0.00000000
                                                     2        0.1400000       -0.65716157    0.00000000
                                                     2        0.1600000        1.18890794    0.00000000
                                                     2        0.2000000       -1.25772850    0.00000000
                                                     2        0.2600000        1.01188378    0.00000000
                                                     2        0.4000000       -1.09380874    0.00000000
                                                     2        0.5000000        0.96944888    0.00000000
                                                     2        1.0000000       -0.79256938    0.00000000
                                                     2        3.0000000        1.06443276    0.00000000
                                      S - G
                                                     0        0.0000010       -0.00635295    0.00000000
                                                     2        0.1200000        0.16918955    0.00000000
                                                     2        0.1600000       -0.38862576    0.00000000
                                                     2        0.2800000        0.25638263    0.00000000
                                                     2        0.5000000        0.29628419    0.00000000
                                                     2        0.9000000       -0.28791512    0.00000000
                                      P - G
                                                     0        0.0000010       -0.04756931    0.00000000
                                                     2        0.1200000        0.28430375    0.00000000
                                                     2        0.1600000       -0.69640032    0.00000000
                                                     2        0.2600000        1.13005668    0.00000000
                                                     2        0.4000000       -1.31433324    0.00000000
                                                     2        0.7000000        0.91526469    0.00000000
                                      D - G
                                                     0        0.0000010       -0.11496411    0.00000000
                                                     2        0.1200000        0.16620776    0.00000000
                                                     2        0.1800000       -0.30959819    0.00000000
                                                     2        0.3000000        0.16621458    0.00000000
                                                     2        0.6000000        0.27350556    0.00000000
                                      F - G
                                                     0        0.0000010        0.12037550    0.00000000
                                                     2        0.1200000       -0.48737077    0.00000000
                                                     2        0.1400000        0.58315350    0.00000000
                                                     2        0.3000000        0.00005188    0.00000000
                                                     2        0.5000000       -1.16063549    0.00000000
                                                     2        0.8000000        2.09053308    0.00000000
    5          6            6
                                      G and up 
                                                     0        0.0000010       -0.00007288    0.00000000
                                                     2        0.1200000        0.10466671    0.00000000
                                                     2        0.1400000       -0.65716157    0.00000000
                                                     2        0.1600000        1.18890794    0.00000000
                                                     2        0.2000000       -1.25772850    0.00000000
                                                     2        0.2600000        1.01188378    0.00000000
                                                     2        0.4000000       -1.09380874    0.00000000
                                                     2        0.5000000        0.96944888    0.00000000
                                                     2        1.0000000       -0.79256938    0.00000000
                                                     2        3.0000000        1.06443276    0.00000000
                                      S - G
                                                     0        0.0000010       -0.00635295    0.00000000
                                                     2        0.1200000        0.16918955    0.00000000
                                                     2        0.1600000       -0.38862576    0.00000000
                                                     2        0.2800000        0.25638263    0.00000000
                                                     2        0.5000000        0.29628419    0.00000000
                                                     2        0.9000000       -0.28791512    0.00000000
                                      P - G
                                                     0        0.0000010       -0.04756931    0.00000000
                                                     2        0.1200000        0.28430375    0.00000000
                                                     2        0.1600000       -0.69640032    0.00000000
                                                     2        0.2600000        1.13005668    0.00000000
                                                     2        0.4000000       -1.31433324    0.00000000
                                                     2        0.7000000        0.91526469    0.00000000
                                      D - G
                                                     0        0.0000010       -0.11496411    0.00000000
                                                     2        0.1200000        0.16620776    0.00000000
                                                     2        0.1800000       -0.30959819    0.00000000
                                                     2        0.3000000        0.16621458    0.00000000
                                                     2        0.6000000        0.27350556    0.00000000
                                      F - G
                                                     0        0.0000010        0.12037550    0.00000000
                                                     2        0.1200000       -0.48737077    0.00000000
                                                     2        0.1400000        0.58315350    0.00000000
                                                     2        0.3000000        0.00005188    0.00000000
                                                     2        0.5000000       -1.16063549    0.00000000
                                                     2        0.8000000        2.09053308    0.00000000
    6          6            6
                                      G and up 
                                                     0        0.0000010       -0.00007288    0.00000000
                                                     2        0.1200000        0.10466671    0.00000000
                                                     2        0.1400000       -0.65716157    0.00000000
                                                     2        0.1600000        1.18890794    0.00000000
                                                     2        0.2000000       -1.25772850    0.00000000
                                                     2        0.2600000        1.01188378    0.00000000
                                                     2        0.4000000       -1.09380874    0.00000000
                                                     2        0.5000000        0.96944888    0.00000000
                                                     2        1.0000000       -0.79256938    0.00000000
                                                     2        3.0000000        1.06443276    0.00000000
                                      S - G
                                                     0        0.0000010       -0.00635295    0.00000000
                                                     2        0.1200000        0.16918955    0.00000000
                                                     2        0.1600000       -0.38862576    0.00000000
                                                     2        0.2800000        0.25638263    0.00000000
                                                     2        0.5000000        0.29628419    0.00000000
                                                     2        0.9000000       -0.28791512    0.00000000
                                      P - G
                                                     0        0.0000010       -0.04756931    0.00000000
                                                     2        0.1200000        0.28430375    0.00000000
                                                     2        0.1600000       -0.69640032    0.00000000
                                                     2        0.2600000        1.13005668    0.00000000
                                                     2        0.4000000       -1.31433324    0.00000000
                                                     2        0.7000000        0.91526469    0.00000000
                                      D - G
                                                     0        0.0000010       -0.11496411    0.00000000
                                                     2        0.1200000        0.16620776    0.00000000
                                                     2        0.1800000       -0.30959819    0.00000000
                                                     2        0.3000000        0.16621458    0.00000000
                                                     2        0.6000000        0.27350556    0.00000000
                                      F - G
                                                     0        0.0000010        0.12037550    0.00000000
                                                     2        0.1200000       -0.48737077    0.00000000
                                                     2        0.1400000        0.58315350    0.00000000
                                                     2        0.3000000        0.00005188    0.00000000
                                                     2        0.5000000       -1.16063549    0.00000000
                                                     2        0.8000000        2.09053308    0.00000000
    7          6            6
                                      G and up 
                                                     0        0.0000010       -0.00007288    0.00000000
                                                     2        0.1200000        0.10466671    0.00000000
                                                     2        0.1400000       -0.65716157    0.00000000
                                                     2        0.1600000        1.18890794    0.00000000
                                                     2        0.2000000       -1.25772850    0.00000000
                                                     2        0.2600000        1.01188378    0.00000000
                                                     2        0.4000000       -1.09380874    0.00000000
                                                     2        0.5000000        0.96944888    0.00000000
                                                     2        1.0000000       -0.79256938    0.00000000
                                                     2        3.0000000        1.06443276    0.00000000
                                      S - G
                                                     0        0.0000010       -0.00635295    0.00000000
                                                     2        0.1200000        0.16918955    0.00000000
                                                     2        0.1600000       -0.38862576    0.00000000
                                                     2        0.2800000        0.25638263    0.00000000
                                                     2        0.5000000        0.29628419    0.00000000
                                                     2        0.9000000       -0.28791512    0.00000000
                                      P - G
                                                     0        0.0000010       -0.04756931    0.00000000
                                                     2        0.1200000        0.28430375    0.00000000
                                                     2        0.1600000       -0.69640032    0.00000000
                                                     2        0.2600000        1.13005668    0.00000000
                                                     2        0.4000000       -1.31433324    0.00000000
                                                     2        0.7000000        0.91526469    0.00000000
                                      D - G
                                                     0        0.0000010       -0.11496411    0.00000000
                                                     2        0.1200000        0.16620776    0.00000000
                                                     2        0.1800000       -0.30959819    0.00000000
                                                     2        0.3000000        0.16621458    0.00000000
                                                     2        0.6000000        0.27350556    0.00000000
                                      F - G
                                                     0        0.0000010        0.12037550    0.00000000
                                                     2        0.1200000       -0.48737077    0.00000000
                                                     2        0.1400000        0.58315350    0.00000000
                                                     2        0.3000000        0.00005188    0.00000000
                                                     2        0.5000000       -1.16063549    0.00000000
                                                     2        0.8000000        2.09053308    0.00000000
    8          6            6
                                      G and up 
                                                     0        0.0000010       -0.00007288    0.00000000
                                                     2        0.1200000        0.10466671    0.00000000
                                                     2        0.1400000       -0.65716157    0.00000000
                                                     2        0.1600000        1.18890794    0.00000000
                                                     2        0.2000000       -1.25772850    0.00000000
                                                     2        0.2600000        1.01188378    0.00000000
                                                     2        0.4000000       -1.09380874    0.00000000
                                                     2        0.5000000        0.96944888    0.00000000
                                                     2        1.0000000       -0.79256938    0.00000000
                                                     2        3.0000000        1.06443276    0.00000000
                                      S - G
                                                     0        0.0000010       -0.00635295    0.00000000
                                                     2        0.1200000        0.16918955    0.00000000
                                                     2        0.1600000       -0.38862576    0.00000000
                                                     2        0.2800000        0.25638263    0.00000000
                                                     2        0.5000000        0.29628419    0.00000000
                                                     2        0.9000000       -0.28791512    0.00000000
                                      P - G
                                                     0        0.0000010       -0.04756931    0.00000000
                                                     2        0.1200000        0.28430375    0.00000000
                                                     2        0.1600000       -0.69640032    0.00000000
                                                     2        0.2600000        1.13005668    0.00000000
                                                     2        0.4000000       -1.31433324    0.00000000
                                                     2        0.7000000        0.91526469    0.00000000
                                      D - G
                                                     0        0.0000010       -0.11496411    0.00000000
                                                     2        0.1200000        0.16620776    0.00000000
                                                     2        0.1800000       -0.30959819    0.00000000
                                                     2        0.3000000        0.16621458    0.00000000
                                                     2        0.6000000        0.27350556    0.00000000
                                      F - G
                                                     0        0.0000010        0.12037550    0.00000000
                                                     2        0.1200000       -0.48737077    0.00000000
                                                     2        0.1400000        0.58315350    0.00000000
                                                     2        0.3000000        0.00005188    0.00000000
                                                     2        0.5000000       -1.16063549    0.00000000
                                                     2        0.8000000        2.09053308    0.00000000
    9          1            1
                                      F and up 
                                                     0        0.0000010       -0.00007675    0.00000000
                                                     2        0.1200000        0.05352699    0.00000000
                                                     2        0.1400000       -0.25123645    0.00000000
                                                     2        0.1600000        0.32188106    0.00000000
                                                     2        0.2200000       -0.25206857    0.00000000
                                                     2        0.3000000        0.19290477    0.00000000
                                                     2        0.5000000       -0.10129770    0.00000000
                                                     2        0.9000000        0.00314995    0.00000000
                                                     2        1.5000000        0.18401192    0.00000000
                                      S - F
[...]
                                                     2        1.1000000        1.75666647    0.00000000
                                      S - G
                                                     0        0.0000010       -0.01088195    0.00000000
                                                     2        0.1200000        0.09867335    0.00000000
                                                     2        0.2400000       -0.08484177    0.00000000
                                                     2        0.6000000       -1.39011554    0.00000000
                                                     2        2.5000000        1.36225910    0.00000000
                                      P - G
                                                     0        0.0000010        0.05874028    0.00000000
                                                     2        0.1200000       -0.11700340    0.00000000
                                                     2        0.1600000        0.08847775    0.00000000
                                                     2        0.3000000        0.04709907    0.00000000
                                                     2        1.2000000       -1.80388338    0.00000000
                                      D - G
                                                     0        0.0000010       -0.00541262    0.00000000
                                                     2        0.1200000       -0.26547906    0.00000000
                                                     2        0.1600000        1.04289661    0.00000000
                                                     2        0.2400000       -1.92800913    0.00000000
                                                     2        0.4000000        2.26691633    0.00000000
                                                     2        0.7000000       -1.97391482    0.00000000
                                      F - G
                                                     0        0.0000010       -0.02604870    0.00000000
                                                     2        0.1200000        0.37362552    0.00000000
                                                     2        0.1600000       -1.43526367    0.00000000
                                                     2        0.2200000        1.76778079    0.00000000
                                                     2        0.5000000       -1.90846303    0.00000000
   29          8            8
                                      G and up 
                                                     0        0.0000010        0.00049668    0.00000000
                                                     2        0.1200000       -0.01803391    0.00000000
                                                     2        0.1400000        0.04014195    0.00000000
                                                     2        0.2000000       -0.02692147    0.00000000
                                                     2        0.2800000       -0.04241843    0.00000000
                                                     2        0.4000000        0.15412145    0.00000000
                                                     2        0.7000000       -0.40587006    0.00000000
                                                     2        1.1000000        1.75666647    0.00000000
                                      S - G
                                                     0        0.0000010       -0.01088195    0.00000000
                                                     2        0.1200000        0.09867335    0.00000000
                                                     2        0.2400000       -0.08484177    0.00000000
                                                     2        0.6000000       -1.39011554    0.00000000
                                                     2        2.5000000        1.36225910    0.00000000
                                      P - G
                                                     0        0.0000010        0.05874028    0.00000000
                                                     2        0.1200000       -0.11700340    0.00000000
                                                     2        0.1600000        0.08847775    0.00000000
                                                     2        0.3000000        0.04709907    0.00000000
                                                     2        1.2000000       -1.80388338    0.00000000
                                      D - G
                                                     0        0.0000010       -0.00541262    0.00000000
                                                     2        0.1200000       -0.26547906    0.00000000
                                                     2        0.1600000        1.04289661    0.00000000
                                                     2        0.2400000       -1.92800913    0.00000000
                                                     2        0.4000000        2.26691633    0.00000000
                                                     2        0.7000000       -1.97391482    0.00000000
                                      F - G
                                                     0        0.0000010       -0.02604870    0.00000000
                                                     2        0.1200000        0.37362552    0.00000000
                                                     2        0.1600000       -1.43526367    0.00000000
                                                     2        0.2200000        1.76778079    0.00000000
                                                     2        0.5000000       -1.90846303    0.00000000
 ======================================================================================================
   471 basis functions,   799 primitive gaussians,   501 cartesian basis functions
    58 alpha electrons       58 beta electrons
       nuclear repulsion energy      1096.4355023431 Hartrees.
 NAtoms=   29 NActive=   29 NUniq=   29 SFac= 1.00D+00 NAtFMM=   60 NAOKFM=F Big=F
   1 Symmetry operations used in ECPInt.
 ECPInt:  NShTT=   21115 NPrTT=   99063 LenC2=   20800 LenP2D=   67974.
 LDataN:  DoStor=T MaxTD1= 6 Len=  172
 Initial guess from the checkpoint file:  "ANI1ccx_1592_conf19_mol1.chk"
 B after Tr=    -0.000000    0.000002    0.000001
         Rot=    1.000000   -0.000000   -0.000000    0.000001 Ang=   0.00 deg.
 >>>>>>>>>> Convergence criterion not met.
 SCF Done:  E(RHF) =  -795.213106462     A.U. after    2 cycles
            NFock=  1  Conv=0.22D-01     -V/T= 2.0034

 **********************************************************************

            Population analysis using the SCF Density.

 **********************************************************************

 Orbital symmetries:
       Occupied  (A) (A) (A) (A) (A) (A) (A) (A) (A) (A) (A) (A)
                 (A) (A) (A) (A) (A) (A) (A) (A) (A) (A) (A) (A)
                 (A) (A) (A) (A) (A) (A) (A) (A) (A) (A) (A) (A)
                 (A) (A) (A) (A) (A) (A) (A) (A) (A) (A) (A) (A)
                 (A) (A) (A) (A) (A) (A) (A) (A) (A) (A)
       Virtual   (A) (A) (A) (A) (A) (A) (A) (A) (A) (A) (A) (A)
                 (A) (A) (A) (A) (A) (A) (A) (A) (A) (A) (A) (A)
                 (A) (A) (A) (A) (A) (A) (A) (A) (A) (A) (A) (A)
                 (A) (A) (A) (A) (A) (A) (A) (A) (A) (A) (A) (A)
                 (A) (A) (A) (A) (A) (A) (A) (A) (A) (A) (A) (A)
                 (A) (A) (A) (A) (A) (A) (A) (A) (A) (A) (A) (A)
                 (A) (A) (A) (A) (A) (A) (A) (A) (A) (A) (A) (A)
                 (A) (A) (A) (A) (A) (A) (A) (A) (A) (A) (A) (A)
                 (A) (A) (A) (A) (A) (A) (A) (A) (A) (A) (A) (A)
                 (A) (A) (A) (A) (A) (A) (A) (A) (A) (A) (A) (A)
                 (A) (A) (A) (A) (A) (A) (A) (A) (A) (A) (A) (A)
                 (A) (A) (A) (A) (A) (A) (A) (A) (A) (A) (A) (A)
                 (A) (A) (A) (A) (A) (A) (A) (A) (A) (A) (A) (A)
                 (A) (A) (A) (A) (A) (A) (A) (A) (A) (A) (A) (A)
                 (A) (A) (A) (A) (A) (A) (A) (A) (A) (A) (A) (A)
                 (A) (A) (A) (A) (A) (A) (A) (A) (A) (A) (A) (A)
                 (A) (A) (A) (A) (A) (A) (A) (A) (A) (A) (A) (A)
                 (A) (A) (A) (A) (A) (A) (A) (A) (A) (A) (A) (A)
                 (A) (A) (A) (A) (A) (A) (A) (A) (A) (A) (A) (A)
                 (A) (A) (A) (A) (A) (A) (A) (A) (A) (A) (A) (A)
                 (A) (A) (A) (A) (A) (A) (A) (A) (A) (A) (A) (A)
                 (A) (A) (A) (A) (A) (A) (A) (A) (A) (A) (A) (A)
                 (A) (A) (A) (A) (A) (A) (A) (A) (A) (A) (A) (A)
                 (A) (A) (A) (A) (A) (A) (A) (A) (A) (A) (A) (A)
                 (A) (A) (A) (A) (A) (A) (A) (A) (A) (A) (A) (A)
                 (A) (A) (A) (A) (A) (A) (A) (A) (A) (A) (A) (A)
                 (A) (A) (A) (A) (A) (A) (A) (A) (A) (A) (A) (A)
                 (A) (A) (A) (A) (A) (A) (A) (A) (A) (A) (A) (A)
                 (A) (A) (A) (A) (A) (A) (A) (A) (A) (A) (A) (A)
                 (A) (A) (A) (A) (A) (A) (A) (A) (A) (A) (A) (A)
                 (A) (A) (A) (A) (A) (A) (A) (A) (A) (A) (A) (A)
                 (A) (A) (A) (A) (A) (A) (A) (A) (A) (A) (A) (A)
                 (A) (A) (A) (A) (A) (A) (A) (A) (A) (A) (A) (A)
                 (A) (A) (A) (A) (A) (A) (A) (A) (A) (A) (A) (A)
                 (A) (A) (A) (A) (A)
 The electronic state is 1-A.
 Alpha  occ. eigenvalues --  -20.62283 -20.59210 -20.57968 -20.52957 -20.51764
 Alpha  occ. eigenvalues --  -15.55398 -15.50395 -11.42925 -11.38262 -11.37375
 Alpha  occ. eigenvalues --  -11.32072 -11.29631 -11.27899 -11.26707 -11.25178
 Alpha  occ. eigenvalues --   -1.59773  -1.55172  -1.49906  -1.46161  -1.43192
 Alpha  occ. eigenvalues --   -1.24885  -1.20718  -1.10822  -1.08509  -1.02008
 Alpha  occ. eigenvalues --   -0.93381  -0.91916  -0.84376  -0.82827  -0.80558
 Alpha  occ. eigenvalues --   -0.76870  -0.75050  -0.74143  -0.72275  -0.70870
 Alpha  occ. eigenvalues --   -0.68713  -0.67334  -0.66796  -0.64912  -0.64609
 Alpha  occ. eigenvalues --   -0.62911  -0.61050  -0.60166  -0.60007  -0.59420
 Alpha  occ. eigenvalues --   -0.58084  -0.56708  -0.55908  -0.53886  -0.53313
 Alpha  occ. eigenvalues --   -0.52633  -0.51733  -0.48419  -0.47868  -0.47147
 Alpha  occ. eigenvalues --   -0.44351  -0.42999  -0.40601
 Alpha virt. eigenvalues --    0.02318   0.02748   0.03345   0.03876   0.04989
 Alpha virt. eigenvalues --    0.05151   0.05843   0.06102   0.06663   0.07293
 Alpha virt. eigenvalues --    0.08287   0.08930   0.09561   0.10285   0.10550
 Alpha virt. eigenvalues --    0.10761   0.11945   0.12198   0.12841   0.13086
 Alpha virt. eigenvalues --    0.13525   0.14022   0.14310   0.14482   0.14689
 Alpha virt. eigenvalues --    0.15150   0.15358   0.15893   0.16238   0.16667
 Alpha virt. eigenvalues --    0.16908   0.17390   0.17984   0.18293   0.18619
 Alpha virt. eigenvalues --    0.19085   0.19365   0.19903   0.20169   0.21152
 Alpha virt. eigenvalues --    0.21233   0.21602   0.22473   0.23118   0.23417
 Alpha virt. eigenvalues --    0.24083   0.24701   0.25630   0.25854   0.26320
 Alpha virt. eigenvalues --    0.26405   0.26936   0.27242   0.27722   0.28641
 Alpha virt. eigenvalues --    0.29129   0.29855   0.30353   0.30496   0.30900
 Alpha virt. eigenvalues --    0.31244   0.31470   0.31979   0.32511   0.33013
 Alpha virt. eigenvalues --    0.33996   0.34228   0.35029   0.35096   0.35572
 Alpha virt. eigenvalues --    0.35798   0.36002   0.36576   0.36836   0.37250
 Alpha virt. eigenvalues --    0.37836   0.38491   0.39089   0.39723   0.40094
 Alpha virt. eigenvalues --    0.40567   0.41073   0.41405   0.41734   0.42205
 Alpha virt. eigenvalues --    0.42740   0.43523   0.43710   0.44555   0.44956
 Alpha virt. eigenvalues --    0.45828   0.45934   0.46686   0.46912   0.47376
 Alpha virt. eigenvalues --    0.47711   0.48250   0.48752   0.49495   0.49738
 Alpha virt. eigenvalues --    0.50666   0.51190   0.51385   0.52130   0.52677
 Alpha virt. eigenvalues --    0.54017   0.54170   0.54213   0.54768   0.55260
 Alpha virt. eigenvalues --    0.55958   0.56610   0.57172   0.57909   0.58159
 Alpha virt. eigenvalues --    0.58777   0.59128   0.59712   0.60387   0.60928
 Alpha virt. eigenvalues --    0.61537   0.61782   0.62946   0.63899   0.64234
 Alpha virt. eigenvalues --    0.64650   0.65223   0.65667   0.66451   0.67160
 Alpha virt. eigenvalues --    0.67861   0.68298   0.68736   0.69100   0.69307
 Alpha virt. eigenvalues --    0.70543   0.71115   0.71519   0.71902   0.72306
 Alpha virt. eigenvalues --    0.72932   0.73925   0.74679   0.75402   0.75912
 Alpha virt. eigenvalues --    0.76277   0.77375   0.77519   0.78374   0.78858
 Alpha virt. eigenvalues --    0.79327   0.79723   0.80540   0.80874   0.82082
 Alpha virt. eigenvalues --    0.83177   0.83406   0.83723   0.84285   0.85260
 Alpha virt. eigenvalues --    0.85640   0.85839   0.87009   0.87522   0.88479
 Alpha virt. eigenvalues --    0.89036   0.89355   0.89999   0.90574   0.91847
 Alpha virt. eigenvalues --    0.92829   0.93629   0.94282   0.94828   0.95116
 Alpha virt. eigenvalues --    0.96149   0.97547   0.98035   0.98856   0.99555
 Alpha virt. eigenvalues --    1.00142   1.01008   1.01387   1.02987   1.04073
 Alpha virt. eigenvalues --    1.04232   1.05056   1.05616   1.05887   1.07247
 Alpha virt. eigenvalues --    1.08050   1.08369   1.09320   1.09557   1.11661
 Alpha virt. eigenvalues --    1.11993   1.13935   1.14450   1.15316   1.15885
 Alpha virt. eigenvalues --    1.17007   1.17220   1.17958   1.18658   1.20596
 Alpha virt. eigenvalues --    1.20896   1.21955   1.22866   1.23002   1.24536
 Alpha virt. eigenvalues --    1.24944   1.26924   1.27373   1.28598   1.29863
 Alpha virt. eigenvalues --    1.31528   1.31685   1.32977   1.33377   1.33967
 Alpha virt. eigenvalues --    1.35153   1.35786   1.36378   1.36970   1.38900
 Alpha virt. eigenvalues --    1.39275   1.42132   1.42986   1.43125   1.44223
 Alpha virt. eigenvalues --    1.44879   1.46509   1.47135   1.48153   1.49736
 Alpha virt. eigenvalues --    1.50316   1.52017   1.53201   1.55222   1.56255
 Alpha virt. eigenvalues --    1.56557   1.58963   1.60276   1.60790   1.62068
 Alpha virt. eigenvalues --    1.63375   1.64806   1.66898   1.67955   1.68647
 Alpha virt. eigenvalues --    1.70410   1.71786   1.72647   1.73824   1.74996
 Alpha virt. eigenvalues --    1.76634   1.77172   1.79520   1.80156   1.80935
 Alpha virt. eigenvalues --    1.82149   1.82484   1.83748   1.84566   1.86402
 Alpha virt. eigenvalues --    1.87257   1.88695   1.90246   1.90443   1.92086
 Alpha virt. eigenvalues --    1.92886   1.93718   1.94398   1.95080   1.96171
 Alpha virt. eigenvalues --    1.97487   1.98087   2.00113   2.01769   2.02629
 Alpha virt. eigenvalues --    2.03455   2.03998   2.04703   2.06080   2.07212
 Alpha virt. eigenvalues --    2.07398   2.09876   2.09991   2.10809   2.11164
 Alpha virt. eigenvalues --    2.12783   2.14222   2.15120   2.16095   2.17306
 Alpha virt. eigenvalues --    2.18620   2.20187   2.20634   2.20995   2.22838
 Alpha virt. eigenvalues --    2.23474   2.23804   2.24848   2.25573   2.27316
 Alpha virt. eigenvalues --    2.27508   2.29029   2.30113   2.31050   2.31865
 Alpha virt. eigenvalues --    2.32247   2.33453   2.34324   2.35071   2.38574
 Alpha virt. eigenvalues --    2.39652   2.40221   2.40659   2.42159   2.42773
 Alpha virt. eigenvalues --    2.44794   2.46171   2.47082   2.47524   2.49381
 Alpha virt. eigenvalues --    2.50907   2.51703   2.53341   2.54328   2.55467
 Alpha virt. eigenvalues --    2.56436   2.57107   2.58190   2.59168   2.59397
 Alpha virt. eigenvalues --    2.60576   2.62086   2.62934   2.66149   2.69454
 Alpha virt. eigenvalues --    2.69797   2.71796   2.73466   2.73871   2.77168
 Alpha virt. eigenvalues --    2.77928   2.78841   2.80206   2.80793   2.82961
 Alpha virt. eigenvalues --    2.84391   2.84965   2.86795   2.88194   2.89864
 Alpha virt. eigenvalues --    2.92326   2.92880   2.96604   3.00066   3.00908
 Alpha virt. eigenvalues --    3.03008   3.05463   3.07402   3.08217   3.10085
 Alpha virt. eigenvalues --    3.11370   3.15849   3.17325   3.18371   3.20251
 Alpha virt. eigenvalues --    3.23519   3.25017   3.25716   3.27945   3.31427
 Alpha virt. eigenvalues --    3.35317   3.37551   3.41572   3.46169   3.48928
 Alpha virt. eigenvalues --    3.55117   3.60420   3.62701   3.67951   3.79873
 Alpha virt. eigenvalues --    3.81082   3.83636   3.86509   3.88767   3.89510
 Alpha virt. eigenvalues --    3.90870   3.92888   3.93863   3.94325   3.95265
 Alpha virt. eigenvalues --    3.96412   3.97834   3.98622   4.01820   4.02942
 Alpha virt. eigenvalues --    4.06340   4.09266   4.10796   4.14300   4.17800
 Alpha virt. eigenvalues --    4.22271   4.25708   4.28341   4.36935   4.43517
 Alpha virt. eigenvalues --    4.48455   4.60824   4.68586
          Condensed to atoms (all electrons):
 Mulliken charges:
               1
     1  C   -2.244450
     2  C    0.688584
     3  C    0.261188
     4  C   -0.545299
     5  C    2.243614
     6  C   -1.107949
     7  C    2.330999
     8  C   -0.112274
     9  H    0.872219
    10  H    0.202058
    11  H    0.143455
    12  H    0.259730
    13  H    0.319658
    14  H    0.238802
    15  H    0.360382
    16  H    0.322259
    17  H    0.209436
    18  H    0.030286
    19  H    0.221224
    20  H    0.409768
    21  H    0.231324
    22  H    0.340775
    23  N    0.604912
    24  N    0.765248
    25  O   -1.502821
    26  O   -1.371587
    27  O   -1.431471
    28  O   -1.363684
    29  O   -1.376385
 Sum of Mulliken charges =  -0.00000
 Mulliken charges with hydrogens summed into heavy atoms:
               1
     1  C   -1.834682
     2  C    0.688584
     3  C    0.512698
     4  C   -0.013604
     5  C    2.243614
     6  C   -0.788291
     7  C    2.330999
     8  C    0.492969
    23  N    1.177012
    24  N    1.004049
    25  O   -1.502821
    26  O   -1.371587
    27  O   -1.071089
    28  O   -1.363684
    29  O   -0.504166
 Electronic spatial extent (au):  <R**2>=           3402.3964
 Charge=             -0.0000 electrons
 Dipole moment (field-independent basis, Debye):
    X=              4.1915    Y=             -1.5051    Z=              3.6209  Tot=              5.7397

 Test job not archived.
 1\1\GINC-SE058\SP\RHF\Aug-CC-pVDZ\C8H14N2O5\OHZDE\08-Apr-2025\0\\#t hf
  aug-cc-pvdz iop(5/13=1,5/36=2,99/5=2) pseudo=read geom=check guess=(r
 ead,tcheck) scf=(maxcycle=1)\\title\\0,1\C,0,0.533426,1.29938,-0.31647
 \C,0,-0.815509,1.87883,-0.0709041\C,0,1.32571,1.00024,0.847497\C,0,2.6
 7753,0.335531,0.517445\C,0,2.46115,-1.04903,0.0202506\C,0,-1.6494,-0.4
 45719,0.633521\C,0,-2.02966,-1.34541,-0.616838\C,0,-2.34835,-0.827938,
 1.87449\H,0,-0.247153,-1.80733,-0.654986\H,0,-3.40905,-0.796059,1.7326
 7\H,0,-2.09466,-0.123507,2.62213\H,0,-2.06401,-1.83097,2.13219\H,0,-0.
 597809,-0.68919,0.525006\H,0,-2.7952,1.48566,0.220489\H,0,3.36822,-2.6
 7704,-0.178975\H,0,3.21652,0.833038,-0.290795\H,0,3.32462,0.24716,1.41
 167\H,0,1.56164,1.80816,1.53872\H,0,0.76847,0.274365,1.46037\H,0,0.357
 493,0.384335,-0.96263\H,0,0.860053,2.4466,-1.97722\H,0,1.29929,3.15129
 ,-0.670454\N,0,1.41119,2.25756,-1.11199\N,0,-1.81005,1.01964,0.280408\
 O,0,-1.01907,3.13891,-0.133912\O,0,1.4367,-1.58304,-0.2534\O,0,3.57045
 ,-1.80533,0.140633\O,0,-3.10235,-1.36336,-1.09635\O,0,-1.09645,-2.2274
 7,-0.959609\\Version=ES64L-G16RevC.01\State=1-A\HF=-795.2131065\RMSD=2
 .235e-02\Dipole=1.6490537,-0.5921552,1.4245583\Quadrupole=0.5028464,-5
 .549302,5.0464556,-4.5802461,-5.4842438,-3.2067416\PG=C01 [X(C8H14N2O5
 )]\\@


 MYSTERY IS THE WISDOM OF BLOCKHEADS... HORACE WALPOLE 
 Job cpu time:       0 days  0 hours  8 minutes 47.0 seconds.
 Elapsed time:       0 days  0 hours  0 minutes 36.3 seconds.
 File lengths (MBytes):  RWF=     32 Int=      0 D2E=      0 Chk=     29 Scr=      1
 Normal termination of Gaussian 16 at Tue Apr  8 20:14:57 2025.
