 Entering Gaussian System, Link 0=g16
 Input=ANI1ccx_1786_conf16_mol2.gjf
 Output=ANI1ccx_1786_conf16_mol2.log
 Initial command:
 /arc/software/Gaussian/g16.c01/l1.exe "/tmp/slurm/4836730/Gau-2506310.inp" -scrdir="/tmp/slurm/4836730/"
 Entering Link 1 = /arc/software/Gaussian/g16.c01/l1.exe PID=   2506311.
  
 Copyright (c) 1988-2019, Gaussian, Inc.  All Rights Reserved.
  
 This is part of the Gaussian(R) 16 program.  It is based on
 the Gaussian(R) 09 system (copyright 2009, Gaussian, Inc.),
 the Gaussian(R) 03 system (copyright 2003, Gaussian, Inc.),
 the Gaussian(R) 98 system (copyright 1998, Gaussian, Inc.),
 the Gaussian(R) 94 system (copyright 1995, Gaussian, Inc.),
 the Gaussian 92(TM) system (copyright 1992, Gaussian, Inc.),
 the Gaussian 90(TM) system (copyright 1990, Gaussian, Inc.),
 the Gaussian 88(TM) system (copyright 1988, Gaussian, Inc.),
 the Gaussian 86(TM) system (copyright 1986, Carnegie Mellon
 University), and the Gaussian 82(TM) system (copyright 1983,
 Carnegie Mellon University). Gaussian is a federally registered
 trademark of Gaussian, Inc.
  
 This software contains proprietary and confidential information,
 including trade secrets, belonging to Gaussian, Inc.
  
 This software is provided under written license and may be
 used, copied, transmitted, or stored only in accord with that
 written license.
  
 The following legend is applicable only to US Government
 contracts under FAR:
  
                    RESTRICTED RIGHTS LEGEND
  
 Use, reproduction and disclosure by the US Government is
 subject to restrictions as set forth in subparagraphs (a)
 and (c) of the Commercial Computer Software - Restricted
 Rights clause in FAR 52.227-19.
  
 Gaussian, Inc.
 340 Quinnipiac St., Bldg. 40, Wallingford CT 06492
  
  
 ---------------------------------------------------------------
 Warning -- This program may not be used in any manner that
 competes with the business of Gaussian, Inc. or will provide
 assistance to any competitor of Gaussian, Inc.  The licensee
 of this program is prohibited from giving any competitor of
 Gaussian, Inc. access to this program.  By using this program,
 the user acknowledges that Gaussian, Inc. is engaged in the
 business of creating and licensing software in the field of
 computational chemistry and represents and warrants to the
 licensee that it is not a competitor of Gaussian, Inc. and that
 it will not use this program in any manner prohibited above.
 ---------------------------------------------------------------
  

 Cite this work as:
 Gaussian 16, Revision C.01,
 M. J. Frisch, G. W. Trucks, H. B. Schlegel, G. E. Scuseria, 
 M. A. Robb, J. R. Cheeseman, G. Scalmani, V. Barone, 
 G. A. Petersson, H. Nakatsuji, X. Li, M. Caricato, A. V. Marenich, 
 J. Bloino, B. G. Janesko, R. Gomperts, B. Mennucci, H. P. Hratchian, 
 J. V. Ortiz, A. F. Izmaylov, J. L. Sonnenberg, D. Williams-Young, 
 F. Ding, F. Lipparini, F. Egidi, J. Goings, B. Peng, A. Petrone, 
 T. Henderson, D. Ranasinghe, V. G. Zakrzewski, J. Gao, N. Rega, 
 G. Zheng, W. Liang, M. Hada, M. Ehara, K. Toyota, R. Fukuda, 
 J. Hasegawa, M. Ishida, T. Nakajima, Y. Honda, O. Kitao, H. Nakai, 
 T. Vreven, K. Throssell, J. A. Montgomery, Jr., J. E. Peralta, 
 F. Ogliaro, M. J. Bearpark, J. J. Heyd, E. N. Brothers, K. N. Kudin, 
 V. N. Staroverov, T. A. Keith, R. Kobayashi, J. Normand, 
 K. Raghavachari, A. P. Rendell, J. C. Burant, S. S. Iyengar, 
 J. Tomasi, M. Cossi, J. M. Millam, M. Klene, C. Adamo, R. Cammi, 
 J. W. Ochterski, R. L. Martin, K. Morokuma, O. Farkas, 
 J. B. Foresman, and D. J. Fox, Gaussian, Inc., Wallingford CT, 2019.
 
 ******************************************
 Gaussian 16:  ES64L-G16RevC.01  3-Jul-2019
                 8-Apr-2025 
 ******************************************
 %nprocs=16
 Will use up to   16 processors via shared memory.
 %mem=30GB
 %chk=ANI1ccx_1786_conf16_mol2.chk
 ----------------------------------------------------------------------
 #t hf aug-cc-pvdz symm=none int=(grid=ultrafine) guess=(read,tcheck) s
 table=(opt,rrhf)
 ----------------------------------------------------------------------
 -----
 title
 -----
 Symbolic Z-matrix:
 Charge =  0 Multiplicity = 1
 C                     2.12147  -1.25924   0.55404 
 C                    -2.19261  -0.79453  -0.64118 
 C                    -1.68867  -1.51567   0.65346 
 C                    -0.39261   2.50004   0.05113 
 C                    -2.5395   -1.18061   1.86619 
 C                     2.60912   1.28465  -0.05179 
 C                     2.39265   0.22029   1.05965 
 C                     0.71286  -1.65669   0.18227 
 C                     1.50981   1.44757  -1.08323 
 H                    -2.36696   1.90293  -0.46587 
 H                    -0.9236   -1.942    -1.47506 
 H                    -2.15216  -1.63936   2.79603 
 H                    -3.60126  -1.42938   1.77776 
 H                    -2.45291  -0.09998   2.03642 
 H                    -1.67452  -2.60169   0.49866 
 H                    -0.1594   -0.11628   1.04974 
 H                    -2.07071   3.42968   0.20108 
 H                     1.06262   3.03704   1.18883 
 H                     1.65706   2.33687  -1.74838 
 H                     3.99584  -1.65323  -0.11746 
 H                     1.62248   0.56047  -1.74818 
 H                     3.55654   1.13092  -0.60964 
 H                     2.71993   2.28757   0.42389 
 H                     1.63035   0.54187   1.78662 
 H                     3.36376   0.17214   1.59234 
 H                     2.38056  -1.92623   1.41797 
 H                     2.7542   -2.49376  -0.89944 
 H                    -0.47165   1.02998  -1.32742 
 N                     3.05785  -1.60817  -0.51685 
 N                     0.13132   1.40176  -0.59853 
 N                     0.10887   3.2866    0.91687 
 N                    -1.70602   2.69201  -0.38251 
 N                    -0.28348  -1.12354   0.94907 
 O                    -2.98557   0.11919  -0.62921 
 O                     0.44407  -2.50925  -0.68813 
 O                    -1.61164  -1.27781  -1.74485 
 
                    Distance matrix (angstroms):
                    1          2          3          4          5
     1  C    0.000000
     2  C    4.500642   0.000000
     3  C    3.820054   1.565280   0.000000
     4  C    4.550352   3.817524   4.262452   0.000000
     5  C    4.842786   2.560527   1.518842   4.631496   0.000000
     6  C    2.660112   5.265643   5.177854   3.240086   6.021995
     7  C    1.586885   4.994728   4.453732   3.737920   5.190293
     8  C    1.510085   3.140565   2.451378   4.303216   3.693247
     9  C    3.222047   4.350901   4.693311   2.452280   5.657148
    10  H    5.584401   2.708769   3.660576   2.126472   3.869949
    11  H    3.722343   1.903267   2.301674   4.726830   3.788773
    12  H    4.840965   3.539745   2.195612   5.269261   1.106836
    13  H    5.854578   2.870297   2.220245   5.358826   1.094094
    14  H    4.946343   2.778436   2.121513   3.866043   1.097381
    15  H    4.026758   2.198516   1.097089   5.279320   2.153556
    16  H    2.598933   2.730050   2.110447   2.810115   2.732079
    17  H    6.299597   4.309086   4.980672   1.924248   4.924137
    18  H    4.470140   5.350364   5.346343   1.923650   5.587724
    19  H    4.295206   5.084439   5.639577   2.732401   6.561166
    20  H    2.029629   6.269654   5.738196   6.044550   6.846086
    21  H    2.976661   4.197186   4.587150   3.325668   5.780752
    22  H    3.020999   6.063092   6.009335   4.231656   6.973853
    23  H    3.599299   5.896335   5.826928   3.141976   6.462980
    24  H    2.237069   4.721781   4.066131   3.307373   4.512309
    25  H    2.161069   6.065997   5.408997   4.680252   6.062459
    26  H    1.121778   5.141472   4.160729   5.399130   4.996383
    27  H    2.009219   5.236889   4.807000   5.978632   6.115252
    28  H    3.937599   2.600281   3.447516   2.016860   4.400210
    29  N    1.464699   5.314584   4.889543   5.394967   6.098524
    30  N    3.517105   3.197837   3.659406   1.379414   4.458336
    31  N    4.984663   4.937609   5.134427   1.272663   5.279303
    32  N    5.580248   3.529823   4.333372   1.396401   4.555054
    33  N    2.440948   2.506376   1.488528   3.734773   2.435984
    34  O    5.420517   1.209884   2.449487   3.585349   2.848771
    35  O    2.432936   3.145558   2.708440   5.132205   4.146265
    36  O    4.384213   1.337599   2.411311   4.357032   3.729609
                    6          7          8          9         10
     6  C    0.000000
     7  C    1.554028   0.000000
     8  C    3.507430   2.667311   0.000000
     9  C    1.516214   2.622508   3.445730   0.000000
    10  H    5.031412   5.273744   4.751450   3.951940   0.000000
    11  H    4.991702   4.700828   2.346520   4.190966   4.229094
    12  H    6.271337   5.208514   3.878191   6.163426   4.820162
    13  H    7.020115   6.258120   4.605310   6.525729   4.202579
    14  H    5.648180   4.953393   3.985388   5.275440   3.206320
    15  H    5.810008   4.981985   2.587027   5.388769   4.658475
    16  H    3.292518   2.574169   1.971344   3.127532   3.353746
    17  H    5.154212   5.564071   5.798256   4.289328   1.692204
    18  H    2.646065   3.117648   4.813168   2.808674   3.973193
    19  H    2.211791   3.592495   4.535136   1.120251   4.245688
    20  H    3.249376   2.732378   3.296636   4.089990   7.297458
    21  H    2.091807   2.931346   3.077309   1.114365   4.400245
    22  H    1.110154   2.229443   4.060100   2.124537   5.975326
    23  H    1.115524   2.187450   4.432143   2.107462   5.178424
    24  H    2.211208   1.101363   2.872177   3.011786   4.785884
    25  H    2.123747   1.108662   3.515706   3.496072   6.330325
    26  H    3.538668   2.176258   2.093041   4.289141   6.383594
    27  H    3.875041   3.366722   2.457203   4.137193   6.763515
    28  H    3.344138   3.815485   3.301581   2.039657   2.257543
    29  N    2.964127   2.504217   2.447468   3.471998   6.462119
    30  N    2.540106   3.042867   3.209666   1.461940   2.551504
    31  N    3.346243   3.825999   5.033940   3.056970   3.155355
    32  N    4.550876   4.998830   5.008108   3.518694   1.032685
    33  N    3.894636   2.996626   1.365615   3.735867   3.937318
    34  O    5.743890   5.638061   4.182183   4.709475   1.895013
    35  O    4.414302   3.781813   1.247681   4.116835   5.236278
    36  O    5.219912   5.113108   3.043132   4.196294   3.510470
                   11         12         13         14         15
    11  H    0.000000
    12  H    4.454566   0.000000
    13  H    4.244229   1.783496   0.000000
    14  H    4.249980   1.742745   1.775648   0.000000
    15  H    2.212381   2.536167   2.592825   3.037956   0.000000
    16  H    3.208094   3.056205   3.755081   2.496795   2.962522
    17  H    5.742844   5.695223   5.332820   3.996626   6.051689
    18  H    5.986002   5.898018   6.484406   4.787299   6.305835
    19  H    5.004322   7.139483   7.366697   6.095472   6.366944
    20  H    5.111493   6.803419   7.833128   6.974107   5.782055
    21  H    3.580426   6.303728   6.609024   5.600731   5.090944
    22  H    5.501222   7.201549   7.967994   6.680587   6.521096
    23  H    5.896658   6.692167   7.456952   5.921056   6.574317
    24  H    4.830202   4.481526   5.590677   4.140940   4.739516
    25  H    5.679789   5.929232   7.149179   5.839941   5.854448
    26  H    4.391736   4.746251   6.013192   5.203856   4.212488
    27  H    3.763243   6.201518   6.977976   6.439211   4.645414
    28  H    3.009771   5.191563   5.048271   4.064186   4.239160
    29  N    4.108718   6.174165   7.045632   6.257978   4.941017
    30  N    3.614124   5.097620   5.253024   3.984522   4.526863
    31  N    5.841712   5.736600   6.061904   4.391471   6.166632
    32  N    4.824925   5.391003   5.024395   3.768852   5.366629
    33  N    2.637426   2.677560   3.433360   2.633717   2.079134
    34  O    3.035736   3.939462   2.927570   2.727152   3.223995
    35  O    1.676767   4.431307   4.859157   4.649758   2.430108
    36  O    0.993647   4.587207   4.048499   4.048831   2.605751
                   16         17         18         19         20
    16  H    0.000000
    17  H    4.116693   0.000000
    18  H    3.384688   3.308711   0.000000
    19  H    4.140888   4.346366   3.077466   0.000000
    20  H    4.581549   7.920888   5.684083   4.904151   0.000000
    21  H    3.385475   5.066721   3.882383   1.776742   3.632153
    22  H    4.256439   6.132496   3.617656   2.521718   2.861245
    23  H    3.802727   4.929938   1.973200   2.418858   4.177428
    24  H    2.044350   4.954917   2.627836   3.964713   3.746937
    25  H    3.576348   6.486957   3.696715   4.331198   2.579713
    26  H    3.140527   7.069681   5.140381   5.359407   2.245261
    27  H    4.235653   7.718681   6.149150   5.025874   1.691050
    28  H    2.657500   3.263719   3.565641   2.533098   5.349963
    29  N    3.876935   7.224782   5.335564   4.363741   1.020473
    30  N    2.259593   3.098511   2.595403   2.127080   4.949637
    31  N    3.416025   2.298566   1.022681   3.225282   6.370265
    32  N    3.511390   1.008827   3.202111   3.647196   7.173742
    33  N    1.019853   4.948282   4.379485   4.797533   4.441913
    34  O    3.295688   3.533508   5.311022   5.265419   7.221043
    35  O    3.018388   6.510430   5.887862   5.106893   3.697772
    36  O    3.356766   5.114475   5.863111   4.873430   5.850912
                   21         22         23         24         25
    21  H    0.000000
    22  H    2.315659   0.000000
    23  H    2.984153   1.762368   0.000000
    24  H    3.534858   3.130376   2.468132   0.000000
    25  H    3.787073   2.409386   2.500965   1.783019   0.000000
    26  H    4.096687   3.852312   4.342750   2.605812   2.323845
    27  H    3.365925   3.723712   4.961197   4.206305   3.699668
    28  H    2.186978   4.092887   3.851599   3.788655   4.896046
    29  N    2.877403   2.785663   4.021935   3.459248   2.777005
    30  N    2.062288   3.435929   2.920771   2.945409   4.093964
    31  N    4.101868   4.343226   2.838788   3.256513   4.555260
    32  N    4.181801   5.493918   4.516955   4.523225   5.996034
    33  N    3.707246   4.717826   4.575142   2.671672   3.923637
    34  O    4.762451   6.619908   6.193837   5.227009   6.726967
    35  O    3.454781   4.790040   5.424538   4.103780   4.573293
    36  O    3.720054   5.813842   6.014804   5.127673   6.163912
                   26         27         28         29         30
    26  H    0.000000
    27  H    2.414966   0.000000
    28  H    4.940795   4.796461   0.000000
    29  N    2.074462   1.011360   4.480430   0.000000
    30  N    4.494538   4.705860   1.016404   4.198920   0.000000
    31  N    5.708350   6.611300   3.235149   5.891586   2.418588
    32  N    6.424173   6.859518   2.275712   6.419038   2.255489
    33  N    2.821572   3.810765   3.139338   3.680790   2.990693
    34  O    6.096725   6.312329   2.763478   6.286441   3.370597
    35  O    2.919858   2.319827   3.711251   2.770043   3.924518
    36  O    5.134349   4.610187   2.607626   4.839553   3.395888
                   31         32         33         34         35
    31  N    0.000000
    32  N    2.309926   0.000000
    33  N    4.427675   4.284290   0.000000
    34  O    4.690247   2.884007   3.366995   0.000000
    35  O    6.023310   5.636434   2.264933   4.321412   0.000000
    36  O    5.556866   4.198137   3.007490   2.254761   2.618976
                   36
    36  O    0.000000
 Symmetry turned off by external request.
 Rotational constants (GHZ):           0.5206441           0.4611047           0.3100864
   562 basis functions,   940 primitive gaussians,   596 cartesian basis functions
    66 alpha electrons       66 beta electrons
       nuclear repulsion energy      1393.4810890900 Hartrees.
 NAtoms=   36 NActive=   36 NUniq=   36 SFac= 1.00D+00 NAtFMM=   60 NAOKFM=F Big=F
 ExpMin= 2.97D-02 ExpMax= 1.17D+04 ExpMxC= 4.01D+02 IAcc=3 IRadAn=         5 AccDes= 0.00D+00
 Harris functional with IExCor=  205 and IRadAn=       5 diagonalized for initial guess.
 HarFok:  IExCor=  205 AccDes= 0.00D+00 IRadAn=         5 IDoV= 1 UseB2=F ITyADJ=14
 ICtDFT=  3500011 ScaDFX=  1.000000  1.000000  1.000000  1.000000
 FoFCou: FMM=F IPFlag=           0 FMFlag=      100000 FMFlg1=           0
         NFxFlg=           0 DoJE=T BraDBF=F KetDBF=T FulRan=T
         wScrn=  0.000000 ICntrl=       500 IOpCl=  0 I1Cent=   200000004 NGrid=           0
         NMat0=    1 NMatS0=      1 NMatT0=    0 NMatD0=    1 NMtDS0=    0 NMtDT0=    0
 Symmetry not used in FoFCou.
 SCF Done:  E(RHF) =  -848.840395353     A.U. after   15 cycles
            NFock= 15  Conv=0.45D-08     -V/T= 2.0017

 **********************************************************************

            Population analysis using the SCF Density.

 **********************************************************************

 Alpha  occ. eigenvalues --  -20.61815 -20.58078 -20.57508 -15.62095 -15.58598
 Alpha  occ. eigenvalues --  -15.57185 -15.55224 -15.52348 -11.41146 -11.40142
 Alpha  occ. eigenvalues --  -11.34564 -11.31617 -11.30987 -11.27884 -11.27110
 Alpha  occ. eigenvalues --  -11.25201 -11.24731  -1.47353  -1.42716  -1.38093
 Alpha  occ. eigenvalues --   -1.30502  -1.26684  -1.21537  -1.18456  -1.13141
 Alpha  occ. eigenvalues --   -1.07608  -1.05922  -0.98635  -0.92885  -0.90280
 Alpha  occ. eigenvalues --   -0.84532  -0.82474  -0.79809  -0.77546  -0.76424
 Alpha  occ. eigenvalues --   -0.73026  -0.72761  -0.69727  -0.68996  -0.68540
 Alpha  occ. eigenvalues --   -0.67008  -0.66105  -0.64360  -0.62756  -0.62128
 Alpha  occ. eigenvalues --   -0.61287  -0.60473  -0.59658  -0.58302  -0.57051
 Alpha  occ. eigenvalues --   -0.55836  -0.55513  -0.54304  -0.52917  -0.52651
 Alpha  occ. eigenvalues --   -0.51312  -0.50426  -0.49381  -0.48457  -0.48284
 Alpha  occ. eigenvalues --   -0.46447  -0.43285  -0.42175  -0.40743  -0.40102
 Alpha  occ. eigenvalues --   -0.35924
 Alpha virt. eigenvalues --    0.02170   0.03305   0.03951   0.04104   0.05119
 Alpha virt. eigenvalues --    0.05203   0.05612   0.06012   0.06373   0.07102
 Alpha virt. eigenvalues --    0.07628   0.07940   0.08381   0.08586   0.08851
 Alpha virt. eigenvalues --    0.09618   0.10726   0.10870   0.11447   0.11478
 Alpha virt. eigenvalues --    0.11715   0.12963   0.13271   0.13470   0.13803
 Alpha virt. eigenvalues --    0.14087   0.14317   0.14774   0.14796   0.15515
 Alpha virt. eigenvalues --    0.15841   0.16044   0.16480   0.16729   0.17288
 Alpha virt. eigenvalues --    0.17761   0.18085   0.18246   0.18645   0.18736
 Alpha virt. eigenvalues --    0.19080   0.19370   0.19633   0.20032   0.20260
 Alpha virt. eigenvalues --    0.20527   0.20901   0.21171   0.21656   0.22009
 Alpha virt. eigenvalues --    0.22648   0.22855   0.23551   0.23772   0.24191
 Alpha virt. eigenvalues --    0.24673   0.24749   0.25327   0.26246   0.26700
 Alpha virt. eigenvalues --    0.26996   0.27258   0.27907   0.28226   0.28721
 Alpha virt. eigenvalues --    0.28881   0.29897   0.30190   0.30538   0.30748
 Alpha virt. eigenvalues --    0.31088   0.31856   0.32199   0.32529   0.32783
 Alpha virt. eigenvalues --    0.33292   0.33529   0.33914   0.34506   0.34922
 Alpha virt. eigenvalues --    0.35465   0.36087   0.36199   0.36455   0.37024
 Alpha virt. eigenvalues --    0.37406   0.37726   0.38296   0.38361   0.38472
 Alpha virt. eigenvalues --    0.38814   0.39406   0.39608   0.40426   0.40858
 Alpha virt. eigenvalues --    0.41222   0.41694   0.41829   0.42348   0.42625
 Alpha virt. eigenvalues --    0.43645   0.43847   0.44316   0.44530   0.44878
 Alpha virt. eigenvalues --    0.44965   0.45500   0.46461   0.46487   0.47337
 Alpha virt. eigenvalues --    0.47978   0.48400   0.48592   0.49317   0.49412
 Alpha virt. eigenvalues --    0.50082   0.50609   0.50834   0.51296   0.51375
 Alpha virt. eigenvalues --    0.51638   0.52261   0.52868   0.53202   0.54158
 Alpha virt. eigenvalues --    0.54838   0.55176   0.55608   0.55859   0.56321
 Alpha virt. eigenvalues --    0.56652   0.57001   0.57253   0.57453   0.57591
 Alpha virt. eigenvalues --    0.58121   0.58857   0.59717   0.59891   0.60157
 Alpha virt. eigenvalues --    0.60295   0.60472   0.60735   0.60934   0.61689
 Alpha virt. eigenvalues --    0.62289   0.62716   0.63181   0.63647   0.64673
 Alpha virt. eigenvalues --    0.65272   0.65826   0.66275   0.66528   0.67422
 Alpha virt. eigenvalues --    0.68176   0.68362   0.68825   0.68966   0.69327
 Alpha virt. eigenvalues --    0.70543   0.70778   0.71141   0.71485   0.71742
 Alpha virt. eigenvalues --    0.72250   0.72734   0.73753   0.73843   0.74561
 Alpha virt. eigenvalues --    0.74693   0.75178   0.75631   0.76279   0.77160
 Alpha virt. eigenvalues --    0.77683   0.78003   0.78231   0.79086   0.79248
 Alpha virt. eigenvalues --    0.79713   0.80202   0.80680   0.81342   0.81606
 Alpha virt. eigenvalues --    0.82002   0.82328   0.82658   0.83060   0.83521
 Alpha virt. eigenvalues --    0.83821   0.84430   0.84992   0.85934   0.86435
 Alpha virt. eigenvalues --    0.86841   0.87617   0.87999   0.88515   0.89146
 Alpha virt. eigenvalues --    0.89524   0.89668   0.90170   0.91144   0.91508
 Alpha virt. eigenvalues --    0.92242   0.92987   0.93038   0.93922   0.94718
 Alpha virt. eigenvalues --    0.94847   0.95025   0.95808   0.96388   0.96516
 Alpha virt. eigenvalues --    0.97159   0.98216   0.98498   0.99743   1.00498
 Alpha virt. eigenvalues --    1.01115   1.01350   1.01799   1.02191   1.02821
 Alpha virt. eigenvalues --    1.03653   1.04129   1.04767   1.05379   1.06162
 Alpha virt. eigenvalues --    1.06808   1.07027   1.07326   1.08210   1.09276
 Alpha virt. eigenvalues --    1.09391   1.11189   1.11950   1.12804   1.13435
 Alpha virt. eigenvalues --    1.14122   1.15258   1.16554   1.17304   1.17775
 Alpha virt. eigenvalues --    1.17871   1.18466   1.19312   1.20704   1.21636
 Alpha virt. eigenvalues --    1.22790   1.23218   1.24066   1.24227   1.24874
 Alpha virt. eigenvalues --    1.26204   1.26553   1.27740   1.28461   1.29611
 Alpha virt. eigenvalues --    1.29914   1.31559   1.32765   1.32937   1.33854
 Alpha virt. eigenvalues --    1.34999   1.35147   1.36545   1.37161   1.38024
 Alpha virt. eigenvalues --    1.38427   1.38962   1.40950   1.41629   1.42663
 Alpha virt. eigenvalues --    1.43911   1.45010   1.45559   1.46528   1.47519
 Alpha virt. eigenvalues --    1.47947   1.48506   1.50779   1.51567   1.52120
 Alpha virt. eigenvalues --    1.53546   1.54388   1.54450   1.55874   1.57555
 Alpha virt. eigenvalues --    1.58100   1.59914   1.60659   1.62791   1.63292
 Alpha virt. eigenvalues --    1.64074   1.64821   1.65185   1.66240   1.67946
 Alpha virt. eigenvalues --    1.69727   1.70282   1.70989   1.71847   1.74065
 Alpha virt. eigenvalues --    1.74576   1.75463   1.76603   1.77491   1.78198
 Alpha virt. eigenvalues --    1.79372   1.79691   1.80334   1.81845   1.82479
 Alpha virt. eigenvalues --    1.83336   1.84048   1.85677   1.87073   1.87593
 Alpha virt. eigenvalues --    1.87980   1.89239   1.89963   1.91313   1.92672
 Alpha virt. eigenvalues --    1.93941   1.94907   1.95594   1.95939   1.96582
 Alpha virt. eigenvalues --    1.97672   1.99826   1.99960   2.01639   2.01819
 Alpha virt. eigenvalues --    2.03708   2.04260   2.04891   2.05543   2.05966
 Alpha virt. eigenvalues --    2.06860   2.06941   2.08804   2.09574   2.09693
 Alpha virt. eigenvalues --    2.12453   2.12829   2.12932   2.13872   2.14450
 Alpha virt. eigenvalues --    2.14787   2.16177   2.16921   2.17329   2.18698
 Alpha virt. eigenvalues --    2.19759   2.20198   2.20849   2.21516   2.22308
 Alpha virt. eigenvalues --    2.23159   2.24482   2.24925   2.25484   2.26030
 Alpha virt. eigenvalues --    2.27507   2.28055   2.29496   2.29819   2.31421
 Alpha virt. eigenvalues --    2.32038   2.32630   2.34085   2.35027   2.36210
 Alpha virt. eigenvalues --    2.37214   2.37918   2.38668   2.39479   2.40485
 Alpha virt. eigenvalues --    2.41397   2.42761   2.43030   2.43781   2.44995
 Alpha virt. eigenvalues --    2.45687   2.46272   2.47387   2.47810   2.48489
 Alpha virt. eigenvalues --    2.49917   2.50647   2.51834   2.52802   2.53930
 Alpha virt. eigenvalues --    2.54522   2.54790   2.56198   2.56683   2.57319
 Alpha virt. eigenvalues --    2.58823   2.59363   2.60695   2.62144   2.63414
 Alpha virt. eigenvalues --    2.63755   2.64270   2.65249   2.67870   2.68236
 Alpha virt. eigenvalues --    2.68494   2.70156   2.71492   2.72360   2.73287
 Alpha virt. eigenvalues --    2.75087   2.76109   2.76610   2.77208   2.78160
 Alpha virt. eigenvalues --    2.79607   2.80936   2.81862   2.82279   2.83089
 Alpha virt. eigenvalues --    2.84485   2.86551   2.87896   2.88153   2.89199
 Alpha virt. eigenvalues --    2.91614   2.91984   2.92167   2.94440   2.95156
 Alpha virt. eigenvalues --    2.95584   2.97427   2.98095   2.98994   3.01572
 Alpha virt. eigenvalues --    3.03065   3.03786   3.05696   3.06448   3.09493
 Alpha virt. eigenvalues --    3.10582   3.11343   3.14857   3.15373   3.15680
 Alpha virt. eigenvalues --    3.18191   3.18866   3.19061   3.19910   3.21069
 Alpha virt. eigenvalues --    3.24350   3.26188   3.29271   3.30497   3.34822
 Alpha virt. eigenvalues --    3.36935   3.38685   3.41764   3.44805   3.45759
 Alpha virt. eigenvalues --    3.46450   3.50485   3.53671   3.55849   3.56784
 Alpha virt. eigenvalues --    3.64788   3.69201   3.72795   3.74577   3.75428
 Alpha virt. eigenvalues --    3.78586   3.82107   3.84334   3.86499   3.88782
 Alpha virt. eigenvalues --    3.90844   3.91544   3.94587   3.96189   3.99678
 Alpha virt. eigenvalues --    4.06802   4.07010   4.11726   4.13599   4.15581
 Alpha virt. eigenvalues --    4.17325   4.22431   4.27945   4.35017   4.46714
 Alpha virt. eigenvalues --    4.51950
          Condensed to atoms (all electrons):
 Mulliken charges:
               1
     1  C   -0.074962
     2  C    1.406323
     3  C   -0.219835
     4  C    0.638635
     5  C    0.884358
     6  C    0.425661
     7  C    0.480743
     8  C    1.110208
     9  C    0.323576
    10  H    0.079812
    11  H    0.385899
    12  H   -0.019494
    13  H   -0.111132
    14  H   -0.081968
    15  H   -0.285171
    16  H    0.047270
    17  H    0.015964
    18  H   -0.008819
    19  H   -0.169829
    20  H    0.036543
    21  H   -0.170268
    22  H   -0.077327
    23  H   -0.034729
    24  H   -0.101614
    25  H   -0.092584
    26  H    0.030113
    27  H    0.000727
    28  H   -0.115348
    29  N   -0.228126
    30  N   -0.169682
    31  N   -0.427303
    32  N   -0.282680
    33  N   -0.362208
    34  O   -0.924499
    35  O   -1.104903
    36  O   -0.803353
 Sum of Mulliken charges =  -0.00000
 Mulliken charges with hydrogens summed into heavy atoms:
               1
     1  C   -0.044849
     2  C    1.406323
     3  C   -0.505007
     4  C    0.638635
     5  C    0.671764
     6  C    0.313605
     7  C    0.286545
     8  C    1.110208
     9  C   -0.016521
    29  N   -0.190856
    30  N   -0.285030
    31  N   -0.436122
    32  N   -0.186903
    33  N   -0.314938
    34  O   -0.924499
    35  O   -1.104903
    36  O   -0.417453
 Electronic spatial extent (au):  <R**2>=           3915.0789
 Charge=              0.0000 electrons
 Dipole moment (field-independent basis, Debye):
    X=              3.7053    Y=             -3.9228    Z=              2.7767  Tot=              6.0686
 NROrb=    562 NOA=    66 NOB=    66 NVA=   496 NVB=   496

 **** Warning!!: The largest alpha MO coefficient is  0.96944732D+02

    12 initial guesses have been made.
 Iteration     1 Dimension    12 NMult     0 NNew     12
 New state      1 was old state      5
 Iteration     2 Dimension    24 NMult    12 NNew     12
 Iteration     3 Dimension    27 NMult    24 NNew      3
 Iteration     4 Dimension    30 NMult    27 NNew      3
 Iteration     5 Dimension    33 NMult    30 NNew      3
 New state      1 was old state      2
 Iteration     6 Dimension    36 NMult    33 NNew      3
 Iteration     7 Dimension    39 NMult    36 NNew      3
 Iteration     8 Dimension    42 NMult    39 NNew      3
 Iteration     9 Dimension    45 NMult    42 NNew      3
 Iteration    10 Dimension    48 NMult    45 NNew      3
 Iteration    11 Dimension    51 NMult    48 NNew      3
 Iteration    12 Dimension    54 NMult    51 NNew      3
 Iteration    13 Dimension    57 NMult    54 NNew      3
 Iteration    14 Dimension    60 NMult    57 NNew      3
 Iteration    15 Dimension    63 NMult    60 NNew      3
 Iteration    16 Dimension    66 NMult    63 NNew      3
 Iteration    17 Dimension    69 NMult    66 NNew      3
 Iteration    18 Dimension    72 NMult    69 NNew      3
 ***********************************************************************
 Stability analysis using <AA,BB:AA,BB> singles matrix:
 ***********************************************************************
 Ground to excited state transition densities written to RWF  633

 Eigenvectors of the stability matrix:
 
 Excited state symmetry could not be determined.
 Eigenvector   1:      Singlet-?Sym  Eigenvalue= 0.2406375  <S**2>=0.000
      60 -> 90         0.13405
      60 -> 97        -0.12381
      60 -> 98         0.13689
      61 -> 98        -0.10028
      62 -> 85        -0.12002
      62 -> 86         0.13510
      62 -> 90         0.20750
      62 -> 92        -0.13523
      62 -> 96        -0.10252
      62 -> 97        -0.13494
      62 -> 98         0.16795
 The wavefunction is stable under the perturbations considered.
 The wavefunction is already stable.

 **********************************************************************

            Population analysis using the SCF Density.

 **********************************************************************

 Alpha  occ. eigenvalues --  -20.61815 -20.58078 -20.57508 -15.62095 -15.58598
 Alpha  occ. eigenvalues --  -15.57185 -15.55224 -15.52348 -11.41146 -11.40142
 Alpha  occ. eigenvalues --  -11.34564 -11.31617 -11.30987 -11.27884 -11.27110
 Alpha  occ. eigenvalues --  -11.25201 -11.24731  -1.47353  -1.42716  -1.38093
 Alpha  occ. eigenvalues --   -1.30502  -1.26684  -1.21537  -1.18456  -1.13141
 Alpha  occ. eigenvalues --   -1.07608  -1.05922  -0.98635  -0.92885  -0.90280
 Alpha  occ. eigenvalues --   -0.84532  -0.82474  -0.79809  -0.77546  -0.76424
 Alpha  occ. eigenvalues --   -0.73026  -0.72761  -0.69727  -0.68996  -0.68540
 Alpha  occ. eigenvalues --   -0.67008  -0.66105  -0.64360  -0.62756  -0.62128
 Alpha  occ. eigenvalues --   -0.61287  -0.60473  -0.59658  -0.58302  -0.57051
 Alpha  occ. eigenvalues --   -0.55836  -0.55513  -0.54304  -0.52917  -0.52651
 Alpha  occ. eigenvalues --   -0.51312  -0.50426  -0.49381  -0.48457  -0.48284
 Alpha  occ. eigenvalues --   -0.46447  -0.43285  -0.42175  -0.40743  -0.40102
 Alpha  occ. eigenvalues --   -0.35924
 Alpha virt. eigenvalues --    0.02170   0.03305   0.03951   0.04104   0.05119
 Alpha virt. eigenvalues --    0.05203   0.05612   0.06012   0.06373   0.07102
 Alpha virt. eigenvalues --    0.07628   0.07940   0.08381   0.08586   0.08851
 Alpha virt. eigenvalues --    0.09618   0.10726   0.10870   0.11447   0.11478
 Alpha virt. eigenvalues --    0.11715   0.12963   0.13271   0.13470   0.13803
 Alpha virt. eigenvalues --    0.14087   0.14317   0.14774   0.14796   0.15515
 Alpha virt. eigenvalues --    0.15841   0.16044   0.16480   0.16729   0.17288
 Alpha virt. eigenvalues --    0.17761   0.18085   0.18246   0.18645   0.18736
 Alpha virt. eigenvalues --    0.19080   0.19370   0.19633   0.20032   0.20260
 Alpha virt. eigenvalues --    0.20527   0.20901   0.21171   0.21656   0.22009
 Alpha virt. eigenvalues --    0.22648   0.22855   0.23551   0.23772   0.24191
 Alpha virt. eigenvalues --    0.24673   0.24749   0.25327   0.26246   0.26700
 Alpha virt. eigenvalues --    0.26996   0.27258   0.27907   0.28226   0.28721
 Alpha virt. eigenvalues --    0.28881   0.29897   0.30190   0.30538   0.30748
 Alpha virt. eigenvalues --    0.31088   0.31856   0.32199   0.32529   0.32783
 Alpha virt. eigenvalues --    0.33292   0.33529   0.33914   0.34506   0.34922
 Alpha virt. eigenvalues --    0.35465   0.36087   0.36199   0.36455   0.37024
 Alpha virt. eigenvalues --    0.37406   0.37726   0.38296   0.38361   0.38472
 Alpha virt. eigenvalues --    0.38814   0.39406   0.39608   0.40426   0.40858
 Alpha virt. eigenvalues --    0.41222   0.41694   0.41829   0.42348   0.42625
 Alpha virt. eigenvalues --    0.43645   0.43847   0.44316   0.44530   0.44878
 Alpha virt. eigenvalues --    0.44965   0.45500   0.46461   0.46487   0.47337
 Alpha virt. eigenvalues --    0.47978   0.48400   0.48592   0.49317   0.49412
 Alpha virt. eigenvalues --    0.50082   0.50609   0.50834   0.51296   0.51375
 Alpha virt. eigenvalues --    0.51638   0.52261   0.52868   0.53202   0.54158
 Alpha virt. eigenvalues --    0.54838   0.55176   0.55608   0.55859   0.56321
 Alpha virt. eigenvalues --    0.56652   0.57001   0.57253   0.57453   0.57591
 Alpha virt. eigenvalues --    0.58121   0.58857   0.59717   0.59891   0.60157
 Alpha virt. eigenvalues --    0.60295   0.60472   0.60735   0.60934   0.61689
 Alpha virt. eigenvalues --    0.62289   0.62716   0.63181   0.63647   0.64673
 Alpha virt. eigenvalues --    0.65272   0.65826   0.66275   0.66528   0.67422
 Alpha virt. eigenvalues --    0.68176   0.68362   0.68825   0.68966   0.69327
 Alpha virt. eigenvalues --    0.70543   0.70778   0.71141   0.71485   0.71742
 Alpha virt. eigenvalues --    0.72250   0.72734   0.73753   0.73843   0.74561
 Alpha virt. eigenvalues --    0.74693   0.75178   0.75631   0.76279   0.77160
 Alpha virt. eigenvalues --    0.77683   0.78003   0.78231   0.79086   0.79248
 Alpha virt. eigenvalues --    0.79713   0.80202   0.80680   0.81342   0.81606
 Alpha virt. eigenvalues --    0.82002   0.82328   0.82658   0.83060   0.83521
 Alpha virt. eigenvalues --    0.83821   0.84430   0.84992   0.85934   0.86435
 Alpha virt. eigenvalues --    0.86841   0.87617   0.87999   0.88515   0.89146
 Alpha virt. eigenvalues --    0.89524   0.89668   0.90170   0.91144   0.91508
 Alpha virt. eigenvalues --    0.92242   0.92987   0.93038   0.93922   0.94718
 Alpha virt. eigenvalues --    0.94847   0.95025   0.95808   0.96388   0.96516
 Alpha virt. eigenvalues --    0.97159   0.98216   0.98498   0.99743   1.00498
 Alpha virt. eigenvalues --    1.01115   1.01350   1.01799   1.02191   1.02821
 Alpha virt. eigenvalues --    1.03653   1.04129   1.04767   1.05379   1.06162
 Alpha virt. eigenvalues --    1.06808   1.07027   1.07326   1.08210   1.09276
 Alpha virt. eigenvalues --    1.09391   1.11189   1.11950   1.12804   1.13435
 Alpha virt. eigenvalues --    1.14122   1.15258   1.16554   1.17304   1.17775
 Alpha virt. eigenvalues --    1.17871   1.18466   1.19312   1.20704   1.21636
 Alpha virt. eigenvalues --    1.22790   1.23218   1.24066   1.24227   1.24874
 Alpha virt. eigenvalues --    1.26204   1.26553   1.27740   1.28461   1.29611
 Alpha virt. eigenvalues --    1.29914   1.31559   1.32765   1.32937   1.33854
 Alpha virt. eigenvalues --    1.34999   1.35147   1.36545   1.37161   1.38024
 Alpha virt. eigenvalues --    1.38427   1.38962   1.40950   1.41629   1.42663
 Alpha virt. eigenvalues --    1.43911   1.45010   1.45559   1.46528   1.47519
 Alpha virt. eigenvalues --    1.47947   1.48506   1.50779   1.51567   1.52120
 Alpha virt. eigenvalues --    1.53546   1.54388   1.54450   1.55874   1.57555
 Alpha virt. eigenvalues --    1.58100   1.59914   1.60659   1.62791   1.63292
 Alpha virt. eigenvalues --    1.64074   1.64821   1.65185   1.66240   1.67946
 Alpha virt. eigenvalues --    1.69727   1.70282   1.70989   1.71847   1.74065
 Alpha virt. eigenvalues --    1.74576   1.75463   1.76603   1.77491   1.78198
 Alpha virt. eigenvalues --    1.79372   1.79691   1.80334   1.81845   1.82479
 Alpha virt. eigenvalues --    1.83336   1.84048   1.85677   1.87073   1.87593
 Alpha virt. eigenvalues --    1.87980   1.89239   1.89963   1.91313   1.92672
 Alpha virt. eigenvalues --    1.93941   1.94907   1.95594   1.95939   1.96582
 Alpha virt. eigenvalues --    1.97672   1.99826   1.99960   2.01639   2.01819
 Alpha virt. eigenvalues --    2.03708   2.04260   2.04891   2.05543   2.05966
 Alpha virt. eigenvalues --    2.06860   2.06941   2.08804   2.09574   2.09693
 Alpha virt. eigenvalues --    2.12453   2.12829   2.12932   2.13872   2.14450
 Alpha virt. eigenvalues --    2.14787   2.16177   2.16921   2.17329   2.18698
 Alpha virt. eigenvalues --    2.19759   2.20198   2.20849   2.21516   2.22308
 Alpha virt. eigenvalues --    2.23159   2.24482   2.24925   2.25484   2.26030
 Alpha virt. eigenvalues --    2.27507   2.28055   2.29496   2.29819   2.31421
 Alpha virt. eigenvalues --    2.32038   2.32630   2.34085   2.35027   2.36210
 Alpha virt. eigenvalues --    2.37214   2.37918   2.38668   2.39479   2.40485
 Alpha virt. eigenvalues --    2.41397   2.42761   2.43030   2.43781   2.44995
 Alpha virt. eigenvalues --    2.45687   2.46272   2.47387   2.47810   2.48489
 Alpha virt. eigenvalues --    2.49917   2.50647   2.51834   2.52802   2.53930
 Alpha virt. eigenvalues --    2.54522   2.54790   2.56198   2.56683   2.57319
 Alpha virt. eigenvalues --    2.58823   2.59363   2.60695   2.62144   2.63414
 Alpha virt. eigenvalues --    2.63755   2.64270   2.65249   2.67870   2.68236
 Alpha virt. eigenvalues --    2.68494   2.70156   2.71492   2.72360   2.73287
 Alpha virt. eigenvalues --    2.75087   2.76109   2.76610   2.77208   2.78160
 Alpha virt. eigenvalues --    2.79607   2.80936   2.81862   2.82279   2.83089
 Alpha virt. eigenvalues --    2.84485   2.86551   2.87896   2.88153   2.89199
 Alpha virt. eigenvalues --    2.91614   2.91984   2.92167   2.94440   2.95156
 Alpha virt. eigenvalues --    2.95584   2.97427   2.98095   2.98994   3.01572
 Alpha virt. eigenvalues --    3.03065   3.03786   3.05696   3.06448   3.09493
 Alpha virt. eigenvalues --    3.10582   3.11343   3.14857   3.15373   3.15680
 Alpha virt. eigenvalues --    3.18191   3.18866   3.19061   3.19910   3.21069
 Alpha virt. eigenvalues --    3.24350   3.26188   3.29271   3.30497   3.34822
 Alpha virt. eigenvalues --    3.36935   3.38685   3.41764   3.44805   3.45759
 Alpha virt. eigenvalues --    3.46450   3.50485   3.53671   3.55849   3.56784
 Alpha virt. eigenvalues --    3.64788   3.69201   3.72795   3.74577   3.75428
 Alpha virt. eigenvalues --    3.78586   3.82107   3.84334   3.86499   3.88782
 Alpha virt. eigenvalues --    3.90844   3.91544   3.94587   3.96189   3.99678
 Alpha virt. eigenvalues --    4.06802   4.07010   4.11726   4.13599   4.15581
 Alpha virt. eigenvalues --    4.17325   4.22431   4.27945   4.35017   4.46714
 Alpha virt. eigenvalues --    4.51950
          Condensed to atoms (all electrons):
 Mulliken charges:
               1
     1  C   -0.074962
     2  C    1.406323
     3  C   -0.219835
     4  C    0.638635
     5  C    0.884358
     6  C    0.425661
     7  C    0.480743
     8  C    1.110208
     9  C    0.323576
    10  H    0.079812
    11  H    0.385899
    12  H   -0.019494
    13  H   -0.111132
    14  H   -0.081968
    15  H   -0.285171
    16  H    0.047270
    17  H    0.015964
    18  H   -0.008819
    19  H   -0.169829
    20  H    0.036543
    21  H   -0.170268
    22  H   -0.077327
    23  H   -0.034729
    24  H   -0.101614
    25  H   -0.092584
    26  H    0.030113
    27  H    0.000727
    28  H   -0.115348
    29  N   -0.228126
    30  N   -0.169682
    31  N   -0.427303
    32  N   -0.282680
    33  N   -0.362208
    34  O   -0.924499
    35  O   -1.104903
    36  O   -0.803353
 Sum of Mulliken charges =  -0.00000
 Mulliken charges with hydrogens summed into heavy atoms:
               1
     1  C   -0.044849
     2  C    1.406323
     3  C   -0.505007
     4  C    0.638635
     5  C    0.671764
     6  C    0.313605
     7  C    0.286545
     8  C    1.110208
     9  C   -0.016521
    29  N   -0.190856
    30  N   -0.285030
    31  N   -0.436122
    32  N   -0.186903
    33  N   -0.314938
    34  O   -0.924499
    35  O   -1.104903
    36  O   -0.417453
 Electronic spatial extent (au):  <R**2>=           3915.0789
 Charge=              0.0000 electrons
 Dipole moment (field-independent basis, Debye):
    X=              3.7053    Y=             -3.9228    Z=              2.7767  Tot=              6.0686
 Unable to Open any file for archive entry.
 1\1\GINC-SE105\Stability\RHF\Aug-CC-pVDZ\C9H19N5O3\OHZDE\08-Apr-2025\0
 \\#t hf aug-cc-pvdz symm=none int=(grid=ultrafine) guess=(read,tcheck)
  stable=(opt,rrhf)\\title\\0,1\C,0,2.12147,-1.25924,0.554035\C,0,-2.19
 261,-0.794531,-0.641181\C,0,-1.68867,-1.51567,0.653464\C,0,-0.392612,2
 .50004,0.0511304\C,0,-2.5395,-1.18061,1.86619\C,0,2.60912,1.28465,-0.0
 517852\C,0,2.39265,0.220293,1.05965\C,0,0.71286,-1.65669,0.182273\C,0,
 1.50981,1.44757,-1.08323\H,0,-2.36696,1.90293,-0.465872\H,0,-0.9236,-1
 .942,-1.47506\H,0,-2.15216,-1.63936,2.79603\H,0,-3.60126,-1.42938,1.77
 776\H,0,-2.45291,-0.0999764,2.03642\H,0,-1.67452,-2.60169,0.498657\H,0
 ,-0.159401,-0.116281,1.04974\H,0,-2.07071,3.42968,0.201081\H,0,1.06262
 ,3.03704,1.18883\H,0,1.65706,2.33687,-1.74838\H,0,3.99584,-1.65323,-0.
 117458\H,0,1.62248,0.560465,-1.74818\H,0,3.55654,1.13092,-0.609642\H,0
 ,2.71993,2.28757,0.423889\H,0,1.63035,0.541874,1.78662\H,0,3.36376,0.1
 72143,1.59234\H,0,2.38056,-1.92623,1.41797\H,0,2.7542,-2.49376,-0.8994
 35\H,0,-0.471652,1.02998,-1.32742\N,0,3.05785,-1.60817,-0.516845\N,0,0
 .13132,1.40176,-0.59853\N,0,0.108872,3.2866,0.916872\N,0,-1.70602,2.69
 201,-0.382508\N,0,-0.283476,-1.12354,0.949065\O,0,-2.98557,0.119193,-0
 .629212\O,0,0.444068,-2.50925,-0.68813\O,0,-1.61164,-1.27781,-1.74485\
 \Version=ES64L-G16RevC.01\HF=-848.8403954\RMSD=4.548e-09\Dipole=1.4577
 771,-1.5433551,1.0924465\Quadrupole=8.0195151,-7.3191588,-0.7003563,2.
 0835304,-1.8490572,-5.5020934\PG=Unknown\\@
 The archive entry for this job was punched.


 IT IS DOUBTED WHETHER A MAN EVER BRINGS HIS FACULTIES TO BEAR WITH THEIR FULL FORCE
 ON A SUBJECT UNTIL HE WRITES UPON IT.

                          -- CICERO
 Job cpu time:       0 days  7 hours  9 minutes 28.5 seconds.
 Elapsed time:       0 days  0 hours 27 minutes 39.0 seconds.
 File lengths (MBytes):  RWF=   1352 Int=      0 D2E=      0 Chk=     40 Scr=      1
 Normal termination of Gaussian 16 at Tue Apr  8 21:24:42 2025.
 Initial command:
 /arc/software/Gaussian/g16.c01/l1.exe "/tmp/slurm/4836730/Gau-2506310.inp" -scrdir="/tmp/slurm/4836730/"
 Entering Link 1 = /arc/software/Gaussian/g16.c01/l1.exe PID=   2507039.
  
 Copyright (c) 1988-2019, Gaussian, Inc.  All Rights Reserved.
  
 This is part of the Gaussian(R) 16 program.  It is based on
 the Gaussian(R) 09 system (copyright 2009, Gaussian, Inc.),
 the Gaussian(R) 03 system (copyright 2003, Gaussian, Inc.),
 the Gaussian(R) 98 system (copyright 1998, Gaussian, Inc.),
 the Gaussian(R) 94 system (copyright 1995, Gaussian, Inc.),
 the Gaussian 92(TM) system (copyright 1992, Gaussian, Inc.),
 the Gaussian 90(TM) system (copyright 1990, Gaussian, Inc.),
 the Gaussian 88(TM) system (copyright 1988, Gaussian, Inc.),
 the Gaussian 86(TM) system (copyright 1986, Carnegie Mellon
 University), and the Gaussian 82(TM) system (copyright 1983,
 Carnegie Mellon University). Gaussian is a federally registered
 trademark of Gaussian, Inc.
  
 This software contains proprietary and confidential information,
 including trade secrets, belonging to Gaussian, Inc.
  
 This software is provided under written license and may be
 used, copied, transmitted, or stored only in accord with that
 written license.
  
 The following legend is applicable only to US Government
 contracts under FAR:
  
                    RESTRICTED RIGHTS LEGEND
  
 Use, reproduction and disclosure by the US Government is
 subject to restrictions as set forth in subparagraphs (a)
 and (c) of the Commercial Computer Software - Restricted
 Rights clause in FAR 52.227-19.
  
 Gaussian, Inc.
 340 Quinnipiac St., Bldg. 40, Wallingford CT 06492
  
  
 ---------------------------------------------------------------
 Warning -- This program may not be used in any manner that
 competes with the business of Gaussian, Inc. or will provide
 assistance to any competitor of Gaussian, Inc.  The licensee
 of this program is prohibited from giving any competitor of
 Gaussian, Inc. access to this program.  By using this program,
 the user acknowledges that Gaussian, Inc. is engaged in the
 business of creating and licensing software in the field of
 computational chemistry and represents and warrants to the
 licensee that it is not a competitor of Gaussian, Inc. and that
 it will not use this program in any manner prohibited above.
 ---------------------------------------------------------------
  

 Cite this work as:
 Gaussian 16, Revision C.01,
 M. J. Frisch, G. W. Trucks, H. B. Schlegel, G. E. Scuseria, 
 M. A. Robb, J. R. Cheeseman, G. Scalmani, V. Barone, 
 G. A. Petersson, H. Nakatsuji, X. Li, M. Caricato, A. V. Marenich, 
 J. Bloino, B. G. Janesko, R. Gomperts, B. Mennucci, H. P. Hratchian, 
 J. V. Ortiz, A. F. Izmaylov, J. L. Sonnenberg, D. Williams-Young, 
 F. Ding, F. Lipparini, F. Egidi, J. Goings, B. Peng, A. Petrone, 
 T. Henderson, D. Ranasinghe, V. G. Zakrzewski, J. Gao, N. Rega, 
 G. Zheng, W. Liang, M. Hada, M. Ehara, K. Toyota, R. Fukuda, 
 J. Hasegawa, M. Ishida, T. Nakajima, Y. Honda, O. Kitao, H. Nakai, 
 T. Vreven, K. Throssell, J. A. Montgomery, Jr., J. E. Peralta, 
 F. Ogliaro, M. J. Bearpark, J. J. Heyd, E. N. Brothers, K. N. Kudin, 
 V. N. Staroverov, T. A. Keith, R. Kobayashi, J. Normand, 
 K. Raghavachari, A. P. Rendell, J. C. Burant, S. S. Iyengar, 
 J. Tomasi, M. Cossi, J. M. Millam, M. Klene, C. Adamo, R. Cammi, 
 J. W. Ochterski, R. L. Martin, K. Morokuma, O. Farkas, 
 J. B. Foresman, and D. J. Fox, Gaussian, Inc., Wallingford CT, 2019.
 
 ******************************************
 Gaussian 16:  ES64L-G16RevC.01  3-Jul-2019
                 8-Apr-2025 
 ******************************************
 %nprocs=16
 Will use up to   16 processors via shared memory.
 %mem=30GB
 %chk=ANI1ccx_1786_conf16_mol2.chk
 ----------------------------------------------------------------------
 #t hf aug-cc-pvdz iop(5/13=1,5/36=2,99/5=2) pseudo=read geom=check gue
 ss=(read,tcheck) scf=(maxcycle=1)
 ----------------------------------------------------------------------
 -----
 title
 -----
 Structure from the checkpoint file:  "ANI1ccx_1786_conf16_mol2.chk"
 Charge =  0 Multiplicity = 1
 Z-Matrix found in chk file.
 C,0,2.12147,-1.25924,0.554035
 C,0,-2.19261,-0.794531,-0.641181
 C,0,-1.68867,-1.51567,0.653464
 C,0,-0.392612,2.50004,0.0511304
 C,0,-2.5395,-1.18061,1.86619
 C,0,2.60912,1.28465,-0.0517852
 C,0,2.39265,0.220293,1.05965
 C,0,0.71286,-1.65669,0.182273
 C,0,1.50981,1.44757,-1.08323
 H,0,-2.36696,1.90293,-0.465872
 H,0,-0.9236,-1.942,-1.47506
 H,0,-2.15216,-1.63936,2.79603
 H,0,-3.60126,-1.42938,1.77776
 H,0,-2.45291,-0.0999764,2.03642
 H,0,-1.67452,-2.60169,0.498657
 H,0,-0.159401,-0.116281,1.04974
 H,0,-2.07071,3.42968,0.201081
 H,0,1.06262,3.03704,1.18883
 H,0,1.65706,2.33687,-1.74838
 H,0,3.99584,-1.65323,-0.117458
 H,0,1.62248,0.560465,-1.74818
 H,0,3.55654,1.13092,-0.609642
 H,0,2.71993,2.28757,0.423889
 H,0,1.63035,0.541874,1.78662
 H,0,3.36376,0.172143,1.59234
 H,0,2.38056,-1.92623,1.41797
 H,0,2.7542,-2.49376,-0.899435
 H,0,-0.471652,1.02998,-1.32742
 N,0,3.05785,-1.60817,-0.516845
 N,0,0.13132,1.40176,-0.59853
 N,0,0.108872,3.2866,0.916872
 N,0,-1.70602,2.69201,-0.382508
 N,0,-0.283476,-1.12354,0.949065
 O,0,-2.98557,0.119193,-0.629212
 O,0,0.444068,-2.50925,-0.68813
 O,0,-1.61164,-1.27781,-1.74485
 Recover connectivity data from disk.
                    Distance matrix (angstroms):
                    1          2          3          4          5
     1  C    0.000000
     2  C    4.500642   0.000000
     3  C    3.820054   1.565280   0.000000
     4  C    4.550352   3.817524   4.262452   0.000000
     5  C    4.842786   2.560527   1.518842   4.631496   0.000000
     6  C    2.660112   5.265643   5.177854   3.240086   6.021995
     7  C    1.586885   4.994728   4.453732   3.737920   5.190293
     8  C    1.510085   3.140565   2.451378   4.303216   3.693247
     9  C    3.222047   4.350901   4.693311   2.452280   5.657148
    10  H    5.584401   2.708769   3.660576   2.126472   3.869949
    11  H    3.722343   1.903267   2.301674   4.726830   3.788773
    12  H    4.840965   3.539745   2.195612   5.269261   1.106836
    13  H    5.854578   2.870297   2.220245   5.358826   1.094094
    14  H    4.946343   2.778436   2.121513   3.866043   1.097381
    15  H    4.026758   2.198516   1.097089   5.279320   2.153556
    16  H    2.598933   2.730050   2.110447   2.810115   2.732079
    17  H    6.299597   4.309086   4.980672   1.924248   4.924137
    18  H    4.470140   5.350364   5.346343   1.923650   5.587724
    19  H    4.295206   5.084439   5.639577   2.732401   6.561166
    20  H    2.029629   6.269654   5.738196   6.044550   6.846086
    21  H    2.976661   4.197186   4.587150   3.325668   5.780752
    22  H    3.020999   6.063092   6.009335   4.231656   6.973853
    23  H    3.599299   5.896335   5.826928   3.141976   6.462980
    24  H    2.237069   4.721781   4.066131   3.307373   4.512309
    25  H    2.161069   6.065997   5.408997   4.680252   6.062459
    26  H    1.121778   5.141472   4.160729   5.399130   4.996383
    27  H    2.009219   5.236889   4.807000   5.978632   6.115252
    28  H    3.937599   2.600281   3.447516   2.016860   4.400210
    29  N    1.464699   5.314584   4.889543   5.394967   6.098524
    30  N    3.517105   3.197837   3.659406   1.379414   4.458336
    31  N    4.984663   4.937609   5.134427   1.272663   5.279303
    32  N    5.580248   3.529823   4.333372   1.396401   4.555054
    33  N    2.440948   2.506376   1.488528   3.734773   2.435984
    34  O    5.420517   1.209884   2.449487   3.585349   2.848771
    35  O    2.432936   3.145558   2.708440   5.132205   4.146265
    36  O    4.384213   1.337599   2.411311   4.357032   3.729609
                    6          7          8          9         10
     6  C    0.000000
     7  C    1.554028   0.000000
     8  C    3.507430   2.667311   0.000000
     9  C    1.516214   2.622508   3.445730   0.000000
    10  H    5.031412   5.273744   4.751450   3.951940   0.000000
    11  H    4.991702   4.700828   2.346520   4.190966   4.229094
    12  H    6.271337   5.208514   3.878191   6.163426   4.820162
    13  H    7.020115   6.258120   4.605310   6.525729   4.202579
    14  H    5.648180   4.953393   3.985388   5.275440   3.206320
    15  H    5.810008   4.981985   2.587027   5.388769   4.658475
    16  H    3.292518   2.574169   1.971344   3.127532   3.353746
    17  H    5.154212   5.564071   5.798256   4.289328   1.692204
    18  H    2.646065   3.117648   4.813168   2.808674   3.973193
    19  H    2.211791   3.592495   4.535136   1.120251   4.245688
    20  H    3.249376   2.732378   3.296636   4.089990   7.297458
    21  H    2.091807   2.931346   3.077309   1.114365   4.400245
    22  H    1.110154   2.229443   4.060100   2.124537   5.975326
    23  H    1.115524   2.187450   4.432143   2.107462   5.178424
    24  H    2.211208   1.101363   2.872177   3.011786   4.785884
    25  H    2.123747   1.108662   3.515706   3.496072   6.330325
    26  H    3.538668   2.176258   2.093041   4.289141   6.383594
    27  H    3.875041   3.366722   2.457203   4.137193   6.763515
    28  H    3.344138   3.815485   3.301581   2.039657   2.257543
    29  N    2.964127   2.504217   2.447468   3.471998   6.462119
    30  N    2.540106   3.042867   3.209666   1.461940   2.551504
    31  N    3.346243   3.825999   5.033940   3.056970   3.155355
    32  N    4.550876   4.998830   5.008108   3.518694   1.032685
    33  N    3.894636   2.996626   1.365615   3.735867   3.937318
    34  O    5.743890   5.638061   4.182183   4.709475   1.895013
    35  O    4.414302   3.781813   1.247681   4.116835   5.236278
    36  O    5.219912   5.113108   3.043132   4.196294   3.510470
                   11         12         13         14         15
    11  H    0.000000
    12  H    4.454566   0.000000
    13  H    4.244229   1.783496   0.000000
    14  H    4.249980   1.742745   1.775648   0.000000
    15  H    2.212381   2.536167   2.592825   3.037956   0.000000
    16  H    3.208094   3.056205   3.755081   2.496795   2.962522
    17  H    5.742844   5.695223   5.332820   3.996626   6.051689
    18  H    5.986002   5.898018   6.484406   4.787299   6.305835
    19  H    5.004322   7.139483   7.366697   6.095472   6.366944
    20  H    5.111493   6.803419   7.833128   6.974107   5.782055
    21  H    3.580426   6.303728   6.609024   5.600731   5.090944
    22  H    5.501222   7.201549   7.967994   6.680587   6.521096
    23  H    5.896658   6.692167   7.456952   5.921056   6.574317
    24  H    4.830202   4.481526   5.590677   4.140940   4.739516
    25  H    5.679789   5.929232   7.149179   5.839941   5.854448
    26  H    4.391736   4.746251   6.013192   5.203856   4.212488
    27  H    3.763243   6.201518   6.977976   6.439211   4.645414
    28  H    3.009771   5.191563   5.048271   4.064186   4.239160
    29  N    4.108718   6.174165   7.045632   6.257978   4.941017
    30  N    3.614124   5.097620   5.253024   3.984522   4.526863
    31  N    5.841712   5.736600   6.061904   4.391471   6.166632
    32  N    4.824925   5.391003   5.024395   3.768852   5.366629
    33  N    2.637426   2.677560   3.433360   2.633717   2.079134
    34  O    3.035736   3.939462   2.927570   2.727152   3.223995
    35  O    1.676767   4.431307   4.859157   4.649758   2.430108
    36  O    0.993647   4.587207   4.048499   4.048831   2.605751
                   16         17         18         19         20
    16  H    0.000000
    17  H    4.116693   0.000000
    18  H    3.384688   3.308711   0.000000
    19  H    4.140888   4.346366   3.077466   0.000000
    20  H    4.581549   7.920888   5.684083   4.904151   0.000000
    21  H    3.385475   5.066721   3.882383   1.776742   3.632153
    22  H    4.256439   6.132496   3.617656   2.521718   2.861245
    23  H    3.802727   4.929938   1.973200   2.418858   4.177428
    24  H    2.044350   4.954917   2.627836   3.964713   3.746937
    25  H    3.576348   6.486957   3.696715   4.331198   2.579713
    26  H    3.140527   7.069681   5.140381   5.359407   2.245261
    27  H    4.235653   7.718681   6.149150   5.025874   1.691050
    28  H    2.657500   3.263719   3.565641   2.533098   5.349963
    29  N    3.876935   7.224782   5.335564   4.363741   1.020473
    30  N    2.259593   3.098511   2.595403   2.127080   4.949637
    31  N    3.416025   2.298566   1.022681   3.225282   6.370265
    32  N    3.511390   1.008827   3.202111   3.647196   7.173742
    33  N    1.019853   4.948282   4.379485   4.797533   4.441913
    34  O    3.295688   3.533508   5.311022   5.265419   7.221043
    35  O    3.018388   6.510430   5.887862   5.106893   3.697772
    36  O    3.356766   5.114475   5.863111   4.873430   5.850912
                   21         22         23         24         25
    21  H    0.000000
    22  H    2.315659   0.000000
    23  H    2.984153   1.762368   0.000000
    24  H    3.534858   3.130376   2.468132   0.000000
    25  H    3.787073   2.409386   2.500965   1.783019   0.000000
    26  H    4.096687   3.852312   4.342750   2.605812   2.323845
    27  H    3.365925   3.723712   4.961197   4.206305   3.699668
    28  H    2.186978   4.092887   3.851599   3.788655   4.896046
    29  N    2.877403   2.785663   4.021935   3.459248   2.777005
    30  N    2.062288   3.435929   2.920771   2.945409   4.093964
    31  N    4.101868   4.343226   2.838788   3.256513   4.555260
    32  N    4.181801   5.493918   4.516955   4.523225   5.996034
    33  N    3.707246   4.717826   4.575142   2.671672   3.923637
    34  O    4.762451   6.619908   6.193837   5.227009   6.726967
    35  O    3.454781   4.790040   5.424538   4.103780   4.573293
    36  O    3.720054   5.813842   6.014804   5.127673   6.163912
                   26         27         28         29         30
    26  H    0.000000
    27  H    2.414966   0.000000
    28  H    4.940795   4.796461   0.000000
    29  N    2.074462   1.011360   4.480430   0.000000
    30  N    4.494538   4.705860   1.016404   4.198920   0.000000
    31  N    5.708350   6.611300   3.235149   5.891586   2.418588
    32  N    6.424173   6.859518   2.275712   6.419038   2.255489
    33  N    2.821572   3.810765   3.139338   3.680790   2.990693
    34  O    6.096725   6.312329   2.763478   6.286441   3.370597
    35  O    2.919858   2.319827   3.711251   2.770043   3.924518
    36  O    5.134349   4.610187   2.607626   4.839553   3.395888
                   31         32         33         34         35
    31  N    0.000000
    32  N    2.309926   0.000000
    33  N    4.427675   4.284290   0.000000
    34  O    4.690247   2.884007   3.366995   0.000000
    35  O    6.023310   5.636434   2.264933   4.321412   0.000000
    36  O    5.556866   4.198137   3.007490   2.254761   2.618976
                   36
    36  O    0.000000
 Framework group  C1[X(C9H19N5O3)]
 Deg. of freedom   102
                         Standard orientation:                         
 ---------------------------------------------------------------------
 Center     Atomic      Atomic             Coordinates (Angstroms)
 Number     Number       Type             X           Y           Z
 ---------------------------------------------------------------------
      1          6           0        2.121467   -1.259247    0.554035
      2          6           0       -2.192612   -0.794526   -0.641181
      3          6           0       -1.688674   -1.515666    0.653464
      4          6           0       -0.392604    2.500040    0.051130
      5          6           0       -2.539503   -1.180603    1.866190
      6          6           0        2.609124    1.284641   -0.051785
      7          6           0        2.392651    0.220285    1.059650
      8          6           0        0.712855   -1.656693    0.182273
      9          6           0        1.509815    1.447565   -1.083230
     10          1           0       -2.366954    1.902936   -0.465872
     11          1           0       -0.923605   -1.941998   -1.475060
     12          1           0       -2.152164   -1.639355    2.796030
     13          1           0       -3.601264   -1.429370    1.777760
     14          1           0       -2.452910   -0.099970    2.036420
     15          1           0       -1.674527   -2.601686    0.498657
     16          1           0       -0.159401   -0.116281    1.049740
     17          1           0       -2.070700    3.429685    0.201081
     18          1           0        1.062629    3.037036    1.188830
     19          1           0        1.657067    2.336864   -1.748380
     20          1           0        3.995835   -1.653243   -0.117458
     21          1           0        1.622482    0.560459   -1.748180
     22          1           0        3.556544    1.130909   -0.609642
     23          1           0        2.719937    2.287561    0.423889
     24          1           0        1.630352    0.541868    1.786620
     25          1           0        3.363761    0.172132    1.592340
     26          1           0        2.380555   -1.926238    1.417970
     27          1           0        2.754193   -2.493769   -0.899435
     28          1           0       -0.471649    1.029980   -1.327420
     29          7           0        3.057846   -1.608180   -0.516845
     30          7           0        0.131324    1.401759   -0.598530
     31          7           0        0.108882    3.286599    0.916872
     32          7           0       -1.706012    2.692014   -0.382508
     33          7           0       -0.283479   -1.123540    0.949065
     34          8           0       -2.985569    0.119201   -0.629212
     35          8           0        0.444061   -2.509252   -0.688130
     36          8           0       -1.611643   -1.277806   -1.744850
 ---------------------------------------------------------------------
 Rotational constants (GHZ):           0.5206441           0.4611047           0.3100864
 ======================================================================================================
                                       Pseudopotential Parameters
 ======================================================================================================
  Center     Atomic      Valence      Angular      Power
  Number     Number     Electrons     Momentum     of R      Exponent        Coefficient   SO-Coeffient
 ======================================================================================================
    1          6            6
                                      G and up 
                                                     0        0.0000010       -0.00007288    0.00000000
                                                     2        0.1200000        0.10466671    0.00000000
                                                     2        0.1400000       -0.65716157    0.00000000
                                                     2        0.1600000        1.18890794    0.00000000
                                                     2        0.2000000       -1.25772850    0.00000000
                                                     2        0.2600000        1.01188378    0.00000000
                                                     2        0.4000000       -1.09380874    0.00000000
                                                     2        0.5000000        0.96944888    0.00000000
                                                     2        1.0000000       -0.79256938    0.00000000
                                                     2        3.0000000        1.06443276    0.00000000
                                      S - G
                                                     0        0.0000010       -0.00635295    0.00000000
                                                     2        0.1200000        0.16918955    0.00000000
                                                     2        0.1600000       -0.38862576    0.00000000
                                                     2        0.2800000        0.25638263    0.00000000
                                                     2        0.5000000        0.29628419    0.00000000
                                                     2        0.9000000       -0.28791512    0.00000000
                                      P - G
                                                     0        0.0000010       -0.04756931    0.00000000
                                                     2        0.1200000        0.28430375    0.00000000
                                                     2        0.1600000       -0.69640032    0.00000000
                                                     2        0.2600000        1.13005668    0.00000000
                                                     2        0.4000000       -1.31433324    0.00000000
                                                     2        0.7000000        0.91526469    0.00000000
                                      D - G
                                                     0        0.0000010       -0.11496411    0.00000000
                                                     2        0.1200000        0.16620776    0.00000000
                                                     2        0.1800000       -0.30959819    0.00000000
                                                     2        0.3000000        0.16621458    0.00000000
                                                     2        0.6000000        0.27350556    0.00000000
                                      F - G
                                                     0        0.0000010        0.12037550    0.00000000
                                                     2        0.1200000       -0.48737077    0.00000000
                                                     2        0.1400000        0.58315350    0.00000000
                                                     2        0.3000000        0.00005188    0.00000000
                                                     2        0.5000000       -1.16063549    0.00000000
                                                     2        0.8000000        2.09053308    0.00000000
    2          6            6
                                      G and up 
                                                     0        0.0000010       -0.00007288    0.00000000
                                                     2        0.1200000        0.10466671    0.00000000
                                                     2        0.1400000       -0.65716157    0.00000000
                                                     2        0.1600000        1.18890794    0.00000000
                                                     2        0.2000000       -1.25772850    0.00000000
                                                     2        0.2600000        1.01188378    0.00000000
                                                     2        0.4000000       -1.09380874    0.00000000
                                                     2        0.5000000        0.96944888    0.00000000
                                                     2        1.0000000       -0.79256938    0.00000000
                                                     2        3.0000000        1.06443276    0.00000000
                                      S - G
                                                     0        0.0000010       -0.00635295    0.00000000
                                                     2        0.1200000        0.16918955    0.00000000
                                                     2        0.1600000       -0.38862576    0.00000000
                                                     2        0.2800000        0.25638263    0.00000000
                                                     2        0.5000000        0.29628419    0.00000000
                                                     2        0.9000000       -0.28791512    0.00000000
                                      P - G
                                                     0        0.0000010       -0.04756931    0.00000000
                                                     2        0.1200000        0.28430375    0.00000000
                                                     2        0.1600000       -0.69640032    0.00000000
                                                     2        0.2600000        1.13005668    0.00000000
                                                     2        0.4000000       -1.31433324    0.00000000
                                                     2        0.7000000        0.91526469    0.00000000
                                      D - G
                                                     0        0.0000010       -0.11496411    0.00000000
                                                     2        0.1200000        0.16620776    0.00000000
                                                     2        0.1800000       -0.30959819    0.00000000
                                                     2        0.3000000        0.16621458    0.00000000
                                                     2        0.6000000        0.27350556    0.00000000
                                      F - G
                                                     0        0.0000010        0.12037550    0.00000000
                                                     2        0.1200000       -0.48737077    0.00000000
                                                     2        0.1400000        0.58315350    0.00000000
                                                     2        0.3000000        0.00005188    0.00000000
                                                     2        0.5000000       -1.16063549    0.00000000
                                                     2        0.8000000        2.09053308    0.00000000
    3          6            6
                                      G and up 
                                                     0        0.0000010       -0.00007288    0.00000000
                                                     2        0.1200000        0.10466671    0.00000000
                                                     2        0.1400000       -0.65716157    0.00000000
                                                     2        0.1600000        1.18890794    0.00000000
                                                     2        0.2000000       -1.25772850    0.00000000
                                                     2        0.2600000        1.01188378    0.00000000
                                                     2        0.4000000       -1.09380874    0.00000000
                                                     2        0.5000000        0.96944888    0.00000000
                                                     2        1.0000000       -0.79256938    0.00000000
                                                     2        3.0000000        1.06443276    0.00000000
                                      S - G
                                                     0        0.0000010       -0.00635295    0.00000000
                                                     2        0.1200000        0.16918955    0.00000000
                                                     2        0.1600000       -0.38862576    0.00000000
                                                     2        0.2800000        0.25638263    0.00000000
                                                     2        0.5000000        0.29628419    0.00000000
                                                     2        0.9000000       -0.28791512    0.00000000
                                      P - G
                                                     0        0.0000010       -0.04756931    0.00000000
                                                     2        0.1200000        0.28430375    0.00000000
                                                     2        0.1600000       -0.69640032    0.00000000
                                                     2        0.2600000        1.13005668    0.00000000
                                                     2        0.4000000       -1.31433324    0.00000000
                                                     2        0.7000000        0.91526469    0.00000000
                                      D - G
                                                     0        0.0000010       -0.11496411    0.00000000
                                                     2        0.1200000        0.16620776    0.00000000
                                                     2        0.1800000       -0.30959819    0.00000000
                                                     2        0.3000000        0.16621458    0.00000000
                                                     2        0.6000000        0.27350556    0.00000000
                                      F - G
                                                     0        0.0000010        0.12037550    0.00000000
                                                     2        0.1200000       -0.48737077    0.00000000
                                                     2        0.1400000        0.58315350    0.00000000
                                                     2        0.3000000        0.00005188    0.00000000
                                                     2        0.5000000       -1.16063549    0.00000000
                                                     2        0.8000000        2.09053308    0.00000000
    4          6            6
                                      G and up 
                                                     0        0.0000010       -0.00007288    0.00000000
                                                     2        0.1200000        0.10466671    0.00000000
                                                     2        0.1400000       -0.65716157    0.00000000
                                                     2        0.1600000        1.18890794    0.00000000
                                                     2        0.2000000       -1.25772850    0.00000000
                                                     2        0.2600000        1.01188378    0.00000000
                                                     2        0.4000000       -1.09380874    0.00000000
                                                     2        0.5000000        0.96944888    0.00000000
                                                     2        1.0000000       -0.79256938    0.00000000
                                                     2        3.0000000        1.06443276    0.00000000
                                      S - G
                                                     0        0.0000010       -0.00635295    0.00000000
                                                     2        0.1200000        0.16918955    0.00000000
                                                     2        0.1600000       -0.38862576    0.00000000
                                                     2        0.2800000        0.25638263    0.00000000
                                                     2        0.5000000        0.29628419    0.00000000
                                                     2        0.9000000       -0.28791512    0.00000000
                                      P - G
                                                     0        0.0000010       -0.04756931    0.00000000
                                                     2        0.1200000        0.28430375    0.00000000
                                                     2        0.1600000       -0.69640032    0.00000000
                                                     2        0.2600000        1.13005668    0.00000000
                                                     2        0.4000000       -1.31433324    0.00000000
                                                     2        0.7000000        0.91526469    0.00000000
                                      D - G
                                                     0        0.0000010       -0.11496411    0.00000000
                                                     2        0.1200000        0.16620776    0.00000000
                                                     2        0.1800000       -0.30959819    0.00000000
                                                     2        0.3000000        0.16621458    0.00000000
                                                     2        0.6000000        0.27350556    0.00000000
                                      F - G
                                                     0        0.0000010        0.12037550    0.00000000
                                                     2        0.1200000       -0.48737077    0.00000000
                                                     2        0.1400000        0.58315350    0.00000000
                                                     2        0.3000000        0.00005188    0.00000000
                                                     2        0.5000000       -1.16063549    0.00000000
                                                     2        0.8000000        2.09053308    0.00000000
    5          6            6
                                      G and up 
                                                     0        0.0000010       -0.00007288    0.00000000
                                                     2        0.1200000        0.10466671    0.00000000
                                                     2        0.1400000       -0.65716157    0.00000000
                                                     2        0.1600000        1.18890794    0.00000000
                                                     2        0.2000000       -1.25772850    0.00000000
                                                     2        0.2600000        1.01188378    0.00000000
                                                     2        0.4000000       -1.09380874    0.00000000
                                                     2        0.5000000        0.96944888    0.00000000
                                                     2        1.0000000       -0.79256938    0.00000000
                                                     2        3.0000000        1.06443276    0.00000000
                                      S - G
                                                     0        0.0000010       -0.00635295    0.00000000
                                                     2        0.1200000        0.16918955    0.00000000
                                                     2        0.1600000       -0.38862576    0.00000000
                                                     2        0.2800000        0.25638263    0.00000000
                                                     2        0.5000000        0.29628419    0.00000000
                                                     2        0.9000000       -0.28791512    0.00000000
                                      P - G
                                                     0        0.0000010       -0.04756931    0.00000000
                                                     2        0.1200000        0.28430375    0.00000000
                                                     2        0.1600000       -0.69640032    0.00000000
                                                     2        0.2600000        1.13005668    0.00000000
                                                     2        0.4000000       -1.31433324    0.00000000
                                                     2        0.7000000        0.91526469    0.00000000
                                      D - G
                                                     0        0.0000010       -0.11496411    0.00000000
                                                     2        0.1200000        0.16620776    0.00000000
                                                     2        0.1800000       -0.30959819    0.00000000
                                                     2        0.3000000        0.16621458    0.00000000
                                                     2        0.6000000        0.27350556    0.00000000
                                      F - G
                                                     0        0.0000010        0.12037550    0.00000000
                                                     2        0.1200000       -0.48737077    0.00000000
                                                     2        0.1400000        0.58315350    0.00000000
                                                     2        0.3000000        0.00005188    0.00000000
                                                     2        0.5000000       -1.16063549    0.00000000
                                                     2        0.8000000        2.09053308    0.00000000
    6          6            6
                                      G and up 
                                                     0        0.0000010       -0.00007288    0.00000000
                                                     2        0.1200000        0.10466671    0.00000000
                                                     2        0.1400000       -0.65716157    0.00000000
                                                     2        0.1600000        1.18890794    0.00000000
                                                     2        0.2000000       -1.25772850    0.00000000
[...]
                                                     2        0.1200000       -0.01803391    0.00000000
                                                     2        0.1400000        0.04014195    0.00000000
                                                     2        0.2000000       -0.02692147    0.00000000
                                                     2        0.2800000       -0.04241843    0.00000000
                                                     2        0.4000000        0.15412145    0.00000000
                                                     2        0.7000000       -0.40587006    0.00000000
                                                     2        1.1000000        1.75666647    0.00000000
                                      S - G
                                                     0        0.0000010       -0.01088195    0.00000000
                                                     2        0.1200000        0.09867335    0.00000000
                                                     2        0.2400000       -0.08484177    0.00000000
                                                     2        0.6000000       -1.39011554    0.00000000
                                                     2        2.5000000        1.36225910    0.00000000
                                      P - G
                                                     0        0.0000010        0.05874028    0.00000000
                                                     2        0.1200000       -0.11700340    0.00000000
                                                     2        0.1600000        0.08847775    0.00000000
                                                     2        0.3000000        0.04709907    0.00000000
                                                     2        1.2000000       -1.80388338    0.00000000
                                      D - G
                                                     0        0.0000010       -0.00541262    0.00000000
                                                     2        0.1200000       -0.26547906    0.00000000
                                                     2        0.1600000        1.04289661    0.00000000
                                                     2        0.2400000       -1.92800913    0.00000000
                                                     2        0.4000000        2.26691633    0.00000000
                                                     2        0.7000000       -1.97391482    0.00000000
                                      F - G
                                                     0        0.0000010       -0.02604870    0.00000000
                                                     2        0.1200000        0.37362552    0.00000000
                                                     2        0.1600000       -1.43526367    0.00000000
                                                     2        0.2200000        1.76778079    0.00000000
                                                     2        0.5000000       -1.90846303    0.00000000
 ======================================================================================================
   562 basis functions,   940 primitive gaussians,   596 cartesian basis functions
    66 alpha electrons       66 beta electrons
       nuclear repulsion energy      1393.4810890900 Hartrees.
 NAtoms=   36 NActive=   36 NUniq=   36 SFac= 1.00D+00 NAtFMM=   60 NAOKFM=F Big=F
   1 Symmetry operations used in ECPInt.
 ECPInt:  NShTT=   30876 NPrTT=  138372 LenC2=   30491 LenP2D=   95651.
 LDataN:  DoStor=T MaxTD1= 6 Len=  172
 Initial guess from the checkpoint file:  "ANI1ccx_1786_conf16_mol2.chk"
 B after Tr=     0.000001   -0.000002   -0.000000
         Rot=    1.000000   -0.000000   -0.000000    0.000001 Ang=   0.00 deg.
 >>>>>>>>>> Convergence criterion not met.
 SCF Done:  E(RHF) =  -849.709086526     A.U. after    2 cycles
            NFock=  1  Conv=0.28D-01     -V/T= 2.0018

 **********************************************************************

            Population analysis using the SCF Density.

 **********************************************************************

 Orbital symmetries:
       Occupied  (A) (A) (A) (A) (A) (A) (A) (A) (A) (A) (A) (A)
                 (A) (A) (A) (A) (A) (A) (A) (A) (A) (A) (A) (A)
                 (A) (A) (A) (A) (A) (A) (A) (A) (A) (A) (A) (A)
                 (A) (A) (A) (A) (A) (A) (A) (A) (A) (A) (A) (A)
                 (A) (A) (A) (A) (A) (A) (A) (A) (A) (A) (A) (A)
                 (A) (A) (A) (A) (A) (A)
       Virtual   (A) (A) (A) (A) (A) (A) (A) (A) (A) (A) (A) (A)
                 (A) (A) (A) (A) (A) (A) (A) (A) (A) (A) (A) (A)
                 (A) (A) (A) (A) (A) (A) (A) (A) (A) (A) (A) (A)
                 (A) (A) (A) (A) (A) (A) (A) (A) (A) (A) (A) (A)
                 (A) (A) (A) (A) (A) (A) (A) (A) (A) (A) (A) (A)
                 (A) (A) (A) (A) (A) (A) (A) (A) (A) (A) (A) (A)
                 (A) (A) (A) (A) (A) (A) (A) (A) (A) (A) (A) (A)
                 (A) (A) (A) (A) (A) (A) (A) (A) (A) (A) (A) (A)
                 (A) (A) (A) (A) (A) (A) (A) (A) (A) (A) (A) (A)
                 (A) (A) (A) (A) (A) (A) (A) (A) (A) (A) (A) (A)
                 (A) (A) (A) (A) (A) (A) (A) (A) (A) (A) (A) (A)
                 (A) (A) (A) (A) (A) (A) (A) (A) (A) (A) (A) (A)
                 (A) (A) (A) (A) (A) (A) (A) (A) (A) (A) (A) (A)
                 (A) (A) (A) (A) (A) (A) (A) (A) (A) (A) (A) (A)
                 (A) (A) (A) (A) (A) (A) (A) (A) (A) (A) (A) (A)
                 (A) (A) (A) (A) (A) (A) (A) (A) (A) (A) (A) (A)
                 (A) (A) (A) (A) (A) (A) (A) (A) (A) (A) (A) (A)
                 (A) (A) (A) (A) (A) (A) (A) (A) (A) (A) (A) (A)
                 (A) (A) (A) (A) (A) (A) (A) (A) (A) (A) (A) (A)
                 (A) (A) (A) (A) (A) (A) (A) (A) (A) (A) (A) (A)
                 (A) (A) (A) (A) (A) (A) (A) (A) (A) (A) (A) (A)
                 (A) (A) (A) (A) (A) (A) (A) (A) (A) (A) (A) (A)
                 (A) (A) (A) (A) (A) (A) (A) (A) (A) (A) (A) (A)
                 (A) (A) (A) (A) (A) (A) (A) (A) (A) (A) (A) (A)
                 (A) (A) (A) (A) (A) (A) (A) (A) (A) (A) (A) (A)
                 (A) (A) (A) (A) (A) (A) (A) (A) (A) (A) (A) (A)
                 (A) (A) (A) (A) (A) (A) (A) (A) (A) (A) (A) (A)
                 (A) (A) (A) (A) (A) (A) (A) (A) (A) (A) (A) (A)
                 (A) (A) (A) (A) (A) (A) (A) (A) (A) (A) (A) (A)
                 (A) (A) (A) (A) (A) (A) (A) (A) (A) (A) (A) (A)
                 (A) (A) (A) (A) (A) (A) (A) (A) (A) (A) (A) (A)
                 (A) (A) (A) (A) (A) (A) (A) (A) (A) (A) (A) (A)
                 (A) (A) (A) (A) (A) (A) (A) (A) (A) (A) (A) (A)
                 (A) (A) (A) (A) (A) (A) (A) (A) (A) (A) (A) (A)
                 (A) (A) (A) (A) (A) (A) (A) (A) (A) (A) (A) (A)
                 (A) (A) (A) (A) (A) (A) (A) (A) (A) (A) (A) (A)
                 (A) (A) (A) (A) (A) (A) (A) (A) (A) (A) (A) (A)
                 (A) (A) (A) (A) (A) (A) (A) (A) (A) (A) (A) (A)
                 (A) (A) (A) (A) (A) (A) (A) (A) (A) (A) (A) (A)
                 (A) (A) (A) (A) (A) (A) (A) (A) (A) (A) (A) (A)
                 (A) (A) (A) (A) (A) (A) (A) (A) (A) (A) (A) (A)
                 (A) (A) (A) (A)
 The electronic state is 1-A.
 Alpha  occ. eigenvalues --  -20.59695 -20.55824 -20.55272 -15.55494 -15.51937
 Alpha  occ. eigenvalues --  -15.50768 -15.48729 -15.45707 -11.41077 -11.39946
 Alpha  occ. eigenvalues --  -11.34095 -11.31665 -11.31018 -11.27987 -11.27338
 Alpha  occ. eigenvalues --  -11.25424 -11.25040  -1.55070  -1.49857  -1.46705
 Alpha  occ. eigenvalues --   -1.29817  -1.27442  -1.21445  -1.18589  -1.13773
 Alpha  occ. eigenvalues --   -1.08149  -1.06684  -0.99568  -0.93906  -0.91138
 Alpha  occ. eigenvalues --   -0.86122  -0.83361  -0.82731  -0.80098  -0.78108
 Alpha  occ. eigenvalues --   -0.76339  -0.75044  -0.71785  -0.70997  -0.69846
 Alpha  occ. eigenvalues --   -0.68534  -0.68385  -0.66627  -0.65127  -0.63516
 Alpha  occ. eigenvalues --   -0.62834  -0.62737  -0.61230  -0.60162  -0.58906
 Alpha  occ. eigenvalues --   -0.57637  -0.57288  -0.55249  -0.54812  -0.53521
 Alpha  occ. eigenvalues --   -0.52734  -0.51970  -0.50214  -0.49497  -0.48168
 Alpha  occ. eigenvalues --   -0.46919  -0.45957  -0.44959  -0.43999  -0.43407
 Alpha  occ. eigenvalues --   -0.40267
 Alpha virt. eigenvalues --    0.02148   0.02963   0.03452   0.03650   0.04008
 Alpha virt. eigenvalues --    0.04834   0.04923   0.05629   0.05898   0.07050
 Alpha virt. eigenvalues --    0.07432   0.07972   0.08219   0.08483   0.08648
 Alpha virt. eigenvalues --    0.09561   0.10103   0.10690   0.11096   0.11511
 Alpha virt. eigenvalues --    0.11696   0.12664   0.13121   0.13256   0.13852
 Alpha virt. eigenvalues --    0.13995   0.14194   0.14416   0.14953   0.15536
 Alpha virt. eigenvalues --    0.15711   0.15899   0.16265   0.16646   0.17113
 Alpha virt. eigenvalues --    0.17694   0.17770   0.18151   0.18291   0.18542
 Alpha virt. eigenvalues --    0.18958   0.19030   0.19540   0.19993   0.20166
 Alpha virt. eigenvalues --    0.20279   0.20694   0.20925   0.21411   0.21901
 Alpha virt. eigenvalues --    0.22369   0.22562   0.23318   0.23545   0.23874
 Alpha virt. eigenvalues --    0.24286   0.24715   0.25191   0.25936   0.26554
 Alpha virt. eigenvalues --    0.26751   0.26886   0.27625   0.27976   0.28369
 Alpha virt. eigenvalues --    0.28509   0.29283   0.29589   0.30068   0.30482
 Alpha virt. eigenvalues --    0.30637   0.31243   0.31809   0.32113   0.32184
 Alpha virt. eigenvalues --    0.32651   0.33299   0.33591   0.34126   0.34424
 Alpha virt. eigenvalues --    0.34800   0.35463   0.35655   0.36057   0.36568
 Alpha virt. eigenvalues --    0.36822   0.37442   0.37779   0.37837   0.37940
 Alpha virt. eigenvalues --    0.38358   0.38927   0.39257   0.39948   0.40141
 Alpha virt. eigenvalues --    0.40751   0.41067   0.41315   0.41877   0.42072
 Alpha virt. eigenvalues --    0.43053   0.43346   0.43830   0.44006   0.44277
 Alpha virt. eigenvalues --    0.44416   0.44939   0.45692   0.45936   0.46875
 Alpha virt. eigenvalues --    0.47386   0.47688   0.47943   0.48566   0.48850
 Alpha virt. eigenvalues --    0.49503   0.50027   0.50242   0.50394   0.50908
 Alpha virt. eigenvalues --    0.51042   0.51893   0.52318   0.52806   0.53625
 Alpha virt. eigenvalues --    0.54360   0.54544   0.55231   0.55457   0.55936
 Alpha virt. eigenvalues --    0.56224   0.56422   0.56570   0.56872   0.57068
 Alpha virt. eigenvalues --    0.57630   0.58525   0.59407   0.59416   0.59696
 Alpha virt. eigenvalues --    0.59896   0.60076   0.60350   0.60485   0.61092
 Alpha virt. eigenvalues --    0.61599   0.62242   0.62670   0.63220   0.64120
 Alpha virt. eigenvalues --    0.64658   0.65381   0.65657   0.65951   0.66357
 Alpha virt. eigenvalues --    0.67558   0.67633   0.68512   0.68597   0.68946
 Alpha virt. eigenvalues --    0.70157   0.70363   0.70766   0.70952   0.71469
 Alpha virt. eigenvalues --    0.71955   0.72465   0.73163   0.73596   0.73954
 Alpha virt. eigenvalues --    0.74221   0.74694   0.75300   0.75950   0.76644
 Alpha virt. eigenvalues --    0.77325   0.77650   0.77746   0.78823   0.78915
 Alpha virt. eigenvalues --    0.79334   0.79853   0.80332   0.80911   0.81288
 Alpha virt. eigenvalues --    0.81708   0.81890   0.82274   0.82679   0.83275
 Alpha virt. eigenvalues --    0.83457   0.84035   0.84965   0.85582   0.86130
 Alpha virt. eigenvalues --    0.86633   0.87193   0.87868   0.88128   0.88208
 Alpha virt. eigenvalues --    0.89167   0.89280   0.89813   0.90789   0.91250
 Alpha virt. eigenvalues --    0.92010   0.92600   0.92876   0.93578   0.94140
 Alpha virt. eigenvalues --    0.94304   0.94585   0.95220   0.96033   0.96247
 Alpha virt. eigenvalues --    0.96678   0.97591   0.98282   0.99428   1.00083
 Alpha virt. eigenvalues --    1.00667   1.01150   1.01469   1.01704   1.02392
 Alpha virt. eigenvalues --    1.03134   1.03807   1.04314   1.04942   1.05714
 Alpha virt. eigenvalues --    1.06150   1.06619   1.06780   1.07990   1.08765
 Alpha virt. eigenvalues --    1.08952   1.10952   1.11268   1.12148   1.12904
 Alpha virt. eigenvalues --    1.13822   1.14658   1.15976   1.16557   1.17290
 Alpha virt. eigenvalues --    1.17408   1.17798   1.18947   1.20117   1.20781
 Alpha virt. eigenvalues --    1.22574   1.22663   1.23790   1.23946   1.24286
 Alpha virt. eigenvalues --    1.26084   1.26609   1.27281   1.28036   1.28720
 Alpha virt. eigenvalues --    1.29768   1.31332   1.32827   1.32898   1.33659
 Alpha virt. eigenvalues --    1.34248   1.35040   1.36460   1.36812   1.38174
 Alpha virt. eigenvalues --    1.38811   1.39226   1.40942   1.41821   1.43077
 Alpha virt. eigenvalues --    1.43977   1.44998   1.45963   1.46473   1.47374
 Alpha virt. eigenvalues --    1.47523   1.48264   1.50847   1.51807   1.52139
 Alpha virt. eigenvalues --    1.52932   1.54136   1.54553   1.54932   1.57077
 Alpha virt. eigenvalues --    1.57980   1.59320   1.60113   1.61133   1.61742
 Alpha virt. eigenvalues --    1.62805   1.64731   1.64992   1.66845   1.67415
 Alpha virt. eigenvalues --    1.69209   1.69511   1.70256   1.71594   1.73400
 Alpha virt. eigenvalues --    1.74742   1.74940   1.76527   1.76543   1.77292
 Alpha virt. eigenvalues --    1.78010   1.78575   1.80153   1.80777   1.81970
 Alpha virt. eigenvalues --    1.82431   1.83126   1.84738   1.86337   1.86949
 Alpha virt. eigenvalues --    1.87664   1.88643   1.88985   1.90641   1.91409
 Alpha virt. eigenvalues --    1.93003   1.93765   1.94665   1.95511   1.96346
 Alpha virt. eigenvalues --    1.96591   1.98271   1.99444   1.99916   2.01207
 Alpha virt. eigenvalues --    2.01786   2.02531   2.02858   2.03660   2.04944
 Alpha virt. eigenvalues --    2.05444   2.06262   2.07787   2.08236   2.08959
 Alpha virt. eigenvalues --    2.09803   2.10059   2.10309   2.11023   2.12560
 Alpha virt. eigenvalues --    2.13270   2.14869   2.15271   2.15681   2.16359
 Alpha virt. eigenvalues --    2.16625   2.16944   2.18494   2.19087   2.20350
 Alpha virt. eigenvalues --    2.20597   2.20979   2.21369   2.21442   2.22366
 Alpha virt. eigenvalues --    2.23125   2.23595   2.24341   2.26456   2.26960
 Alpha virt. eigenvalues --    2.27586   2.28139   2.28946   2.29226   2.30206
 Alpha virt. eigenvalues --    2.30834   2.31361   2.32298   2.33471   2.34969
 Alpha virt. eigenvalues --    2.35189   2.36263   2.37182   2.38145   2.38764
 Alpha virt. eigenvalues --    2.39175   2.40255   2.40707   2.41855   2.42414
 Alpha virt. eigenvalues --    2.43227   2.44418   2.45266   2.45645   2.46451
 Alpha virt. eigenvalues --    2.46955   2.48009   2.48556   2.48783   2.49577
 Alpha virt. eigenvalues --    2.50604   2.51639   2.53183   2.53513   2.54826
 Alpha virt. eigenvalues --    2.55423   2.56449   2.57413   2.57535   2.58482
 Alpha virt. eigenvalues --    2.58891   2.59563   2.60828   2.61376   2.63627
 Alpha virt. eigenvalues --    2.64002   2.64748   2.65042   2.67509   2.68985
 Alpha virt. eigenvalues --    2.69354   2.71208   2.72211   2.73219   2.73561
 Alpha virt. eigenvalues --    2.73760   2.76226   2.77141   2.77496   2.78710
 Alpha virt. eigenvalues --    2.80278   2.80991   2.81706   2.83716   2.83769
 Alpha virt. eigenvalues --    2.86054   2.87987   2.89029   2.89998   2.90978
 Alpha virt. eigenvalues --    2.92117   2.92398   2.95649   2.97905   2.98896
 Alpha virt. eigenvalues --    3.01035   3.04162   3.05286   3.07546   3.08516
 Alpha virt. eigenvalues --    3.10991   3.14356   3.15057   3.16870   3.18293
 Alpha virt. eigenvalues --    3.22059   3.22468   3.23402   3.24030   3.26988
 Alpha virt. eigenvalues --    3.29303   3.29618   3.32732   3.35018   3.38422
 Alpha virt. eigenvalues --    3.39137   3.40951   3.42655   3.49909   3.51538
 Alpha virt. eigenvalues --    3.53716   3.57016   3.59438   3.62377   3.63952
 Alpha virt. eigenvalues --    3.75709   3.85556   3.90621   3.92820   3.94510
 Alpha virt. eigenvalues --    3.97957   3.99760   4.00881   4.02856   4.04311
 Alpha virt. eigenvalues --    4.06601   4.11698   4.12483   4.21329   4.22136
 Alpha virt. eigenvalues --    4.24913   4.29028   4.31971   4.41789   4.46969
 Alpha virt. eigenvalues --    4.59039
          Condensed to atoms (all electrons):
 Mulliken charges:
               1
     1  C   -1.550390
     2  C    2.547210
     3  C   -1.230470
     4  C   -3.832293
     5  C    0.010657
     6  C   -0.175820
     7  C   -0.003927
     8  C    0.024167
     9  C   -1.045531
    10  H    0.093703
    11  H    0.665363
    12  H    0.204589
    13  H    0.110638
    14  H    0.168744
    15  H   -0.002999
    16  H    0.393424
    17  H    0.208344
    18  H    0.120586
    19  H    0.108698
    20  H    0.256158
    21  H    0.248132
    22  H    0.214223
    23  H    0.237624
    24  H    0.192530
    25  H    0.158035
    26  H    0.314259
    27  H    0.266042
    28  H    0.233400
    29  N    0.498938
    30  N    0.707643
    31  N    1.495408
    32  N    1.084433
    33  N    1.982777
    34  O   -1.548835
    35  O   -1.673657
    36  O   -1.481803
 Sum of Mulliken charges =  -0.00000
 Mulliken charges with hydrogens summed into heavy atoms:
               1
     1  C   -1.236131
     2  C    2.547210
     3  C   -1.233469
     4  C   -3.832293
     5  C    0.494628
     6  C    0.276027
     7  C    0.346638
     8  C    0.024167
     9  C   -0.688701
    29  N    1.021138
    30  N    0.941042
    31  N    1.615995
    32  N    1.386480
    33  N    2.376200
    34  O   -1.548835
    35  O   -1.673657
    36  O   -0.816440
 Electronic spatial extent (au):  <R**2>=           3908.5773
 Charge=             -0.0000 electrons
 Dipole moment (field-independent basis, Debye):
    X=              3.6397    Y=             -4.1239    Z=              2.4671  Tot=              6.0283

 Test job not archived.
 1\1\GINC-SE105\SP\RHF\Aug-CC-pVDZ\C9H19N5O3\OHZDE\08-Apr-2025\0\\#t hf
  aug-cc-pvdz iop(5/13=1,5/36=2,99/5=2) pseudo=read geom=check guess=(r
 ead,tcheck) scf=(maxcycle=1)\\title\\0,1\C,0,2.12147,-1.25924,0.554035
 \C,0,-2.19261,-0.794531,-0.641181\C,0,-1.68867,-1.51567,0.653464\C,0,-
 0.392612,2.50004,0.0511304\C,0,-2.5395,-1.18061,1.86619\C,0,2.60912,1.
 28465,-0.0517852\C,0,2.39265,0.220293,1.05965\C,0,0.71286,-1.65669,0.1
 82273\C,0,1.50981,1.44757,-1.08323\H,0,-2.36696,1.90293,-0.465872\H,0,
 -0.9236,-1.942,-1.47506\H,0,-2.15216,-1.63936,2.79603\H,0,-3.60126,-1.
 42938,1.77776\H,0,-2.45291,-0.0999764,2.03642\H,0,-1.67452,-2.60169,0.
 498657\H,0,-0.159401,-0.116281,1.04974\H,0,-2.07071,3.42968,0.201081\H
 ,0,1.06262,3.03704,1.18883\H,0,1.65706,2.33687,-1.74838\H,0,3.99584,-1
 .65323,-0.117458\H,0,1.62248,0.560465,-1.74818\H,0,3.55654,1.13092,-0.
 609642\H,0,2.71993,2.28757,0.423889\H,0,1.63035,0.541874,1.78662\H,0,3
 .36376,0.172143,1.59234\H,0,2.38056,-1.92623,1.41797\H,0,2.7542,-2.493
 76,-0.899435\H,0,-0.471652,1.02998,-1.32742\N,0,3.05785,-1.60817,-0.51
 6845\N,0,0.13132,1.40176,-0.59853\N,0,0.108872,3.2866,0.916872\N,0,-1.
 70602,2.69201,-0.382508\N,0,-0.283476,-1.12354,0.949065\O,0,-2.98557,0
 .119193,-0.629212\O,0,0.444068,-2.50925,-0.68813\O,0,-1.61164,-1.27781
 ,-1.74485\\Version=ES64L-G16RevC.01\State=1-A\HF=-849.7090865\RMSD=2.8
 46e-02\Dipole=1.4319629,-1.622465,0.9706432\Quadrupole=8.6314398,-7.62
 20452,-1.0093947,2.0674687,-1.6632673,-5.1689184\PG=C01 [X(C9H19N5O3)]
 \\@


 Human beings, who are almost unique in having the
 ability to learn from the experience of others, are
 also remarkable for their apparent disinclination to do so.
                               -- Douglas Adams,
                                Last Chance to See
 Job cpu time:       0 days  0 hours 16 minutes  5.3 seconds.
 Elapsed time:       0 days  0 hours  1 minutes  4.9 seconds.
 File lengths (MBytes):  RWF=     43 Int=      0 D2E=      0 Chk=     40 Scr=      1
 Normal termination of Gaussian 16 at Tue Apr  8 21:25:47 2025.
