 Entering Gaussian System, Link 0=g16
 Input=ANI1ccx_488_conf2_mol2.gjf
 Output=ANI1ccx_488_conf2_mol2.log
 Initial command:
 /arc/software/Gaussian/g16.c01/l1.exe "/tmp/slurm/4838764/Gau-2143018.inp" -scrdir="/tmp/slurm/4838764/"
 Entering Link 1 = /arc/software/Gaussian/g16.c01/l1.exe PID=   2143035.
  
 Copyright (c) 1988-2019, Gaussian, Inc.  All Rights Reserved.
  
 This is part of the Gaussian(R) 16 program.  It is based on
 the Gaussian(R) 09 system (copyright 2009, Gaussian, Inc.),
 the Gaussian(R) 03 system (copyright 2003, Gaussian, Inc.),
 the Gaussian(R) 98 system (copyright 1998, Gaussian, Inc.),
 the Gaussian(R) 94 system (copyright 1995, Gaussian, Inc.),
 the Gaussian 92(TM) system (copyright 1992, Gaussian, Inc.),
 the Gaussian 90(TM) system (copyright 1990, Gaussian, Inc.),
 the Gaussian 88(TM) system (copyright 1988, Gaussian, Inc.),
 the Gaussian 86(TM) system (copyright 1986, Carnegie Mellon
 University), and the Gaussian 82(TM) system (copyright 1983,
 Carnegie Mellon University). Gaussian is a federally registered
 trademark of Gaussian, Inc.
  
 This software contains proprietary and confidential information,
 including trade secrets, belonging to Gaussian, Inc.
  
 This software is provided under written license and may be
 used, copied, transmitted, or stored only in accord with that
 written license.
  
 The following legend is applicable only to US Government
 contracts under FAR:
  
                    RESTRICTED RIGHTS LEGEND
  
 Use, reproduction and disclosure by the US Government is
 subject to restrictions as set forth in subparagraphs (a)
 and (c) of the Commercial Computer Software - Restricted
 Rights clause in FAR 52.227-19.
  
 Gaussian, Inc.
 340 Quinnipiac St., Bldg. 40, Wallingford CT 06492
  
  
 ---------------------------------------------------------------
 Warning -- This program may not be used in any manner that
 competes with the business of Gaussian, Inc. or will provide
 assistance to any competitor of Gaussian, Inc.  The licensee
 of this program is prohibited from giving any competitor of
 Gaussian, Inc. access to this program.  By using this program,
 the user acknowledges that Gaussian, Inc. is engaged in the
 business of creating and licensing software in the field of
 computational chemistry and represents and warrants to the
 licensee that it is not a competitor of Gaussian, Inc. and that
 it will not use this program in any manner prohibited above.
 ---------------------------------------------------------------
  

 Cite this work as:
 Gaussian 16, Revision C.01,
 M. J. Frisch, G. W. Trucks, H. B. Schlegel, G. E. Scuseria, 
 M. A. Robb, J. R. Cheeseman, G. Scalmani, V. Barone, 
 G. A. Petersson, H. Nakatsuji, X. Li, M. Caricato, A. V. Marenich, 
 J. Bloino, B. G. Janesko, R. Gomperts, B. Mennucci, H. P. Hratchian, 
 J. V. Ortiz, A. F. Izmaylov, J. L. Sonnenberg, D. Williams-Young, 
 F. Ding, F. Lipparini, F. Egidi, J. Goings, B. Peng, A. Petrone, 
 T. Henderson, D. Ranasinghe, V. G. Zakrzewski, J. Gao, N. Rega, 
 G. Zheng, W. Liang, M. Hada, M. Ehara, K. Toyota, R. Fukuda, 
 J. Hasegawa, M. Ishida, T. Nakajima, Y. Honda, O. Kitao, H. Nakai, 
 T. Vreven, K. Throssell, J. A. Montgomery, Jr., J. E. Peralta, 
 F. Ogliaro, M. J. Bearpark, J. J. Heyd, E. N. Brothers, K. N. Kudin, 
 V. N. Staroverov, T. A. Keith, R. Kobayashi, J. Normand, 
 K. Raghavachari, A. P. Rendell, J. C. Burant, S. S. Iyengar, 
 J. Tomasi, M. Cossi, J. M. Millam, M. Klene, C. Adamo, R. Cammi, 
 J. W. Ochterski, R. L. Martin, K. Morokuma, O. Farkas, 
 J. B. Foresman, and D. J. Fox, Gaussian, Inc., Wallingford CT, 2019.
 
 ******************************************
 Gaussian 16:  ES64L-G16RevC.01  3-Jul-2019
                 8-Apr-2025 
 ******************************************
 %nprocs=16
 Will use up to   16 processors via shared memory.
 %mem=30GB
 %chk=ANI1ccx_488_conf2_mol2.chk
 ----------------------------------------------------------------------
 #t hf aug-cc-pvdz symm=none int=(grid=ultrafine) guess=(read,tcheck) s
 table=(opt,rrhf)
 ----------------------------------------------------------------------
 -----
 title
 -----
 Symbolic Z-matrix:
 Charge =  0 Multiplicity = 1
 C                    -1.29097  -0.39442   0.16154 
 C                     0.07153   1.52827  -0.06862 
 H                    -2.85701  -0.17301  -1.04309 
 H                    -2.8505   -1.71277  -0.22533 
 N                    -2.46628  -0.78506  -0.362 
 N                    -0.9814    0.95027  -0.28955 
 N                     2.00639  -0.73847  -0.45186 
 N                     2.80243  -1.42046  -0.1155 
 O                     0.99526   2.18619   0.2568 
 O                    -0.55825  -1.05634   0.8986 
 
                    Distance matrix (angstroms):
                    1          2          3          4          5
     1  C    0.000000
     2  C    2.367723   0.000000
     3  H    1.988126   3.524248   0.000000
     4  H    2.078427   4.366597   1.743453   0.000000
     5  N    1.344640   3.446459   0.995569   1.013382   0.000000
     6  N    1.451717   1.221299   2.312463   3.254136   2.285055
     7  N    3.371531   3.004772   4.931729   4.958827   4.473815
     8  N    4.229118   4.019329   5.869056   5.661548   5.312607
     9  O    3.448978   1.179842   4.700588   5.497654   4.603642
    10  O    1.232182   2.830605   3.136038   2.636008   2.302888
                    6          7          8          9         10
     6  N    0.000000
     7  N    3.435851   0.000000
     8  N    4.468559   1.100880   0.000000
     9  O    2.394410   3.174620   4.051221   0.000000
    10  O    2.370064   2.915842   3.529178   3.652297   0.000000
 Symmetry turned off by external request.
 Rotational constants (GHZ):           2.4583061           1.4701038           0.9980088
   202 basis functions,   366 primitive gaussians,   218 cartesian basis functions
    29 alpha electrons       29 beta electrons
       nuclear repulsion energy       317.9634438518 Hartrees.
 NAtoms=   10 NActive=   10 NUniq=   10 SFac= 1.00D+00 NAtFMM=   60 NAOKFM=F Big=F
 ExpMin= 2.97D-02 ExpMax= 1.17D+04 ExpMxC= 4.01D+02 IAcc=3 IRadAn=         5 AccDes= 0.00D+00
 Harris functional with IExCor=  205 and IRadAn=       5 diagonalized for initial guess.
 HarFok:  IExCor=  205 AccDes= 0.00D+00 IRadAn=         5 IDoV= 1 UseB2=F ITyADJ=14
 ICtDFT=  3500011 ScaDFX=  1.000000  1.000000  1.000000  1.000000
 FoFCou: FMM=F IPFlag=           0 FMFlag=      100000 FMFlg1=           0
         NFxFlg=           0 DoJE=T BraDBF=F KetDBF=T FulRan=T
         wScrn=  0.000000 ICntrl=       500 IOpCl=  0 I1Cent=   200000004 NGrid=           0
         NMat0=    1 NMatS0=      1 NMatT0=    0 NMatD0=    1 NMtDS0=    0 NMtDT0=    0
 Symmetry not used in FoFCou.
 SCF Done:  E(RHF) =  -444.555786180     A.U. after   15 cycles
            NFock= 15  Conv=0.75D-08     -V/T= 2.0025

 **********************************************************************

            Population analysis using the SCF Density.

 **********************************************************************

 Alpha  occ. eigenvalues --  -20.65632 -20.55975 -15.68725 -15.68389 -15.62401
 Alpha  occ. eigenvalues --  -15.62244 -11.45378 -11.43955  -1.48995  -1.46462
 Alpha  occ. eigenvalues --   -1.41999  -1.29288  -1.24735  -0.92016  -0.78869
 Alpha  occ. eigenvalues --   -0.77449  -0.75578  -0.72683  -0.67918  -0.66047
 Alpha  occ. eigenvalues --   -0.64763  -0.62066  -0.61111  -0.60152  -0.59767
 Alpha  occ. eigenvalues --   -0.53072  -0.45949  -0.45488  -0.44371
 Alpha virt. eigenvalues --    0.02449   0.04843   0.07419   0.08202   0.09883
 Alpha virt. eigenvalues --    0.10010   0.11350   0.12246   0.12639   0.12876
 Alpha virt. eigenvalues --    0.13396   0.13873   0.14282   0.14883   0.15922
 Alpha virt. eigenvalues --    0.17452   0.17963   0.19165   0.19783   0.20690
 Alpha virt. eigenvalues --    0.21955   0.23594   0.24253   0.25947   0.26924
 Alpha virt. eigenvalues --    0.27669   0.28004   0.29034   0.30279   0.30467
 Alpha virt. eigenvalues --    0.30988   0.31988   0.32544   0.33760   0.35016
 Alpha virt. eigenvalues --    0.35477   0.36698   0.37247   0.38531   0.39282
 Alpha virt. eigenvalues --    0.40706   0.42776   0.45548   0.48527   0.50736
 Alpha virt. eigenvalues --    0.51415   0.52693   0.53638   0.56115   0.58784
 Alpha virt. eigenvalues --    0.60301   0.61519   0.62788   0.64325   0.64797
 Alpha virt. eigenvalues --    0.66225   0.67934   0.68731   0.70063   0.71714
 Alpha virt. eigenvalues --    0.75182   0.76706   0.76875   0.77381   0.79348
 Alpha virt. eigenvalues --    0.80852   0.81213   0.83047   0.85872   0.86246
 Alpha virt. eigenvalues --    0.87840   0.88694   0.90552   0.91894   0.92768
 Alpha virt. eigenvalues --    0.93920   0.96739   0.97078   0.99047   1.00517
 Alpha virt. eigenvalues --    1.00960   1.02688   1.05258   1.07386   1.10248
 Alpha virt. eigenvalues --    1.13055   1.14620   1.16089   1.17172   1.19196
 Alpha virt. eigenvalues --    1.20141   1.23397   1.24683   1.25737   1.28761
 Alpha virt. eigenvalues --    1.30549   1.33257   1.34847   1.36063   1.36409
 Alpha virt. eigenvalues --    1.40245   1.43432   1.45773   1.48122   1.52262
 Alpha virt. eigenvalues --    1.54189   1.54998   1.58164   1.63334   1.64970
 Alpha virt. eigenvalues --    1.69264   1.74447   1.75811   1.77859   1.79168
 Alpha virt. eigenvalues --    1.80862   1.83644   1.88661   1.94079   1.95460
 Alpha virt. eigenvalues --    2.01565   2.02223   2.10325   2.10622   2.15929
 Alpha virt. eigenvalues --    2.19450   2.21901   2.25276   2.26308   2.27734
 Alpha virt. eigenvalues --    2.29732   2.31867   2.33947   2.34238   2.36041
 Alpha virt. eigenvalues --    2.38669   2.45744   2.46797   2.56538   2.61368
 Alpha virt. eigenvalues --    2.65641   2.69132   2.69879   2.72351   2.72920
 Alpha virt. eigenvalues --    2.77698   2.82803   2.87400   2.95494   2.96863
 Alpha virt. eigenvalues --    2.97184   3.01588   3.08623   3.13760   3.18115
 Alpha virt. eigenvalues --    3.21000   3.26444   3.32469   3.42016   3.45344
 Alpha virt. eigenvalues --    3.51482   3.63533   3.65769   3.66300   3.73144
 Alpha virt. eigenvalues --    3.78110   3.82472   3.84516   3.86965   3.88707
 Alpha virt. eigenvalues --    4.02792   4.16439   4.20755
          Condensed to atoms (all electrons):
 Mulliken charges:
               1
     1  C    1.334703
     2  C    0.347576
     3  H    0.018071
     4  H   -0.000750
     5  N   -0.183017
     6  N   -0.405937
     7  N    0.046785
     8  N   -0.062141
     9  O   -0.419162
    10  O   -0.676126
 Sum of Mulliken charges =  -0.00000
 Mulliken charges with hydrogens summed into heavy atoms:
               1
     1  C    1.334703
     2  C    0.347576
     5  N   -0.165696
     6  N   -0.405937
     7  N    0.046785
     8  N   -0.062141
     9  O   -0.419162
    10  O   -0.676126
 Electronic spatial extent (au):  <R**2>=           1074.5922
 Charge=             -0.0000 electrons
 Dipole moment (field-independent basis, Debye):
    X=             -3.4999    Y=             -0.3551    Z=             -2.5279  Tot=              4.3320
 NROrb=    202 NOA=    29 NOB=    29 NVA=   173 NVB=   173

 **** Warning!!: The largest alpha MO coefficient is  0.25645428D+02

    12 initial guesses have been made.
 Iteration     1 Dimension    12 NMult     0 NNew     12
 New state      1 was old state      6
 Iteration     2 Dimension    24 NMult    12 NNew     12
 Iteration     3 Dimension    27 NMult    24 NNew      3
 Iteration     4 Dimension    30 NMult    27 NNew      3
 Iteration     5 Dimension    33 NMult    30 NNew      3
 Iteration     6 Dimension    36 NMult    33 NNew      3
 Iteration     7 Dimension    39 NMult    36 NNew      3
 ***********************************************************************
 Stability analysis using <AA,BB:AA,BB> singles matrix:
 ***********************************************************************
 Ground to excited state transition densities written to RWF  633

 Eigenvectors of the stability matrix:
 
 Excited state symmetry could not be determined.
 Eigenvector   1:      Singlet-?Sym  Eigenvalue= 0.2246812  <S**2>=0.000
      27 -> 37        -0.13160
      27 -> 39         0.14402
      27 -> 40         0.34329
      27 -> 41        -0.23408
      27 -> 43        -0.16202
      28 -> 37        -0.12243
      28 -> 38         0.28667
      28 -> 39        -0.13502
 The wavefunction is stable under the perturbations considered.
 The wavefunction is already stable.

 **********************************************************************

            Population analysis using the SCF Density.

 **********************************************************************

 Alpha  occ. eigenvalues --  -20.65632 -20.55975 -15.68725 -15.68389 -15.62401
 Alpha  occ. eigenvalues --  -15.62244 -11.45378 -11.43955  -1.48995  -1.46462
 Alpha  occ. eigenvalues --   -1.41999  -1.29288  -1.24735  -0.92016  -0.78869
 Alpha  occ. eigenvalues --   -0.77449  -0.75578  -0.72683  -0.67918  -0.66047
 Alpha  occ. eigenvalues --   -0.64763  -0.62066  -0.61111  -0.60152  -0.59767
 Alpha  occ. eigenvalues --   -0.53072  -0.45949  -0.45488  -0.44371
 Alpha virt. eigenvalues --    0.02449   0.04843   0.07419   0.08202   0.09883
 Alpha virt. eigenvalues --    0.10010   0.11350   0.12246   0.12639   0.12876
 Alpha virt. eigenvalues --    0.13396   0.13873   0.14282   0.14883   0.15922
 Alpha virt. eigenvalues --    0.17452   0.17963   0.19165   0.19783   0.20690
 Alpha virt. eigenvalues --    0.21955   0.23594   0.24253   0.25947   0.26924
 Alpha virt. eigenvalues --    0.27669   0.28004   0.29034   0.30279   0.30467
 Alpha virt. eigenvalues --    0.30988   0.31988   0.32544   0.33760   0.35016
 Alpha virt. eigenvalues --    0.35477   0.36698   0.37247   0.38531   0.39282
 Alpha virt. eigenvalues --    0.40706   0.42776   0.45548   0.48527   0.50736
 Alpha virt. eigenvalues --    0.51415   0.52693   0.53638   0.56115   0.58784
 Alpha virt. eigenvalues --    0.60301   0.61519   0.62788   0.64325   0.64797
 Alpha virt. eigenvalues --    0.66225   0.67934   0.68731   0.70063   0.71714
 Alpha virt. eigenvalues --    0.75182   0.76706   0.76875   0.77381   0.79348
 Alpha virt. eigenvalues --    0.80852   0.81213   0.83047   0.85872   0.86246
 Alpha virt. eigenvalues --    0.87840   0.88694   0.90552   0.91894   0.92768
 Alpha virt. eigenvalues --    0.93920   0.96739   0.97078   0.99047   1.00517
 Alpha virt. eigenvalues --    1.00960   1.02688   1.05258   1.07386   1.10248
 Alpha virt. eigenvalues --    1.13055   1.14620   1.16089   1.17172   1.19196
 Alpha virt. eigenvalues --    1.20141   1.23397   1.24683   1.25737   1.28761
 Alpha virt. eigenvalues --    1.30549   1.33257   1.34847   1.36063   1.36409
 Alpha virt. eigenvalues --    1.40245   1.43432   1.45773   1.48122   1.52262
 Alpha virt. eigenvalues --    1.54189   1.54998   1.58164   1.63334   1.64970
 Alpha virt. eigenvalues --    1.69264   1.74447   1.75811   1.77859   1.79168
 Alpha virt. eigenvalues --    1.80862   1.83644   1.88661   1.94079   1.95460
 Alpha virt. eigenvalues --    2.01565   2.02223   2.10325   2.10622   2.15929
 Alpha virt. eigenvalues --    2.19450   2.21901   2.25276   2.26308   2.27734
 Alpha virt. eigenvalues --    2.29732   2.31867   2.33947   2.34238   2.36041
 Alpha virt. eigenvalues --    2.38669   2.45744   2.46797   2.56538   2.61368
 Alpha virt. eigenvalues --    2.65641   2.69132   2.69879   2.72351   2.72920
 Alpha virt. eigenvalues --    2.77698   2.82803   2.87400   2.95494   2.96863
 Alpha virt. eigenvalues --    2.97184   3.01588   3.08623   3.13760   3.18115
 Alpha virt. eigenvalues --    3.21000   3.26444   3.32469   3.42016   3.45344
 Alpha virt. eigenvalues --    3.51482   3.63533   3.65769   3.66300   3.73144
 Alpha virt. eigenvalues --    3.78110   3.82472   3.84516   3.86965   3.88707
 Alpha virt. eigenvalues --    4.02792   4.16439   4.20755
          Condensed to atoms (all electrons):
 Mulliken charges:
               1
     1  C    1.334703
     2  C    0.347576
     3  H    0.018071
     4  H   -0.000750
     5  N   -0.183017
     6  N   -0.405937
     7  N    0.046785
     8  N   -0.062141
     9  O   -0.419162
    10  O   -0.676126
 Sum of Mulliken charges =  -0.00000
 Mulliken charges with hydrogens summed into heavy atoms:
               1
     1  C    1.334703
     2  C    0.347576
     5  N   -0.165696
     6  N   -0.405937
     7  N    0.046785
     8  N   -0.062141
     9  O   -0.419162
    10  O   -0.676126
 Electronic spatial extent (au):  <R**2>=           1074.5922
 Charge=             -0.0000 electrons
 Dipole moment (field-independent basis, Debye):
    X=             -3.4999    Y=             -0.3551    Z=             -2.5279  Tot=              4.3320
 Unable to Open any file for archive entry.
 1\1\GINC-SE331\Stability\RHF\Aug-CC-pVDZ\C2H2N4O2\OHZDE\08-Apr-2025\0\
 \#t hf aug-cc-pvdz symm=none int=(grid=ultrafine) guess=(read,tcheck) 
 stable=(opt,rrhf)\\title\\0,1\C,0,-1.29097,-0.394417,0.161544\C,0,0.07
 15321,1.52827,-0.0686157\H,0,-2.85701,-0.173013,-1.04309\H,0,-2.8505,-
 1.71277,-0.225328\N,0,-2.46628,-0.785064,-0.362001\N,0,-0.981403,0.950
 265,-0.289545\N,0,2.00639,-0.738468,-0.451863\N,0,2.80243,-1.42046,-0.
 115495\O,0,0.995259,2.18619,0.256801\O,0,-0.558245,-1.05634,0.898596\\
 Version=ES64L-G16RevC.01\HF=-444.5557862\RMSD=7.509e-09\Dipole=-1.3769
 658,-0.1396944,-0.9945659\Quadrupole=4.5525119,-2.746657,-1.8058549,2.
 0817296,1.8423661,1.4216485\PG=Unknown\\@
 The archive entry for this job was punched.


 DEPRESSION IS WAITING FOR YOUR SHIP TO COME IN,
 AND FINDING OUT IT'S THE TITANIC.
 Job cpu time:       0 days  0 hours  1 minutes 55.1 seconds.
 Elapsed time:       0 days  0 hours  0 minutes 13.7 seconds.
 File lengths (MBytes):  RWF=    224 Int=      0 D2E=      0 Chk=      6 Scr=      1
 Normal termination of Gaussian 16 at Tue Apr  8 21:42:52 2025.
 Initial command:
 /arc/software/Gaussian/g16.c01/l1.exe "/tmp/slurm/4838764/Gau-2143018.inp" -scrdir="/tmp/slurm/4838764/"
 Entering Link 1 = /arc/software/Gaussian/g16.c01/l1.exe PID=   2143565.
  
 Copyright (c) 1988-2019, Gaussian, Inc.  All Rights Reserved.
  
 This is part of the Gaussian(R) 16 program.  It is based on
 the Gaussian(R) 09 system (copyright 2009, Gaussian, Inc.),
 the Gaussian(R) 03 system (copyright 2003, Gaussian, Inc.),
 the Gaussian(R) 98 system (copyright 1998, Gaussian, Inc.),
 the Gaussian(R) 94 system (copyright 1995, Gaussian, Inc.),
 the Gaussian 92(TM) system (copyright 1992, Gaussian, Inc.),
 the Gaussian 90(TM) system (copyright 1990, Gaussian, Inc.),
 the Gaussian 88(TM) system (copyright 1988, Gaussian, Inc.),
 the Gaussian 86(TM) system (copyright 1986, Carnegie Mellon
 University), and the Gaussian 82(TM) system (copyright 1983,
 Carnegie Mellon University). Gaussian is a federally registered
 trademark of Gaussian, Inc.
  
 This software contains proprietary and confidential information,
 including trade secrets, belonging to Gaussian, Inc.
  
 This software is provided under written license and may be
 used, copied, transmitted, or stored only in accord with that
 written license.
  
 The following legend is applicable only to US Government
 contracts under FAR:
  
                    RESTRICTED RIGHTS LEGEND
  
 Use, reproduction and disclosure by the US Government is
 subject to restrictions as set forth in subparagraphs (a)
 and (c) of the Commercial Computer Software - Restricted
 Rights clause in FAR 52.227-19.
  
 Gaussian, Inc.
 340 Quinnipiac St., Bldg. 40, Wallingford CT 06492
  
  
 ---------------------------------------------------------------
 Warning -- This program may not be used in any manner that
 competes with the business of Gaussian, Inc. or will provide
 assistance to any competitor of Gaussian, Inc.  The licensee
 of this program is prohibited from giving any competitor of
 Gaussian, Inc. access to this program.  By using this program,
 the user acknowledges that Gaussian, Inc. is engaged in the
 business of creating and licensing software in the field of
 computational chemistry and represents and warrants to the
 licensee that it is not a competitor of Gaussian, Inc. and that
 it will not use this program in any manner prohibited above.
 ---------------------------------------------------------------
  

 Cite this work as:
 Gaussian 16, Revision C.01,
 M. J. Frisch, G. W. Trucks, H. B. Schlegel, G. E. Scuseria, 
 M. A. Robb, J. R. Cheeseman, G. Scalmani, V. Barone, 
 G. A. Petersson, H. Nakatsuji, X. Li, M. Caricato, A. V. Marenich, 
 J. Bloino, B. G. Janesko, R. Gomperts, B. Mennucci, H. P. Hratchian, 
 J. V. Ortiz, A. F. Izmaylov, J. L. Sonnenberg, D. Williams-Young, 
 F. Ding, F. Lipparini, F. Egidi, J. Goings, B. Peng, A. Petrone, 
 T. Henderson, D. Ranasinghe, V. G. Zakrzewski, J. Gao, N. Rega, 
 G. Zheng, W. Liang, M. Hada, M. Ehara, K. Toyota, R. Fukuda, 
 J. Hasegawa, M. Ishida, T. Nakajima, Y. Honda, O. Kitao, H. Nakai, 
 T. Vreven, K. Throssell, J. A. Montgomery, Jr., J. E. Peralta, 
 F. Ogliaro, M. J. Bearpark, J. J. Heyd, E. N. Brothers, K. N. Kudin, 
 V. N. Staroverov, T. A. Keith, R. Kobayashi, J. Normand, 
 K. Raghavachari, A. P. Rendell, J. C. Burant, S. S. Iyengar, 
 J. Tomasi, M. Cossi, J. M. Millam, M. Klene, C. Adamo, R. Cammi, 
 J. W. Ochterski, R. L. Martin, K. Morokuma, O. Farkas, 
 J. B. Foresman, and D. J. Fox, Gaussian, Inc., Wallingford CT, 2019.
 
 ******************************************
 Gaussian 16:  ES64L-G16RevC.01  3-Jul-2019
                 8-Apr-2025 
 ******************************************
 %nprocs=16
 Will use up to   16 processors via shared memory.
 %mem=30GB
 %chk=ANI1ccx_488_conf2_mol2.chk
 ----------------------------------------------------------------------
 #t hf aug-cc-pvdz iop(5/13=1,5/36=2,99/5=2) pseudo=read geom=check gue
 ss=(read,tcheck) scf=(maxcycle=1)
 ----------------------------------------------------------------------
 -----
 title
 -----
 Structure from the checkpoint file:  "ANI1ccx_488_conf2_mol2.chk"
 Charge =  0 Multiplicity = 1
 Z-Matrix found in chk file.
 C,0,-1.29097,-0.394417,0.161544
 C,0,0.0715321,1.52827,-0.0686157
 H,0,-2.85701,-0.173013,-1.04309
 H,0,-2.8505,-1.71277,-0.225328
 N,0,-2.46628,-0.785064,-0.362001
 N,0,-0.981403,0.950265,-0.289545
 N,0,2.00639,-0.738468,-0.451863
 N,0,2.80243,-1.42046,-0.115495
 O,0,0.995259,2.18619,0.256801
 O,0,-0.558245,-1.05634,0.898596
 Recover connectivity data from disk.
                    Distance matrix (angstroms):
                    1          2          3          4          5
     1  C    0.000000
     2  C    2.367723   0.000000
     3  H    1.988126   3.524248   0.000000
     4  H    2.078427   4.366597   1.743453   0.000000
     5  N    1.344640   3.446459   0.995569   1.013382   0.000000
     6  N    1.451717   1.221299   2.312463   3.254136   2.285055
     7  N    3.371531   3.004772   4.931729   4.958827   4.473815
     8  N    4.229118   4.019329   5.869056   5.661548   5.312607
     9  O    3.448978   1.179842   4.700588   5.497654   4.603642
    10  O    1.232182   2.830605   3.136038   2.636008   2.302888
                    6          7          8          9         10
     6  N    0.000000
     7  N    3.435851   0.000000
     8  N    4.468559   1.100880   0.000000
     9  O    2.394410   3.174620   4.051221   0.000000
    10  O    2.370064   2.915842   3.529178   3.652297   0.000000
 Framework group  C1[X(C2H2N4O2)]
 Deg. of freedom    24
                         Standard orientation:                         
 ---------------------------------------------------------------------
 Center     Atomic      Atomic             Coordinates (Angstroms)
 Number     Number       Type             X           Y           Z
 ---------------------------------------------------------------------
      1          6           0       -1.290970   -0.394416    0.161544
      2          6           0        0.071536    1.528269   -0.068616
      3          1           0       -2.857009   -0.173009   -1.043090
      4          1           0       -2.850502   -1.712766   -0.225328
      5          7           0       -2.466280   -0.785060   -0.362001
      6          7           0       -0.981400    0.950266   -0.289545
      7          7           0        2.006390   -0.738472   -0.451863
      8          7           0        2.802429   -1.420466   -0.115495
      9          8           0        0.995264    2.186187    0.256801
     10          8           0       -0.558246   -1.056340    0.898596
 ---------------------------------------------------------------------
 Rotational constants (GHZ):           2.4583061           1.4701038           0.9980088
 ======================================================================================================
                                       Pseudopotential Parameters
 ======================================================================================================
  Center     Atomic      Valence      Angular      Power
  Number     Number     Electrons     Momentum     of R      Exponent        Coefficient   SO-Coeffient
 ======================================================================================================
    1          6            6
                                      G and up 
                                                     0        0.0000010       -0.00007288    0.00000000
                                                     2        0.1200000        0.10466671    0.00000000
                                                     2        0.1400000       -0.65716157    0.00000000
                                                     2        0.1600000        1.18890794    0.00000000
                                                     2        0.2000000       -1.25772850    0.00000000
                                                     2        0.2600000        1.01188378    0.00000000
                                                     2        0.4000000       -1.09380874    0.00000000
                                                     2        0.5000000        0.96944888    0.00000000
                                                     2        1.0000000       -0.79256938    0.00000000
                                                     2        3.0000000        1.06443276    0.00000000
                                      S - G
                                                     0        0.0000010       -0.00635295    0.00000000
                                                     2        0.1200000        0.16918955    0.00000000
                                                     2        0.1600000       -0.38862576    0.00000000
                                                     2        0.2800000        0.25638263    0.00000000
                                                     2        0.5000000        0.29628419    0.00000000
                                                     2        0.9000000       -0.28791512    0.00000000
                                      P - G
                                                     0        0.0000010       -0.04756931    0.00000000
                                                     2        0.1200000        0.28430375    0.00000000
                                                     2        0.1600000       -0.69640032    0.00000000
                                                     2        0.2600000        1.13005668    0.00000000
                                                     2        0.4000000       -1.31433324    0.00000000
                                                     2        0.7000000        0.91526469    0.00000000
                                      D - G
                                                     0        0.0000010       -0.11496411    0.00000000
                                                     2        0.1200000        0.16620776    0.00000000
                                                     2        0.1800000       -0.30959819    0.00000000
                                                     2        0.3000000        0.16621458    0.00000000
                                                     2        0.6000000        0.27350556    0.00000000
                                      F - G
                                                     0        0.0000010        0.12037550    0.00000000
                                                     2        0.1200000       -0.48737077    0.00000000
                                                     2        0.1400000        0.58315350    0.00000000
                                                     2        0.3000000        0.00005188    0.00000000
                                                     2        0.5000000       -1.16063549    0.00000000
                                                     2        0.8000000        2.09053308    0.00000000
    2          6            6
                                      G and up 
                                                     0        0.0000010       -0.00007288    0.00000000
                                                     2        0.1200000        0.10466671    0.00000000
                                                     2        0.1400000       -0.65716157    0.00000000
                                                     2        0.1600000        1.18890794    0.00000000
                                                     2        0.2000000       -1.25772850    0.00000000
                                                     2        0.2600000        1.01188378    0.00000000
                                                     2        0.4000000       -1.09380874    0.00000000
                                                     2        0.5000000        0.96944888    0.00000000
                                                     2        1.0000000       -0.79256938    0.00000000
                                                     2        3.0000000        1.06443276    0.00000000
                                      S - G
                                                     0        0.0000010       -0.00635295    0.00000000
                                                     2        0.1200000        0.16918955    0.00000000
                                                     2        0.1600000       -0.38862576    0.00000000
                                                     2        0.2800000        0.25638263    0.00000000
                                                     2        0.5000000        0.29628419    0.00000000
                                                     2        0.9000000       -0.28791512    0.00000000
                                      P - G
                                                     0        0.0000010       -0.04756931    0.00000000
                                                     2        0.1200000        0.28430375    0.00000000
                                                     2        0.1600000       -0.69640032    0.00000000
                                                     2        0.2600000        1.13005668    0.00000000
                                                     2        0.4000000       -1.31433324    0.00000000
                                                     2        0.7000000        0.91526469    0.00000000
                                      D - G
                                                     0        0.0000010       -0.11496411    0.00000000
                                                     2        0.1200000        0.16620776    0.00000000
                                                     2        0.1800000       -0.30959819    0.00000000
                                                     2        0.3000000        0.16621458    0.00000000
                                                     2        0.6000000        0.27350556    0.00000000
                                      F - G
                                                     0        0.0000010        0.12037550    0.00000000
                                                     2        0.1200000       -0.48737077    0.00000000
                                                     2        0.1400000        0.58315350    0.00000000
                                                     2        0.3000000        0.00005188    0.00000000
                                                     2        0.5000000       -1.16063549    0.00000000
                                                     2        0.8000000        2.09053308    0.00000000
    3          1            1
                                      F and up 
                                                     0        0.0000010       -0.00007675    0.00000000
                                                     2        0.1200000        0.05352699    0.00000000
                                                     2        0.1400000       -0.25123645    0.00000000
                                                     2        0.1600000        0.32188106    0.00000000
                                                     2        0.2200000       -0.25206857    0.00000000
                                                     2        0.3000000        0.19290477    0.00000000
                                                     2        0.5000000       -0.10129770    0.00000000
                                                     2        0.9000000        0.00314995    0.00000000
                                                     2        1.5000000        0.18401192    0.00000000
                                      S - F
                                                     0        0.0000010        0.08065976    0.00000000
                                                     2        0.1200000       -0.09231673    0.00000000
                                                     2        0.1600000       -0.03278082    0.00000000
                                                     2        0.2800000        0.38423402    0.00000000
                                                     2        0.6000000       -1.09357590    0.00000000
                                                     2        1.1000000        1.53099489    0.00000000
                                                     2        3.0000000       -2.63300202    0.00000000
                                      P - F
                                                     0        0.0000010       -0.11638665    0.00000000
                                                     2        0.1200000        0.35468655    0.00000000
                                                     2        0.1600000       -0.59160923    0.00000000
                                                     2        0.3000000        0.49390547    0.00000000
                                                     2        0.6000000       -0.37949835    0.00000000
                                                     2        1.6000000        0.89304688    0.00000000
                                      D - F
                                                     0        0.0000010        0.05443663    0.00000000
                                                     2        0.1200000       -0.29679479    0.00000000
                                                     2        0.1400000        0.36849872    0.00000000
                                                     2        0.2400000        0.02793449    0.00000000
                                                     2        0.4000000       -0.46312857    0.00000000
                                                     2        0.7000000        0.97587598    0.00000000
                                                     2        1.5000000       -2.43431102    0.00000000
    4          1            1
                                      F and up 
                                                     0        0.0000010       -0.00007675    0.00000000
                                                     2        0.1200000        0.05352699    0.00000000
                                                     2        0.1400000       -0.25123645    0.00000000
                                                     2        0.1600000        0.32188106    0.00000000
                                                     2        0.2200000       -0.25206857    0.00000000
                                                     2        0.3000000        0.19290477    0.00000000
                                                     2        0.5000000       -0.10129770    0.00000000
                                                     2        0.9000000        0.00314995    0.00000000
                                                     2        1.5000000        0.18401192    0.00000000
                                      S - F
                                                     0        0.0000010        0.08065976    0.00000000
                                                     2        0.1200000       -0.09231673    0.00000000
                                                     2        0.1600000       -0.03278082    0.00000000
                                                     2        0.2800000        0.38423402    0.00000000
                                                     2        0.6000000       -1.09357590    0.00000000
                                                     2        1.1000000        1.53099489    0.00000000
                                                     2        3.0000000       -2.63300202    0.00000000
                                      P - F
                                                     0        0.0000010       -0.11638665    0.00000000
                                                     2        0.1200000        0.35468655    0.00000000
                                                     2        0.1600000       -0.59160923    0.00000000
                                                     2        0.3000000        0.49390547    0.00000000
                                                     2        0.6000000       -0.37949835    0.00000000
                                                     2        1.6000000        0.89304688    0.00000000
                                      D - F
                                                     0        0.0000010        0.05443663    0.00000000
                                                     2        0.1200000       -0.29679479    0.00000000
                                                     2        0.1400000        0.36849872    0.00000000
                                                     2        0.2400000        0.02793449    0.00000000
                                                     2        0.4000000       -0.46312857    0.00000000
                                                     2        0.7000000        0.97587598    0.00000000
                                                     2        1.5000000       -2.43431102    0.00000000
    5          7            7
                                      G and up 
                                                     0        0.0000010       -0.00039818    0.00000000
                                                     2        0.1200000       -0.37616123    0.00000000
                                                     2        0.1400000        2.13837358    0.00000000
                                                     2        0.1600000       -3.36562035    0.00000000
                                                     2        0.2000000        2.53463289    0.00000000
                                                     2        0.3000000       -1.98118833    0.00000000
                                                     2        0.5000000        4.06642919    0.00000000
                                                     2        0.7000000       -6.15327959    0.00000000
                                                     2        1.2000000       10.22492851    0.00000000
                                                     2        2.0000000      -14.94707511    0.00000000
                                      S - G
                                                     0        0.0000010        0.02721443    0.00000000
                                                     2        0.1200000       -0.60186009    0.00000000
                                                     2        0.1600000        1.10088134    0.00000000
                                                     2        0.2600000       -0.59857981    0.00000000
                                                     2        0.6000000        0.21288222    0.00000000
                                                     2        3.0000000        5.09059205    0.00000000
                                      P - G
                                                     0        0.0000010        0.40558062    0.00000000
                                                     2        0.1200000        0.81809854    0.00000000
                                                     2        0.1600000       -2.44952728    0.00000000
                                                     2        0.2800000        4.16638749    0.00000000
                                                     2        0.5000000       -6.02944147    0.00000000
                                                     2        1.1000000        5.78262914    0.00000000
                                      D - G
                                                     0        0.0000010       -0.62770267    0.00000000
                                                     2        0.1600000        0.91438653    0.00000000
                                                     2        0.2600000       -2.00568466    0.00000000
                                                     2        0.5000000        3.30798839    0.00000000
                                                     2        1.1000000       -3.91526108    0.00000000
                                      F - G
                                                     0        0.0000010        0.29726344    0.00000000
                                                     2        0.1200000       -0.41591527    0.00000000
                                                     2        0.1600000        0.51444439    0.00000000
                                                     2        0.4000000       -0.69401726    0.00000000
                                                     2        0.7000000        0.51478123    0.00000000
    6          7            7
                                      G and up 
                                                     0        0.0000010       -0.00039818    0.00000000
                                                     2        0.1200000       -0.37616123    0.00000000
                                                     2        0.1400000        2.13837358    0.00000000
                                                     2        0.1600000       -3.36562035    0.00000000
                                                     2        0.2000000        2.53463289    0.00000000
                                                     2        0.3000000       -1.98118833    0.00000000
                                                     2        0.5000000        4.06642919    0.00000000
                                                     2        0.7000000       -6.15327959    0.00000000
                                                     2        1.2000000       10.22492851    0.00000000
                                                     2        2.0000000      -14.94707511    0.00000000
                                      S - G
                                                     0        0.0000010        0.02721443    0.00000000
                                                     2        0.1200000       -0.60186009    0.00000000
                                                     2        0.1600000        1.10088134    0.00000000
                                                     2        0.2600000       -0.59857981    0.00000000
                                                     2        0.6000000        0.21288222    0.00000000
                                                     2        3.0000000        5.09059205    0.00000000
                                      P - G
                                                     0        0.0000010        0.40558062    0.00000000
                                                     2        0.1200000        0.81809854    0.00000000
                                                     2        0.1600000       -2.44952728    0.00000000
                                                     2        0.2800000        4.16638749    0.00000000
                                                     2        0.5000000       -6.02944147    0.00000000
                                                     2        1.1000000        5.78262914    0.00000000
                                      D - G
                                                     0        0.0000010       -0.62770267    0.00000000
                                                     2        0.1600000        0.91438653    0.00000000
                                                     2        0.2600000       -2.00568466    0.00000000
                                                     2        0.5000000        3.30798839    0.00000000
                                                     2        1.1000000       -3.91526108    0.00000000
                                      F - G
                                                     0        0.0000010        0.29726344    0.00000000
                                                     2        0.1200000       -0.41591527    0.00000000
                                                     2        0.1600000        0.51444439    0.00000000
                                                     2        0.4000000       -0.69401726    0.00000000
                                                     2        0.7000000        0.51478123    0.00000000
    7          7            7
                                      G and up 
                                                     0        0.0000010       -0.00039818    0.00000000
                                                     2        0.1200000       -0.37616123    0.00000000
                                                     2        0.1400000        2.13837358    0.00000000
                                                     2        0.1600000       -3.36562035    0.00000000
                                                     2        0.2000000        2.53463289    0.00000000
                                                     2        0.3000000       -1.98118833    0.00000000
                                                     2        0.5000000        4.06642919    0.00000000
                                                     2        0.7000000       -6.15327959    0.00000000
                                                     2        1.2000000       10.22492851    0.00000000
                                                     2        2.0000000      -14.94707511    0.00000000
                                      S - G
                                                     0        0.0000010        0.02721443    0.00000000
                                                     2        0.1200000       -0.60186009    0.00000000
                                                     2        0.1600000        1.10088134    0.00000000
                                                     2        0.2600000       -0.59857981    0.00000000
                                                     2        0.6000000        0.21288222    0.00000000
                                                     2        3.0000000        5.09059205    0.00000000
                                      P - G
                                                     0        0.0000010        0.40558062    0.00000000
                                                     2        0.1200000        0.81809854    0.00000000
                                                     2        0.1600000       -2.44952728    0.00000000
                                                     2        0.2800000        4.16638749    0.00000000
                                                     2        0.5000000       -6.02944147    0.00000000
                                                     2        1.1000000        5.78262914    0.00000000
                                      D - G
                                                     0        0.0000010       -0.62770267    0.00000000
                                                     2        0.1600000        0.91438653    0.00000000
                                                     2        0.2600000       -2.00568466    0.00000000
                                                     2        0.5000000        3.30798839    0.00000000
                                                     2        1.1000000       -3.91526108    0.00000000
                                      F - G
                                                     0        0.0000010        0.29726344    0.00000000
                                                     2        0.1200000       -0.41591527    0.00000000
                                                     2        0.1600000        0.51444439    0.00000000
                                                     2        0.4000000       -0.69401726    0.00000000
                                                     2        0.7000000        0.51478123    0.00000000
    8          7            7
                                      G and up 
                                                     0        0.0000010       -0.00039818    0.00000000
                                                     2        0.1200000       -0.37616123    0.00000000
                                                     2        0.1400000        2.13837358    0.00000000
                                                     2        0.1600000       -3.36562035    0.00000000
                                                     2        0.2000000        2.53463289    0.00000000
                                                     2        0.3000000       -1.98118833    0.00000000
                                                     2        0.5000000        4.06642919    0.00000000
                                                     2        0.7000000       -6.15327959    0.00000000
                                                     2        1.2000000       10.22492851    0.00000000
                                                     2        2.0000000      -14.94707511    0.00000000
                                      S - G
                                                     0        0.0000010        0.02721443    0.00000000
                                                     2        0.1200000       -0.60186009    0.00000000
                                                     2        0.1600000        1.10088134    0.00000000
                                                     2        0.2600000       -0.59857981    0.00000000
                                                     2        0.6000000        0.21288222    0.00000000
                                                     2        3.0000000        5.09059205    0.00000000
                                      P - G
                                                     0        0.0000010        0.40558062    0.00000000
                                                     2        0.1200000        0.81809854    0.00000000
                                                     2        0.1600000       -2.44952728    0.00000000
                                                     2        0.2800000        4.16638749    0.00000000
                                                     2        0.5000000       -6.02944147    0.00000000
                                                     2        1.1000000        5.78262914    0.00000000
                                      D - G
                                                     0        0.0000010       -0.62770267    0.00000000
                                                     2        0.1600000        0.91438653    0.00000000
                                                     2        0.2600000       -2.00568466    0.00000000
                                                     2        0.5000000        3.30798839    0.00000000
                                                     2        1.1000000       -3.91526108    0.00000000
                                      F - G
                                                     0        0.0000010        0.29726344    0.00000000
                                                     2        0.1200000       -0.41591527    0.00000000
                                                     2        0.1600000        0.51444439    0.00000000
                                                     2        0.4000000       -0.69401726    0.00000000
                                                     2        0.7000000        0.51478123    0.00000000
    9          8            8
                                      G and up 
                                                     0        0.0000010        0.00049668    0.00000000
                                                     2        0.1200000       -0.01803391    0.00000000
                                                     2        0.1400000        0.04014195    0.00000000
                                                     2        0.2000000       -0.02692147    0.00000000
                                                     2        0.2800000       -0.04241843    0.00000000
                                                     2        0.4000000        0.15412145    0.00000000
                                                     2        0.7000000       -0.40587006    0.00000000
                                                     2        1.1000000        1.75666647    0.00000000
                                      S - G
                                                     0        0.0000010       -0.01088195    0.00000000
                                                     2        0.1200000        0.09867335    0.00000000
                                                     2        0.2400000       -0.08484177    0.00000000
                                                     2        0.6000000       -1.39011554    0.00000000
                                                     2        2.5000000        1.36225910    0.00000000
                                      P - G
                                                     0        0.0000010        0.05874028    0.00000000
                                                     2        0.1200000       -0.11700340    0.00000000
                                                     2        0.1600000        0.08847775    0.00000000
                                                     2        0.3000000        0.04709907    0.00000000
                                                     2        1.2000000       -1.80388338    0.00000000
                                      D - G
                                                     0        0.0000010       -0.00541262    0.00000000
                                                     2        0.1200000       -0.26547906    0.00000000
                                                     2        0.1600000        1.04289661    0.00000000
                                                     2        0.2400000       -1.92800913    0.00000000
                                                     2        0.4000000        2.26691633    0.00000000
                                                     2        0.7000000       -1.97391482    0.00000000
                                      F - G
                                                     0        0.0000010       -0.02604870    0.00000000
                                                     2        0.1200000        0.37362552    0.00000000
                                                     2        0.1600000       -1.43526367    0.00000000
                                                     2        0.2200000        1.76778079    0.00000000
                                                     2        0.5000000       -1.90846303    0.00000000
   10          8            8
                                      G and up 
                                                     0        0.0000010        0.00049668    0.00000000
                                                     2        0.1200000       -0.01803391    0.00000000
                                                     2        0.1400000        0.04014195    0.00000000
                                                     2        0.2000000       -0.02692147    0.00000000
                                                     2        0.2800000       -0.04241843    0.00000000
                                                     2        0.4000000        0.15412145    0.00000000
                                                     2        0.7000000       -0.40587006    0.00000000
                                                     2        1.1000000        1.75666647    0.00000000
                                      S - G
                                                     0        0.0000010       -0.01088195    0.00000000
                                                     2        0.1200000        0.09867335    0.00000000
                                                     2        0.2400000       -0.08484177    0.00000000
                                                     2        0.6000000       -1.39011554    0.00000000
                                                     2        2.5000000        1.36225910    0.00000000
                                      P - G
                                                     0        0.0000010        0.05874028    0.00000000
                                                     2        0.1200000       -0.11700340    0.00000000
                                                     2        0.1600000        0.08847775    0.00000000
                                                     2        0.3000000        0.04709907    0.00000000
                                                     2        1.2000000       -1.80388338    0.00000000
                                      D - G
                                                     0        0.0000010       -0.00541262    0.00000000
                                                     2        0.1200000       -0.26547906    0.00000000
                                                     2        0.1600000        1.04289661    0.00000000
                                                     2        0.2400000       -1.92800913    0.00000000
                                                     2        0.4000000        2.26691633    0.00000000
                                                     2        0.7000000       -1.97391482    0.00000000
                                      F - G
                                                     0        0.0000010       -0.02604870    0.00000000
                                                     2        0.1200000        0.37362552    0.00000000
                                                     2        0.1600000       -1.43526367    0.00000000
                                                     2        0.2200000        1.76778079    0.00000000
                                                     2        0.5000000       -1.90846303    0.00000000
 ======================================================================================================
   202 basis functions,   366 primitive gaussians,   218 cartesian basis functions
    29 alpha electrons       29 beta electrons
       nuclear repulsion energy       317.9634438518 Hartrees.
 NAtoms=   10 NActive=   10 NUniq=   10 SFac= 1.00D+00 NAtFMM=   60 NAOKFM=F Big=F
   1 Symmetry operations used in ECPInt.
 ECPInt:  NShTT=    3403 NPrTT=   20067 LenC2=    3377 LenP2D=   13831.
 LDataN:  DoStor=T MaxTD1= 6 Len=  172
 Initial guess from the checkpoint file:  "ANI1ccx_488_conf2_mol2.chk"
 B after Tr=     0.000002   -0.000001    0.000000
         Rot=    1.000000    0.000000   -0.000000    0.000001 Ang=   0.00 deg.
 >>>>>>>>>> Convergence criterion not met.
 SCF Done:  E(RHF) =  -444.980292956     A.U. after    2 cycles
            NFock=  1  Conv=0.31D-01     -V/T= 2.0023

 **********************************************************************

            Population analysis using the SCF Density.

 **********************************************************************

 Orbital symmetries:
       Occupied  (A) (A) (A) (A) (A) (A) (A) (A) (A) (A) (A) (A)
                 (A) (A) (A) (A) (A) (A) (A) (A) (A) (A) (A) (A)
                 (A) (A) (A) (A) (A)
       Virtual   (A) (A) (A) (A) (A) (A) (A) (A) (A) (A) (A) (A)
                 (A) (A) (A) (A) (A) (A) (A) (A) (A) (A) (A) (A)
                 (A) (A) (A) (A) (A) (A) (A) (A) (A) (A) (A) (A)
                 (A) (A) (A) (A) (A) (A) (A) (A) (A) (A) (A) (A)
                 (A) (A) (A) (A) (A) (A) (A) (A) (A) (A) (A) (A)
                 (A) (A) (A) (A) (A) (A) (A) (A) (A) (A) (A) (A)
                 (A) (A) (A) (A) (A) (A) (A) (A) (A) (A) (A) (A)
                 (A) (A) (A) (A) (A) (A) (A) (A) (A) (A) (A) (A)
                 (A) (A) (A) (A) (A) (A) (A) (A) (A) (A) (A) (A)
                 (A) (A) (A) (A) (A) (A) (A) (A) (A) (A) (A) (A)
                 (A) (A) (A) (A) (A) (A) (A) (A) (A) (A) (A) (A)
                 (A) (A) (A) (A) (A) (A) (A) (A) (A) (A) (A) (A)
                 (A) (A) (A) (A) (A) (A) (A) (A) (A) (A) (A) (A)
                 (A) (A) (A) (A) (A) (A) (A) (A) (A) (A) (A) (A)
                 (A) (A) (A) (A) (A)
 The electronic state is 1-A.
 Alpha  occ. eigenvalues --  -20.63424 -20.53734 -15.61344 -15.61239 -15.55826
 Alpha  occ. eigenvalues --  -15.55329 -11.45185 -11.43659  -1.56545  -1.48357
 Alpha  occ. eigenvalues --   -1.48200  -1.30881  -1.25540  -0.95562  -0.82559
 Alpha  occ. eigenvalues --   -0.81488  -0.77179  -0.75200  -0.69962  -0.68424
 Alpha  occ. eigenvalues --   -0.67451  -0.66238  -0.66071  -0.64546  -0.62102
 Alpha  occ. eigenvalues --   -0.54591  -0.49062  -0.46106  -0.45888
 Alpha virt. eigenvalues --    0.02424   0.05011   0.07515   0.08399   0.09481
 Alpha virt. eigenvalues --    0.09900   0.10296   0.10430   0.11366   0.11908
 Alpha virt. eigenvalues --    0.12010   0.12836   0.13103   0.13820   0.15391
 Alpha virt. eigenvalues --    0.17372   0.17486   0.18944   0.19525   0.20386
 Alpha virt. eigenvalues --    0.21478   0.22449   0.23109   0.24761   0.26352
 Alpha virt. eigenvalues --    0.26949   0.27306   0.28216   0.29820   0.29925
 Alpha virt. eigenvalues --    0.30748   0.31282   0.32281   0.33174   0.34462
 Alpha virt. eigenvalues --    0.34898   0.36166   0.36595   0.37718   0.38663
 Alpha virt. eigenvalues --    0.40262   0.41409   0.44618   0.47244   0.49875
 Alpha virt. eigenvalues --    0.50367   0.52002   0.52936   0.54653   0.57330
 Alpha virt. eigenvalues --    0.59525   0.60565   0.61853   0.63172   0.63797
 Alpha virt. eigenvalues --    0.65010   0.67028   0.67477   0.68744   0.70094
 Alpha virt. eigenvalues --    0.73223   0.74991   0.75681   0.76488   0.77894
 Alpha virt. eigenvalues --    0.79392   0.80935   0.82125   0.84832   0.85575
 Alpha virt. eigenvalues --    0.86676   0.87731   0.88955   0.89576   0.90880
 Alpha virt. eigenvalues --    0.93203   0.95224   0.95803   0.97761   0.98942
 Alpha virt. eigenvalues --    0.99675   1.01064   1.03844   1.05808   1.07877
 Alpha virt. eigenvalues --    1.11315   1.11542   1.12678   1.14199   1.17114
 Alpha virt. eigenvalues --    1.18110   1.20568   1.22345   1.24510   1.24902
 Alpha virt. eigenvalues --    1.29185   1.30193   1.32454   1.33554   1.35036
 Alpha virt. eigenvalues --    1.38224   1.41231   1.41834   1.46932   1.48931
 Alpha virt. eigenvalues --    1.51332   1.53023   1.55035   1.59234   1.61953
 Alpha virt. eigenvalues --    1.67069   1.69924   1.71941   1.73196   1.77267
 Alpha virt. eigenvalues --    1.78028   1.79543   1.83005   1.83738   1.85727
 Alpha virt. eigenvalues --    1.86529   1.90066   1.91694   1.94226   1.94370
 Alpha virt. eigenvalues --    1.99674   2.00989   2.03236   2.05751   2.08078
 Alpha virt. eigenvalues --    2.08680   2.11514   2.12310   2.16927   2.20162
 Alpha virt. eigenvalues --    2.20616   2.21845   2.22907   2.24351   2.30413
 Alpha virt. eigenvalues --    2.37075   2.40513   2.42519   2.45245   2.46100
 Alpha virt. eigenvalues --    2.52076   2.55716   2.59480   2.62471   2.64645
 Alpha virt. eigenvalues --    2.68413   2.77842   2.86913   2.87352   2.90132
 Alpha virt. eigenvalues --    2.97373   3.07162   3.10344   3.16693   3.28451
 Alpha virt. eigenvalues --    3.40989   3.46856   3.67900   3.73678   3.75455
 Alpha virt. eigenvalues --    3.88129   3.91332   3.92252   3.93798   3.95305
 Alpha virt. eigenvalues --    4.08383   4.25040   4.27813
          Condensed to atoms (all electrons):
 Mulliken charges:
               1
     1  C    0.211774
     2  C    0.371812
     3  H    0.104375
     4  H    0.129353
     5  N    0.604309
     6  N    0.588780
     7  N    0.230014
     8  N   -0.291017
     9  O   -0.857290
    10  O   -1.092109
 Sum of Mulliken charges =  -0.00000
 Mulliken charges with hydrogens summed into heavy atoms:
               1
     1  C    0.211774
     2  C    0.371812
     5  N    0.838037
     6  N    0.588780
     7  N    0.230014
     8  N   -0.291017
     9  O   -0.857290
    10  O   -1.092109
 Electronic spatial extent (au):  <R**2>=           1070.9100
 Charge=             -0.0000 electrons
 Dipole moment (field-independent basis, Debye):
    X=             -2.8662    Y=             -0.2392    Z=             -2.2258  Tot=              3.6368

 Test job not archived.
 1\1\GINC-SE331\SP\RHF\Aug-CC-pVDZ\C2H2N4O2\OHZDE\08-Apr-2025\0\\#t hf 
 aug-cc-pvdz iop(5/13=1,5/36=2,99/5=2) pseudo=read geom=check guess=(re
 ad,tcheck) scf=(maxcycle=1)\\title\\0,1\C,0,-1.29097,-0.394417,0.16154
 4\C,0,0.0715321,1.52827,-0.0686157\H,0,-2.85701,-0.173013,-1.04309\H,0
 ,-2.8505,-1.71277,-0.225328\N,0,-2.46628,-0.785064,-0.362001\N,0,-0.98
 1403,0.950265,-0.289545\N,0,2.00639,-0.738468,-0.451863\N,0,2.80243,-1
 .42046,-0.115495\O,0,0.995259,2.18619,0.256801\O,0,-0.558245,-1.05634,
 0.898596\\Version=ES64L-G16RevC.01\State=1-A\HF=-444.980293\RMSD=3.085
 e-02\Dipole=-1.1276629,-0.0941297,-0.8756931\Quadrupole=4.1321997,-2.1
 071729,-2.0250268,2.5841373,1.884194,1.3254013\PG=C01 [X(C2H2N4O2)]\\@


 THERE'S SMALL CHOICE IN A BOWL OF ROTTEN APPLES.
                     SHAKESPEARE
 Job cpu time:       0 days  0 hours  0 minutes 41.9 seconds.
 Elapsed time:       0 days  0 hours  0 minutes  3.8 seconds.
 File lengths (MBytes):  RWF=     10 Int=      0 D2E=      0 Chk=      6 Scr=      1
 Normal termination of Gaussian 16 at Tue Apr  8 21:42:56 2025.
