 Entering Gaussian System, Link 0=g16
 Input=BDE49_nonexpt_1986_mol1.gjf
 Output=BDE49_nonexpt_1986_mol1.log
 Initial command:
 /arc/software/Gaussian/g16.c01/l1.exe "/tmp/slurm/4849249/Gau-1023237.inp" -scrdir="/tmp/slurm/4849249/"
 Entering Link 1 = /arc/software/Gaussian/g16.c01/l1.exe PID=   1023238.
  
 Copyright (c) 1988-2019, Gaussian, Inc.  All Rights Reserved.
  
 This is part of the Gaussian(R) 16 program.  It is based on
 the Gaussian(R) 09 system (copyright 2009, Gaussian, Inc.),
 the Gaussian(R) 03 system (copyright 2003, Gaussian, Inc.),
 the Gaussian(R) 98 system (copyright 1998, Gaussian, Inc.),
 the Gaussian(R) 94 system (copyright 1995, Gaussian, Inc.),
 the Gaussian 92(TM) system (copyright 1992, Gaussian, Inc.),
 the Gaussian 90(TM) system (copyright 1990, Gaussian, Inc.),
 the Gaussian 88(TM) system (copyright 1988, Gaussian, Inc.),
 the Gaussian 86(TM) system (copyright 1986, Carnegie Mellon
 University), and the Gaussian 82(TM) system (copyright 1983,
 Carnegie Mellon University). Gaussian is a federally registered
 trademark of Gaussian, Inc.
  
 This software contains proprietary and confidential information,
 including trade secrets, belonging to Gaussian, Inc.
  
 This software is provided under written license and may be
 used, copied, transmitted, or stored only in accord with that
 written license.
  
 The following legend is applicable only to US Government
 contracts under FAR:
  
                    RESTRICTED RIGHTS LEGEND
  
 Use, reproduction and disclosure by the US Government is
 subject to restrictions as set forth in subparagraphs (a)
 and (c) of the Commercial Computer Software - Restricted
 Rights clause in FAR 52.227-19.
  
 Gaussian, Inc.
 340 Quinnipiac St., Bldg. 40, Wallingford CT 06492
  
  
 ---------------------------------------------------------------
 Warning -- This program may not be used in any manner that
 competes with the business of Gaussian, Inc. or will provide
 assistance to any competitor of Gaussian, Inc.  The licensee
 of this program is prohibited from giving any competitor of
 Gaussian, Inc. access to this program.  By using this program,
 the user acknowledges that Gaussian, Inc. is engaged in the
 business of creating and licensing software in the field of
 computational chemistry and represents and warrants to the
 licensee that it is not a competitor of Gaussian, Inc. and that
 it will not use this program in any manner prohibited above.
 ---------------------------------------------------------------
  

 Cite this work as:
 Gaussian 16, Revision C.01,
 M. J. Frisch, G. W. Trucks, H. B. Schlegel, G. E. Scuseria, 
 M. A. Robb, J. R. Cheeseman, G. Scalmani, V. Barone, 
 G. A. Petersson, H. Nakatsuji, X. Li, M. Caricato, A. V. Marenich, 
 J. Bloino, B. G. Janesko, R. Gomperts, B. Mennucci, H. P. Hratchian, 
 J. V. Ortiz, A. F. Izmaylov, J. L. Sonnenberg, D. Williams-Young, 
 F. Ding, F. Lipparini, F. Egidi, J. Goings, B. Peng, A. Petrone, 
 T. Henderson, D. Ranasinghe, V. G. Zakrzewski, J. Gao, N. Rega, 
 G. Zheng, W. Liang, M. Hada, M. Ehara, K. Toyota, R. Fukuda, 
 J. Hasegawa, M. Ishida, T. Nakajima, Y. Honda, O. Kitao, H. Nakai, 
 T. Vreven, K. Throssell, J. A. Montgomery, Jr., J. E. Peralta, 
 F. Ogliaro, M. J. Bearpark, J. J. Heyd, E. N. Brothers, K. N. Kudin, 
 V. N. Staroverov, T. A. Keith, R. Kobayashi, J. Normand, 
 K. Raghavachari, A. P. Rendell, J. C. Burant, S. S. Iyengar, 
 J. Tomasi, M. Cossi, J. M. Millam, M. Klene, C. Adamo, R. Cammi, 
 J. W. Ochterski, R. L. Martin, K. Morokuma, O. Farkas, 
 J. B. Foresman, and D. J. Fox, Gaussian, Inc., Wallingford CT, 2019.
 
 ******************************************
 Gaussian 16:  ES64L-G16RevC.01  3-Jul-2019
                 8-Apr-2025 
 ******************************************
 %nprocs=16
 Will use up to   16 processors via shared memory.
 %mem=30GB
 %chk=BDE49_nonexpt_1986_mol1.chk
 ----------------------------------------------------------------------
 #t hf aug-cc-pvdz symm=none int=(grid=ultrafine) guess=(read,tcheck) s
 table=(opt,rrhf)
 ----------------------------------------------------------------------
 -----
 title
 -----
 Symbolic Z-matrix:
 Charge =  0 Multiplicity = 1
 Si                    0.        0.        0.45011 
 F                     0.        1.29063  -0.4878 
 F                     0.       -1.29063  -0.4878 
 H                    -1.23768   0.        1.23937 
 H                     1.23768   0.        1.23937 
 
                    Distance matrix (angstroms):
                    1          2          3          4          5
     1  Si   0.000000
     2  F    1.595431   0.000000
     3  F    1.595431   2.581260   0.000000
     4  H    1.467912   2.486094   2.486094   0.000000
     5  H    1.467912   2.486094   2.486094   2.475350   0.000000
 Symmetry turned off by external request.
 Rotational constants (GHZ):          24.3924674           7.6134328           6.2451638
    91 basis functions,   189 primitive gaussians,    97 cartesian basis functions
    17 alpha electrons       17 beta electrons
       nuclear repulsion energy       118.1601649015 Hartrees.
 NAtoms=    5 NActive=    5 NUniq=    5 SFac= 1.00D+00 NAtFMM=   60 NAOKFM=F Big=F
 ExpMin= 2.50D-02 ExpMax= 7.89D+04 ExpMxC= 2.69D+03 IAcc=3 IRadAn=         5 AccDes= 0.00D+00
 Harris functional with IExCor=  205 and IRadAn=       5 diagonalized for initial guess.
 HarFok:  IExCor=  205 AccDes= 0.00D+00 IRadAn=         5 IDoV= 1 UseB2=F ITyADJ=14
 ICtDFT=  3500011 ScaDFX=  1.000000  1.000000  1.000000  1.000000
 FoFCou: FMM=F IPFlag=           0 FMFlag=      100000 FMFlg1=           0
         NFxFlg=           0 DoJE=T BraDBF=F KetDBF=T FulRan=T
         wScrn=  0.000000 ICntrl=       500 IOpCl=  0 I1Cent=   200000004 NGrid=           0
         NMat0=    1 NMatS0=      1 NMatT0=    0 NMatD0=    1 NMtDS0=    0 NMtDT0=    0
 Symmetry not used in FoFCou.
 SCF Done:  E(RHF) =  -489.117905374     A.U. after   10 cycles
            NFock= 10  Conv=0.26D-08     -V/T= 2.0006

 **********************************************************************

            Population analysis using the SCF Density.

 **********************************************************************

 Alpha  occ. eigenvalues --  -68.89081 -26.31507 -26.31506  -6.22671  -4.33509
 Alpha  occ. eigenvalues --   -4.33386  -4.33251  -1.61861  -1.60022  -0.81151
 Alpha  occ. eigenvalues --   -0.72287  -0.70328  -0.70035  -0.66707  -0.65039
 Alpha  occ. eigenvalues --   -0.59781  -0.50297
 Alpha virt. eigenvalues --    0.04381   0.05320   0.05385   0.06187   0.08938
 Alpha virt. eigenvalues --    0.13337   0.15826   0.16625   0.20813   0.22770
 Alpha virt. eigenvalues --    0.25095   0.25335   0.26294   0.29285   0.31575
 Alpha virt. eigenvalues --    0.31668   0.33868   0.33947   0.37317   0.37756
 Alpha virt. eigenvalues --    0.38386   0.40146   0.45382   0.48733   0.51481
 Alpha virt. eigenvalues --    0.54783   0.56676   0.57160   0.58915   0.67424
 Alpha virt. eigenvalues --    0.68237   0.70293   0.74593   0.76399   0.86621
 Alpha virt. eigenvalues --    0.96515   1.00484   1.05663   1.22477   1.27426
 Alpha virt. eigenvalues --    1.37052   1.39970   1.47718   1.47989   1.53922
 Alpha virt. eigenvalues --    1.54613   1.56704   1.58168   1.59468   1.69945
 Alpha virt. eigenvalues --    1.73510   1.74095   1.74264   1.91428   1.91607
 Alpha virt. eigenvalues --    1.99820   2.08821   2.21264   2.24803   2.25741
 Alpha virt. eigenvalues --    2.33808   2.40754   3.04364   3.20370   4.88107
 Alpha virt. eigenvalues --    4.88214   4.92040   4.92537   5.02076   5.02526
 Alpha virt. eigenvalues --    5.02804   5.02943   5.07724   5.09450
          Condensed to atoms (all electrons):
 Mulliken charges:
               1
     1  Si   1.632662
     2  F   -0.772104
     3  F   -0.772104
     4  H   -0.044227
     5  H   -0.044227
 Sum of Mulliken charges =  -0.00000
 Mulliken charges with hydrogens summed into heavy atoms:
               1
     1  Si   1.544208
     2  F   -0.772104
     3  F   -0.772104
 Electronic spatial extent (au):  <R**2>=            208.7431
 Charge=             -0.0000 electrons
 Dipole moment (field-independent basis, Debye):
    X=             -0.0000    Y=             -0.0000    Z=              1.8548  Tot=              1.8548
 NROrb=     91 NOA=    17 NOB=    17 NVA=    74 NVB=    74

 **** Warning!!: The largest alpha MO coefficient is  0.19067445D+02

    12 initial guesses have been made.
 Iteration     1 Dimension    12 NMult     0 NNew     12
 Iteration     2 Dimension    24 NMult    12 NNew     12
 Iteration     3 Dimension    27 NMult    24 NNew      3
 Iteration     4 Dimension    30 NMult    27 NNew      3
 Iteration     5 Dimension    33 NMult    30 NNew      3
 Iteration     6 Dimension    36 NMult    33 NNew      3
 ***********************************************************************
 Stability analysis using <AA,BB:AA,BB> singles matrix:
 ***********************************************************************
 Ground to excited state transition densities written to RWF  633

 Eigenvectors of the stability matrix:
 
 Excited state symmetry could not be determined.
 Eigenvector   1:      Singlet-?Sym  Eigenvalue= 0.3621521  <S**2>=0.000
      17 -> 19         0.54698
      17 -> 25         0.41417
      17 -> 26         0.11218
 The wavefunction is stable under the perturbations considered.
 The wavefunction is already stable.

 **********************************************************************

            Population analysis using the SCF Density.

 **********************************************************************

 Alpha  occ. eigenvalues --  -68.89081 -26.31507 -26.31506  -6.22671  -4.33509
 Alpha  occ. eigenvalues --   -4.33386  -4.33251  -1.61861  -1.60022  -0.81151
 Alpha  occ. eigenvalues --   -0.72287  -0.70328  -0.70035  -0.66707  -0.65039
 Alpha  occ. eigenvalues --   -0.59781  -0.50297
 Alpha virt. eigenvalues --    0.04381   0.05320   0.05385   0.06187   0.08938
 Alpha virt. eigenvalues --    0.13337   0.15826   0.16625   0.20813   0.22770
 Alpha virt. eigenvalues --    0.25095   0.25335   0.26294   0.29285   0.31575
 Alpha virt. eigenvalues --    0.31668   0.33868   0.33947   0.37317   0.37756
 Alpha virt. eigenvalues --    0.38386   0.40146   0.45382   0.48733   0.51481
 Alpha virt. eigenvalues --    0.54783   0.56676   0.57160   0.58915   0.67424
 Alpha virt. eigenvalues --    0.68237   0.70293   0.74593   0.76399   0.86621
 Alpha virt. eigenvalues --    0.96515   1.00484   1.05663   1.22477   1.27426
 Alpha virt. eigenvalues --    1.37052   1.39970   1.47718   1.47989   1.53922
 Alpha virt. eigenvalues --    1.54613   1.56704   1.58168   1.59468   1.69945
 Alpha virt. eigenvalues --    1.73510   1.74095   1.74264   1.91428   1.91607
 Alpha virt. eigenvalues --    1.99820   2.08821   2.21264   2.24803   2.25741
 Alpha virt. eigenvalues --    2.33808   2.40754   3.04364   3.20370   4.88107
 Alpha virt. eigenvalues --    4.88214   4.92040   4.92537   5.02076   5.02526
 Alpha virt. eigenvalues --    5.02804   5.02943   5.07724   5.09450
          Condensed to atoms (all electrons):
 Mulliken charges:
               1
     1  Si   1.632662
     2  F   -0.772104
     3  F   -0.772104
     4  H   -0.044227
     5  H   -0.044227
 Sum of Mulliken charges =  -0.00000
 Mulliken charges with hydrogens summed into heavy atoms:
               1
     1  Si   1.544208
     2  F   -0.772104
     3  F   -0.772104
 Electronic spatial extent (au):  <R**2>=            208.7431
 Charge=             -0.0000 electrons
 Dipole moment (field-independent basis, Debye):
    X=             -0.0000    Y=             -0.0000    Z=              1.8548  Tot=              1.8548
 Unable to Open any file for archive entry.
 1\1\GINC-SE333\Stability\RHF\Aug-CC-pVDZ\F2H2Si1\OHZDE\08-Apr-2025\0\\
 #t hf aug-cc-pvdz symm=none int=(grid=ultrafine) guess=(read,tcheck) s
 table=(opt,rrhf)\\title\\0,1\Si,0,0.,0.,0.450113\F,0,0.,1.29063,-0.487
 796\F,0,0.,-1.29063,-0.487796\H,0,-1.237675,0.,1.239369\H,0,1.237675,0
 .,1.239369\\Version=ES64L-G16RevC.01\HF=-489.1179054\RMSD=2.565e-09\Di
 pole=0.,0.,0.7297364\Quadrupole=1.058572,-1.9129558,0.8543838,0.,0.,0.
 \PG=Unknown\\@
 The archive entry for this job was punched.


 ONE THORN OF EXPERIENCE IS WORTH A WHOLE WILDERNESS OF
 WARNING....  LOWELL - AMONG MY BOOKS
 Job cpu time:       0 days  0 hours  0 minutes 15.4 seconds.
 Elapsed time:       0 days  0 hours  0 minutes  1.8 seconds.
 File lengths (MBytes):  RWF=     81 Int=      0 D2E=      0 Chk=      2 Scr=      1
 Normal termination of Gaussian 16 at Tue Apr  8 23:55:17 2025.
 Initial command:
 /arc/software/Gaussian/g16.c01/l1.exe "/tmp/slurm/4849249/Gau-1023237.inp" -scrdir="/tmp/slurm/4849249/"
 Entering Link 1 = /arc/software/Gaussian/g16.c01/l1.exe PID=   1023449.
  
 Copyright (c) 1988-2019, Gaussian, Inc.  All Rights Reserved.
  
 This is part of the Gaussian(R) 16 program.  It is based on
 the Gaussian(R) 09 system (copyright 2009, Gaussian, Inc.),
 the Gaussian(R) 03 system (copyright 2003, Gaussian, Inc.),
 the Gaussian(R) 98 system (copyright 1998, Gaussian, Inc.),
 the Gaussian(R) 94 system (copyright 1995, Gaussian, Inc.),
 the Gaussian 92(TM) system (copyright 1992, Gaussian, Inc.),
 the Gaussian 90(TM) system (copyright 1990, Gaussian, Inc.),
 the Gaussian 88(TM) system (copyright 1988, Gaussian, Inc.),
 the Gaussian 86(TM) system (copyright 1986, Carnegie Mellon
 University), and the Gaussian 82(TM) system (copyright 1983,
 Carnegie Mellon University). Gaussian is a federally registered
 trademark of Gaussian, Inc.
  
 This software contains proprietary and confidential information,
 including trade secrets, belonging to Gaussian, Inc.
  
 This software is provided under written license and may be
 used, copied, transmitted, or stored only in accord with that
 written license.
  
 The following legend is applicable only to US Government
 contracts under FAR:
  
                    RESTRICTED RIGHTS LEGEND
  
 Use, reproduction and disclosure by the US Government is
 subject to restrictions as set forth in subparagraphs (a)
 and (c) of the Commercial Computer Software - Restricted
 Rights clause in FAR 52.227-19.
  
 Gaussian, Inc.
 340 Quinnipiac St., Bldg. 40, Wallingford CT 06492
  
  
 ---------------------------------------------------------------
 Warning -- This program may not be used in any manner that
 competes with the business of Gaussian, Inc. or will provide
 assistance to any competitor of Gaussian, Inc.  The licensee
 of this program is prohibited from giving any competitor of
 Gaussian, Inc. access to this program.  By using this program,
 the user acknowledges that Gaussian, Inc. is engaged in the
 business of creating and licensing software in the field of
 computational chemistry and represents and warrants to the
 licensee that it is not a competitor of Gaussian, Inc. and that
 it will not use this program in any manner prohibited above.
 ---------------------------------------------------------------
  

 Cite this work as:
 Gaussian 16, Revision C.01,
 M. J. Frisch, G. W. Trucks, H. B. Schlegel, G. E. Scuseria, 
 M. A. Robb, J. R. Cheeseman, G. Scalmani, V. Barone, 
 G. A. Petersson, H. Nakatsuji, X. Li, M. Caricato, A. V. Marenich, 
 J. Bloino, B. G. Janesko, R. Gomperts, B. Mennucci, H. P. Hratchian, 
 J. V. Ortiz, A. F. Izmaylov, J. L. Sonnenberg, D. Williams-Young, 
 F. Ding, F. Lipparini, F. Egidi, J. Goings, B. Peng, A. Petrone, 
 T. Henderson, D. Ranasinghe, V. G. Zakrzewski, J. Gao, N. Rega, 
 G. Zheng, W. Liang, M. Hada, M. Ehara, K. Toyota, R. Fukuda, 
 J. Hasegawa, M. Ishida, T. Nakajima, Y. Honda, O. Kitao, H. Nakai, 
 T. Vreven, K. Throssell, J. A. Montgomery, Jr., J. E. Peralta, 
 F. Ogliaro, M. J. Bearpark, J. J. Heyd, E. N. Brothers, K. N. Kudin, 
 V. N. Staroverov, T. A. Keith, R. Kobayashi, J. Normand, 
 K. Raghavachari, A. P. Rendell, J. C. Burant, S. S. Iyengar, 
 J. Tomasi, M. Cossi, J. M. Millam, M. Klene, C. Adamo, R. Cammi, 
 J. W. Ochterski, R. L. Martin, K. Morokuma, O. Farkas, 
 J. B. Foresman, and D. J. Fox, Gaussian, Inc., Wallingford CT, 2019.
 
 ******************************************
 Gaussian 16:  ES64L-G16RevC.01  3-Jul-2019
                 8-Apr-2025 
 ******************************************
 %nprocs=16
 Will use up to   16 processors via shared memory.
 %mem=30GB
 %chk=BDE49_nonexpt_1986_mol1.chk
 ----------------------------------------------------------------------
 #t hf aug-cc-pvdz iop(5/13=1,5/36=2,99/5=2) pseudo=read geom=check gue
 ss=(read,tcheck) scf=(maxcycle=1)
 ----------------------------------------------------------------------
 -----
 title
 -----
 Structure from the checkpoint file:  "BDE49_nonexpt_1986_mol1.chk"
 Charge =  0 Multiplicity = 1
 Z-Matrix found in chk file.
 Si,0,0.,0.,0.450113
 F,0,0.,1.29063,-0.487796
 F,0,0.,-1.29063,-0.487796
 H,0,-1.237675,0.,1.239369
 H,0,1.237675,0.,1.239369
 Recover connectivity data from disk.
                    Distance matrix (angstroms):
                    1          2          3          4          5
     1  Si   0.000000
     2  F    1.595431   0.000000
     3  F    1.595431   2.581260   0.000000
     4  H    1.467912   2.486094   2.486094   0.000000
     5  H    1.467912   2.486094   2.486094   2.475350   0.000000
 Framework group  C2V[C2(Si),SGV(F2),SGV'(H2)]
 Deg. of freedom     4
                         Standard orientation:                         
 ---------------------------------------------------------------------
 Center     Atomic      Atomic             Coordinates (Angstroms)
 Number     Number       Type             X           Y           Z
 ---------------------------------------------------------------------
      1         14           0       -0.000000   -0.000000    0.450113
      2          9           0        0.000000    1.290630   -0.487796
      3          9           0       -0.000000   -1.290630   -0.487796
      4          1           0       -1.237675    0.000000    1.239369
      5          1           0        1.237675   -0.000000    1.239369
 ---------------------------------------------------------------------
 Rotational constants (GHZ):          24.3924674           7.6134328           6.2451638
 ======================================================================================================
                                       Pseudopotential Parameters
 ======================================================================================================
  Center     Atomic      Valence      Angular      Power
  Number     Number     Electrons     Momentum     of R      Exponent        Coefficient   SO-Coeffient
 ======================================================================================================
    1         14           14
                                      G and up 
                                                     0        0.0000010       -0.00102307    0.00000000
                                                     2        0.1200000        0.00490993    0.00000000
                                                     2        0.1400000       -0.01106599    0.00000000
                                                     2        0.2200000        0.05301915    0.00000000
                                                     2        0.3000000       -0.05427393    0.00000000
                                                     2        0.6000000       -0.20148550    0.00000000
                                      S - G
                                                     0        0.0000010       -0.00096383    0.00000000
                                                     2        0.1200000       -0.05566998    0.00000000
                                                     2        0.2800000        0.06986809    0.00000000
                                                     2        0.8000000        0.18625194    0.00000000
                                      P - G
                                                     0        0.0000010       -0.03837268    0.00000000
                                                     2        0.1200000       -0.19497759    0.00000000
                                                     2        0.1400000        0.28757076    0.00000000
                                                     2        0.2800000       -0.24963270    0.00000000
                                                     2        1.0000000        1.25739652    0.00000000
                                      D - G
                                                     0        0.0000010        0.02249755    0.00000000
                                                     2        0.1800000       -0.04521011    0.00000000
                                                     2        0.4000000        0.14019324    0.00000000
                                      F - G
                                                     0        0.0000010        0.04694636    0.00000000
                                                     2        0.1200000        0.05516301    0.00000000
                                                     2        0.1600000       -0.18839048    0.00000000
                                                     2        0.4000000        0.63201960    0.00000000
    2          9            9
                                      G and up 
                                                     0        0.0000010        0.00055569    0.00000000
                                                     2        0.1200000       -0.17741904    0.00000000
                                                     2        0.1400000        1.01928615    0.00000000
                                                     2        0.1600000       -1.52148367    0.00000000
                                                     2        0.2200000        1.83718211    0.00000000
                                                     2        0.3000000       -2.87348318    0.00000000
                                                     2        0.4000000        2.99646231    0.00000000
                                                     2        0.6000000       -2.11894556    0.00000000
                                                     2        1.3000000        1.79216257    0.00000000
                                      S - G
                                                     0        0.0000010       -0.00623030    0.00000000
                                                     2        0.1200000        0.13717684    0.00000000
                                                     2        0.2200000       -0.32899255    0.00000000
                                      P - G
                                                     0        0.0000010       -0.03918431    0.00000000
                                                     2        0.1200000       -0.03806127    0.00000000
                                                     2        0.3000000        0.26895041    0.00000000
                                                     2        0.8000000       -0.57822379    0.00000000
                                      D - G
                                                     0        0.0000010        0.21590327    0.00000000
                                                     2        0.1200000       -0.34443966    0.00000000
                                                     2        0.1600000        0.69000806    0.00000000
                                                     2        0.2600000       -0.73210453    0.00000000
                                      F - G
                                                     0        0.0000010       -0.14642430    0.00000000
                                                     2        0.1200000        0.06245232    0.00000000
                                                     2        0.2800000       -0.60801466    0.00000000
                                                     2        0.5000000        2.37940491    0.00000000
    3          9            9
                                      G and up 
                                                     0        0.0000010        0.00055569    0.00000000
                                                     2        0.1200000       -0.17741904    0.00000000
                                                     2        0.1400000        1.01928615    0.00000000
                                                     2        0.1600000       -1.52148367    0.00000000
                                                     2        0.2200000        1.83718211    0.00000000
                                                     2        0.3000000       -2.87348318    0.00000000
                                                     2        0.4000000        2.99646231    0.00000000
                                                     2        0.6000000       -2.11894556    0.00000000
                                                     2        1.3000000        1.79216257    0.00000000
                                      S - G
                                                     0        0.0000010       -0.00623030    0.00000000
                                                     2        0.1200000        0.13717684    0.00000000
                                                     2        0.2200000       -0.32899255    0.00000000
                                      P - G
                                                     0        0.0000010       -0.03918431    0.00000000
                                                     2        0.1200000       -0.03806127    0.00000000
                                                     2        0.3000000        0.26895041    0.00000000
                                                     2        0.8000000       -0.57822379    0.00000000
                                      D - G
                                                     0        0.0000010        0.21590327    0.00000000
                                                     2        0.1200000       -0.34443966    0.00000000
                                                     2        0.1600000        0.69000806    0.00000000
                                                     2        0.2600000       -0.73210453    0.00000000
                                      F - G
                                                     0        0.0000010       -0.14642430    0.00000000
                                                     2        0.1200000        0.06245232    0.00000000
                                                     2        0.2800000       -0.60801466    0.00000000
                                                     2        0.5000000        2.37940491    0.00000000
    4          1            1
                                      F and up 
                                                     0        0.0000010       -0.00007675    0.00000000
                                                     2        0.1200000        0.05352699    0.00000000
                                                     2        0.1400000       -0.25123645    0.00000000
                                                     2        0.1600000        0.32188106    0.00000000
                                                     2        0.2200000       -0.25206857    0.00000000
                                                     2        0.3000000        0.19290477    0.00000000
                                                     2        0.5000000       -0.10129770    0.00000000
                                                     2        0.9000000        0.00314995    0.00000000
                                                     2        1.5000000        0.18401192    0.00000000
                                      S - F
                                                     0        0.0000010        0.08065976    0.00000000
                                                     2        0.1200000       -0.09231673    0.00000000
                                                     2        0.1600000       -0.03278082    0.00000000
                                                     2        0.2800000        0.38423402    0.00000000
                                                     2        0.6000000       -1.09357590    0.00000000
                                                     2        1.1000000        1.53099489    0.00000000
                                                     2        3.0000000       -2.63300202    0.00000000
                                      P - F
                                                     0        0.0000010       -0.11638665    0.00000000
                                                     2        0.1200000        0.35468655    0.00000000
                                                     2        0.1600000       -0.59160923    0.00000000
                                                     2        0.3000000        0.49390547    0.00000000
                                                     2        0.6000000       -0.37949835    0.00000000
                                                     2        1.6000000        0.89304688    0.00000000
                                      D - F
                                                     0        0.0000010        0.05443663    0.00000000
                                                     2        0.1200000       -0.29679479    0.00000000
                                                     2        0.1400000        0.36849872    0.00000000
                                                     2        0.2400000        0.02793449    0.00000000
                                                     2        0.4000000       -0.46312857    0.00000000
                                                     2        0.7000000        0.97587598    0.00000000
                                                     2        1.5000000       -2.43431102    0.00000000
    5          1            1
                                      F and up 
                                                     0        0.0000010       -0.00007675    0.00000000
                                                     2        0.1200000        0.05352699    0.00000000
                                                     2        0.1400000       -0.25123645    0.00000000
                                                     2        0.1600000        0.32188106    0.00000000
                                                     2        0.2200000       -0.25206857    0.00000000
                                                     2        0.3000000        0.19290477    0.00000000
                                                     2        0.5000000       -0.10129770    0.00000000
                                                     2        0.9000000        0.00314995    0.00000000
                                                     2        1.5000000        0.18401192    0.00000000
                                      S - F
                                                     0        0.0000010        0.08065976    0.00000000
                                                     2        0.1200000       -0.09231673    0.00000000
                                                     2        0.1600000       -0.03278082    0.00000000
                                                     2        0.2800000        0.38423402    0.00000000
                                                     2        0.6000000       -1.09357590    0.00000000
                                                     2        1.1000000        1.53099489    0.00000000
                                                     2        3.0000000       -2.63300202    0.00000000
                                      P - F
                                                     0        0.0000010       -0.11638665    0.00000000
                                                     2        0.1200000        0.35468655    0.00000000
                                                     2        0.1600000       -0.59160923    0.00000000
                                                     2        0.3000000        0.49390547    0.00000000
                                                     2        0.6000000       -0.37949835    0.00000000
                                                     2        1.6000000        0.89304688    0.00000000
                                      D - F
                                                     0        0.0000010        0.05443663    0.00000000
                                                     2        0.1200000       -0.29679479    0.00000000
                                                     2        0.1400000        0.36849872    0.00000000
                                                     2        0.2400000        0.02793449    0.00000000
                                                     2        0.4000000       -0.46312857    0.00000000
                                                     2        0.7000000        0.97587598    0.00000000
                                                     2        1.5000000       -2.43431102    0.00000000
 ======================================================================================================
    91 basis functions,   189 primitive gaussians,    97 cartesian basis functions
    17 alpha electrons       17 beta electrons
       nuclear repulsion energy       118.1601649015 Hartrees.
 NAtoms=    5 NActive=    5 NUniq=    3 SFac= 2.78D+00 NAtFMM=   60 NAOKFM=F Big=F
   4 Symmetry operations used in ECPInt.
 ECPInt:  NShTT=     780 NPrTT=    5574 LenC2=     780 LenP2D=    4573.
 LDataN:  DoStor=T MaxTD1= 6 Len=  172
 Initial guess from the checkpoint file:  "BDE49_nonexpt_1986_mol1.chk"
 B after Tr=    -0.000000   -0.000000    0.000000
         Rot=    1.000000   -0.000000   -0.000000    0.000000 Ang=   0.00 deg.
 Initial guess orbital symmetries:
       Occupied  (A1) (B2) (A1) (A1) (B2) (A1) (B1) (A1) (B2) (A1)
                 (B2) (A1) (B1) (A2) (B2) (A1) (B1)
       Virtual   (A1) (B2) (A1) (B1) (B1) (A1) (A1) (B2) (B2) (A1)
                 (B1) (A2) (A1) (A1) (A2) (B1) (A1) (B2) (B2) (B1)
                 (B1) (A1) (A1) (B1) (A1) (B2) (B2) (A2) (A1) (B1)
                 (B2) (A1) (A2) (A1) (A1) (B1) (A1) (B2) (A1) (B1)
                 (A2) (B2) (B1) (A1) (B2) (A2) (B1) (B2) (A1) (A1)
                 (B1) (A2) (B2) (A1) (B2) (B1) (A1) (A1) (A2) (B2)
                 (A1) (B1) (B2) (A1) (B2) (A2) (A1) (B1) (B1) (A1)
                 (A2) (B2) (B2) (A1)
 >>>>>>>>>> Convergence criterion not met.
 SCF Done:  E(RHF) =  -489.332313977     A.U. after    2 cycles
            NFock=  1  Conv=0.42D-02     -V/T= 2.0054

 **********************************************************************

            Population analysis using the SCF Density.

 **********************************************************************

 Orbital symmetries:
       Occupied  (A1) (B2) (A1) (A1) (B2) (A1) (B1) (A1) (B2) (A1)
                 (B2) (A1) (B1) (A2) (B2) (A1) (B1)
       Virtual   (A1) (B2) (A1) (B1) (B1) (A1) (A1) (B2) (B2) (A1)
                 (B1) (A2) (A1) (A1) (B1) (A2) (A1) (B2) (B2) (B1)
                 (B1) (A1) (A1) (B1) (A1) (B2) (B2) (A2) (A1) (B1)
                 (B2) (A1) (A2) (A1) (A1) (B1) (A1) (B2) (A1) (B1)
                 (A2) (B2) (A1) (B1) (B2) (A2) (B1) (B2) (A1) (A1)
                 (B1) (B2) (A2) (A1) (B2) (B1) (A1) (A1) (A2) (B2)
                 (A1) (B1) (B2) (A1) (B2) (A2) (A1) (B1) (B1) (A1)
                 (A2) (B2) (B2) (A1)
 The electronic state is 1-A1.
 Alpha  occ. eigenvalues --  -69.63704 -26.47020 -26.47020  -6.29876  -4.05321
 Alpha  occ. eigenvalues --   -4.05154  -4.04968  -1.59555  -1.57326  -0.80669
 Alpha  occ. eigenvalues --   -0.70415  -0.68790  -0.68422  -0.64174  -0.62372
 Alpha  occ. eigenvalues --   -0.59383  -0.50513
 Alpha virt. eigenvalues --    0.04405   0.05251   0.05270   0.05838   0.09256
 Alpha virt. eigenvalues --    0.13636   0.15565   0.16474   0.20949   0.22236
 Alpha virt. eigenvalues --    0.24979   0.25380   0.26333   0.29401   0.31450
 Alpha virt. eigenvalues --    0.31545   0.33737   0.34116   0.37412   0.37686
 Alpha virt. eigenvalues --    0.38264   0.40176   0.45241   0.48503   0.51142
 Alpha virt. eigenvalues --    0.54983   0.56419   0.57076   0.58853   0.67911
 Alpha virt. eigenvalues --    0.68473   0.70587   0.73981   0.75823   0.85534
 Alpha virt. eigenvalues --    0.97378   1.00646   1.05968   1.24936   1.28202
 Alpha virt. eigenvalues --    1.31132   1.34853   1.45448   1.46745   1.48886
 Alpha virt. eigenvalues --    1.51666   1.54005   1.55827   1.57975   1.68468
 Alpha virt. eigenvalues --    1.76699   1.76989   1.76994   1.93889   1.95113
 Alpha virt. eigenvalues --    2.02589   2.12738   2.23391   2.27673   2.27830
 Alpha virt. eigenvalues --    2.37660   2.45795   3.10263   3.26465   5.08917
 Alpha virt. eigenvalues --    5.08976   5.12909   5.13425   5.23134   5.23759
 Alpha virt. eigenvalues --    5.23877   5.23910   5.28781   5.30702
          Condensed to atoms (all electrons):
 Mulliken charges:
               1
     1  Si   2.087816
     2  F   -0.804017
     3  F   -0.804017
     4  H   -0.239891
     5  H   -0.239891
 Sum of Mulliken charges =  -0.00000
 Mulliken charges with hydrogens summed into heavy atoms:
               1
     1  Si   1.608034
     2  F   -0.804017
     3  F   -0.804017
 Electronic spatial extent (au):  <R**2>=            209.3009
 Charge=              0.0000 electrons
 Dipole moment (field-independent basis, Debye):
    X=              0.0000    Y=              0.0000    Z=              1.6890  Tot=              1.6890

 Test job not archived.
 1\1\GINC-SE333\SP\RHF\Aug-CC-pVDZ\F2H2Si1\OHZDE\08-Apr-2025\0\\#t hf a
 ug-cc-pvdz iop(5/13=1,5/36=2,99/5=2) pseudo=read geom=check guess=(rea
 d,tcheck) scf=(maxcycle=1)\\title\\0,1\Si,0,0.,0.,0.450113\F,0,0.,1.29
 063,-0.487796\F,0,0.,-1.29063,-0.487796\H,0,-1.237675,0.,1.239369\H,0,
 1.237675,0.,1.239369\\Version=ES64L-G16RevC.01\State=1-A1\HF=-489.3323
 14\RMSD=4.218e-03\Dipole=0.,0.,0.6645006\Quadrupole=0.973508,-1.746014
 7,0.7725067,0.,0.,0.\PG=C02V [C2(Si1),SGV(F2),SGV'(H2)]\\@


 One man practicing sportsmanship is far better than 50 preaching it.
 -- Knute K. Rockne
 Job cpu time:       0 days  0 hours  0 minutes  8.5 seconds.
 Elapsed time:       0 days  0 hours  0 minutes  1.1 seconds.
 File lengths (MBytes):  RWF=      6 Int=      0 D2E=      0 Chk=      2 Scr=      1
 Normal termination of Gaussian 16 at Tue Apr  8 23:55:18 2025.
