 Entering Gaussian System, Link 0=g16
 Input=BDE49_nonexpt_1031_mol2.gjf
 Output=BDE49_nonexpt_1031_mol2.log
 Initial command:
 /arc/software/Gaussian/g16.c01/l1.exe "/tmp/slurm/4843925/Gau-942873.inp" -scrdir="/tmp/slurm/4843925/"
 Entering Link 1 = /arc/software/Gaussian/g16.c01/l1.exe PID=    942890.
  
 Copyright (c) 1988-2019, Gaussian, Inc.  All Rights Reserved.
  
 This is part of the Gaussian(R) 16 program.  It is based on
 the Gaussian(R) 09 system (copyright 2009, Gaussian, Inc.),
 the Gaussian(R) 03 system (copyright 2003, Gaussian, Inc.),
 the Gaussian(R) 98 system (copyright 1998, Gaussian, Inc.),
 the Gaussian(R) 94 system (copyright 1995, Gaussian, Inc.),
 the Gaussian 92(TM) system (copyright 1992, Gaussian, Inc.),
 the Gaussian 90(TM) system (copyright 1990, Gaussian, Inc.),
 the Gaussian 88(TM) system (copyright 1988, Gaussian, Inc.),
 the Gaussian 86(TM) system (copyright 1986, Carnegie Mellon
 University), and the Gaussian 82(TM) system (copyright 1983,
 Carnegie Mellon University). Gaussian is a federally registered
 trademark of Gaussian, Inc.
  
 This software contains proprietary and confidential information,
 including trade secrets, belonging to Gaussian, Inc.
  
 This software is provided under written license and may be
 used, copied, transmitted, or stored only in accord with that
 written license.
  
 The following legend is applicable only to US Government
 contracts under FAR:
  
                    RESTRICTED RIGHTS LEGEND
  
 Use, reproduction and disclosure by the US Government is
 subject to restrictions as set forth in subparagraphs (a)
 and (c) of the Commercial Computer Software - Restricted
 Rights clause in FAR 52.227-19.
  
 Gaussian, Inc.
 340 Quinnipiac St., Bldg. 40, Wallingford CT 06492
  
  
 ---------------------------------------------------------------
 Warning -- This program may not be used in any manner that
 competes with the business of Gaussian, Inc. or will provide
 assistance to any competitor of Gaussian, Inc.  The licensee
 of this program is prohibited from giving any competitor of
 Gaussian, Inc. access to this program.  By using this program,
 the user acknowledges that Gaussian, Inc. is engaged in the
 business of creating and licensing software in the field of
 computational chemistry and represents and warrants to the
 licensee that it is not a competitor of Gaussian, Inc. and that
 it will not use this program in any manner prohibited above.
 ---------------------------------------------------------------
  

 Cite this work as:
 Gaussian 16, Revision C.01,
 M. J. Frisch, G. W. Trucks, H. B. Schlegel, G. E. Scuseria, 
 M. A. Robb, J. R. Cheeseman, G. Scalmani, V. Barone, 
 G. A. Petersson, H. Nakatsuji, X. Li, M. Caricato, A. V. Marenich, 
 J. Bloino, B. G. Janesko, R. Gomperts, B. Mennucci, H. P. Hratchian, 
 J. V. Ortiz, A. F. Izmaylov, J. L. Sonnenberg, D. Williams-Young, 
 F. Ding, F. Lipparini, F. Egidi, J. Goings, B. Peng, A. Petrone, 
 T. Henderson, D. Ranasinghe, V. G. Zakrzewski, J. Gao, N. Rega, 
 G. Zheng, W. Liang, M. Hada, M. Ehara, K. Toyota, R. Fukuda, 
 J. Hasegawa, M. Ishida, T. Nakajima, Y. Honda, O. Kitao, H. Nakai, 
 T. Vreven, K. Throssell, J. A. Montgomery, Jr., J. E. Peralta, 
 F. Ogliaro, M. J. Bearpark, J. J. Heyd, E. N. Brothers, K. N. Kudin, 
 V. N. Staroverov, T. A. Keith, R. Kobayashi, J. Normand, 
 K. Raghavachari, A. P. Rendell, J. C. Burant, S. S. Iyengar, 
 J. Tomasi, M. Cossi, J. M. Millam, M. Klene, C. Adamo, R. Cammi, 
 J. W. Ochterski, R. L. Martin, K. Morokuma, O. Farkas, 
 J. B. Foresman, and D. J. Fox, Gaussian, Inc., Wallingford CT, 2019.
 
 ******************************************
 Gaussian 16:  ES64L-G16RevC.01  3-Jul-2019
                 8-Apr-2025 
 ******************************************
 %nprocs=16
 Will use up to   16 processors via shared memory.
 %mem=30GB
 %chk=BDE49_nonexpt_1031_mol2.chk
 ----------------------------------------------------------------------
 #t hf aug-cc-pvdz symm=none int=(grid=ultrafine) guess=(read,tcheck) s
 table=opt
 ----------------------------------------------------------------------
 -----
 title
 -----
 Symbolic Z-matrix:
 Charge =  0 Multiplicity = 2
 O                     0.29827   0.00004   1.56871 
 C                    -0.02477   0.        0.32125 
 Cl                    1.69647   0.00022  -0.3813 
 Cl                   -0.91425   1.4671   -0.23515 
 Cl                   -0.91385  -1.46734  -0.23515 
 
                    Distance matrix (angstroms):
                    1          2          3          4          5
     1  O    0.000000
     2  C    1.288606   0.000000
     3  Cl   2.399479   1.859102   0.000000
     4  Cl   2.622280   1.803643   2.998163   0.000000
     5  Cl   2.622271   1.803639   2.998141   2.934437   0.000000
 Symmetry turned off by external request.
 Rotational constants (GHZ):           2.5256070           2.4060098           1.6246961
   127 basis functions,   329 primitive gaussians,   137 cartesian basis functions
    33 alpha electrons       32 beta electrons
       nuclear repulsion energy       347.6144263896 Hartrees.
 NAtoms=    5 NActive=    5 NUniq=    5 SFac= 1.00D+00 NAtFMM=   60 NAOKFM=F Big=F
 ExpMin= 4.04D-02 ExpMax= 1.28D+05 ExpMxC= 1.24D+03 IAcc=3 IRadAn=         5 AccDes= 0.00D+00
 Harris functional with IExCor=  205 and IRadAn=       5 diagonalized for initial guess.
 HarFok:  IExCor=  205 AccDes= 0.00D+00 IRadAn=         5 IDoV= 1 UseB2=F ITyADJ=14
 ICtDFT=  3500011 ScaDFX=  1.000000  1.000000  1.000000  1.000000
 FoFCou: FMM=F IPFlag=           0 FMFlag=      100000 FMFlg1=           0
         NFxFlg=           0 DoJE=T BraDBF=F KetDBF=T FulRan=T
         wScrn=  0.000000 ICntrl=       500 IOpCl=  0 I1Cent=   200000004 NGrid=           0
         NMat0=    1 NMatS0=      1 NMatT0=    0 NMatD0=    1 NMtDS0=    0 NMtDT0=    0
 Symmetry not used in FoFCou.
 Initial guess <Sx>= 0.0000 <Sy>= 0.0000 <Sz>= 0.5000 <S**2>= 0.7500 S= 0.5000
 SCF Done:  E(UHF) =  -1491.18088128     A.U. after   20 cycles
            NFock= 20  Conv=0.46D-08     -V/T= 2.0000
 <Sx>= 0.0000 <Sy>= 0.0000 <Sz>= 0.5000 <S**2>= 0.7778 S= 0.5138
 <L.S>=  0.00000000000    
 Annihilation of the first spin contaminant:
 S**2 before annihilation     0.7778,   after     0.7504

 **********************************************************************

            Population analysis using the SCF Density.

 **********************************************************************

 Alpha  occ. eigenvalues -- -104.88570-104.87779-104.87779 -20.71963 -11.51083
 Alpha  occ. eigenvalues --  -10.61112 -10.60395 -10.60392  -8.08307  -8.07452
 Alpha  occ. eigenvalues --   -8.07400  -8.07209  -8.07209  -8.06777  -8.06777
 Alpha  occ. eigenvalues --   -8.06767  -8.06767  -1.54969  -1.20897  -1.13777
 Alpha  occ. eigenvalues --   -1.12837  -0.86569  -0.78448  -0.72614  -0.71602
 Alpha  occ. eigenvalues --   -0.59164  -0.55668  -0.52183  -0.50918  -0.50909
 Alpha  occ. eigenvalues --   -0.47931  -0.47771  -0.46612
 Alpha virt. eigenvalues --    0.05468   0.07947   0.08326   0.08455   0.10307
 Alpha virt. eigenvalues --    0.12183   0.12723   0.14281   0.14679   0.14848
 Alpha virt. eigenvalues --    0.18563   0.18629   0.18785   0.19222   0.22015
 Alpha virt. eigenvalues --    0.22784   0.27944   0.28733   0.29188   0.31141
 Alpha virt. eigenvalues --    0.31996   0.32585   0.32786   0.37353   0.41651
 Alpha virt. eigenvalues --    0.41971   0.44001   0.44150   0.47365   0.52149
 Alpha virt. eigenvalues --    0.53651   0.53887   0.55457   0.55739   0.64382
 Alpha virt. eigenvalues --    0.67440   0.68606   0.69423   0.70217   0.71998
 Alpha virt. eigenvalues --    0.72831   0.79980   0.82010   0.85328   0.89194
 Alpha virt. eigenvalues --    0.89883   0.92579   0.97707   0.98965   1.01348
 Alpha virt. eigenvalues --    1.03534   1.04228   1.06876   1.12786   1.16140
 Alpha virt. eigenvalues --    1.17086   1.21940   1.23888   1.25473   1.32066
 Alpha virt. eigenvalues --    1.32982   1.35967   1.38093   1.38201   1.40885
 Alpha virt. eigenvalues --    1.41438   1.42471   1.43153   1.43370   1.45867
 Alpha virt. eigenvalues --    1.46222   1.47447   1.47548   1.50470   1.50648
 Alpha virt. eigenvalues --    1.52416   1.53899   1.79523   1.82076   1.87497
 Alpha virt. eigenvalues --    1.88740   1.96773   2.10196   2.13045   2.18604
 Alpha virt. eigenvalues --    2.27716   2.33926   2.38887   3.05663   3.60078
 Alpha virt. eigenvalues --    3.60354   3.64992   3.70995   3.87771
  Beta  occ. eigenvalues -- -104.88271-104.87753-104.87753 -20.68006 -11.51715
  Beta  occ. eigenvalues --  -10.60803 -10.60370 -10.60367  -8.07386  -8.07232
  Beta  occ. eigenvalues --   -8.07083  -8.07083  -8.06950  -8.06767  -8.06767
  Beta  occ. eigenvalues --   -8.06757  -8.06757  -1.44015  -1.18739  -1.12635
  Beta  occ. eigenvalues --   -1.11504  -0.83838  -0.70739  -0.69741  -0.64686
  Beta  occ. eigenvalues --   -0.53811  -0.51999  -0.50637  -0.49671  -0.47865
  Beta  occ. eigenvalues --   -0.47512  -0.46510
  Beta virt. eigenvalues --   -0.00766   0.05493   0.08334   0.08410   0.09132
  Beta virt. eigenvalues --    0.10606   0.12350   0.12591   0.14543   0.14747
  Beta virt. eigenvalues --    0.14896   0.18583   0.18719   0.18778   0.20846
  Beta virt. eigenvalues --    0.22169   0.22641   0.27973   0.28860   0.29301
  Beta virt. eigenvalues --    0.32137   0.32804   0.33263   0.35118   0.37582
  Beta virt. eigenvalues --    0.41869   0.42008   0.44147   0.44644   0.48159
  Beta virt. eigenvalues --    0.52363   0.53831   0.54027   0.55599   0.57869
  Beta virt. eigenvalues --    0.64630   0.67892   0.69405   0.70220   0.71093
  Beta virt. eigenvalues --    0.72145   0.73310   0.80452   0.82682   0.86178
  Beta virt. eigenvalues --    0.89714   0.91453   0.93120   0.98655   0.98987
  Beta virt. eigenvalues --    1.01436   1.04474   1.04477   1.06964   1.15783
  Beta virt. eigenvalues --    1.17650   1.17838   1.22500   1.24456   1.27343
  Beta virt. eigenvalues --    1.32775   1.33225   1.36149   1.38461   1.38569
  Beta virt. eigenvalues --    1.41965   1.42091   1.43122   1.43303   1.43416
  Beta virt. eigenvalues --    1.46475   1.47167   1.47719   1.48955   1.51119
  Beta virt. eigenvalues --    1.51424   1.53281   1.54353   1.82090   1.83507
  Beta virt. eigenvalues --    1.88070   1.89032   1.97059   2.13180   2.14227
  Beta virt. eigenvalues --    2.19254   2.27927   2.35051   2.39851   3.08686
  Beta virt. eigenvalues --    3.68073   3.68632   3.73907   3.74115   3.91893
          Condensed to atoms (all electrons):
          Atomic-Atomic Spin Densities.
 Mulliken charges and spin densities:
               1          2
     1  O   -0.280051   1.019487
     2  C   -0.282381  -0.278144
     3  Cl   0.188570   0.216238
     4  Cl   0.186930   0.021209
     5  Cl   0.186933   0.021210
 Sum of Mulliken charges =  -0.00000   1.00000
 Mulliken charges and spin densities with hydrogens summed into heavy atoms:
               1          2
     1  O   -0.280051   1.019487
     2  C   -0.282381  -0.278144
     3  Cl   0.188570   0.216238
     4  Cl   0.186930   0.021209
     5  Cl   0.186933   0.021210
 Electronic spatial extent (au):  <R**2>=            736.7808
 Charge=             -0.0000 electrons
 Dipole moment (field-independent basis, Debye):
    X=             -0.1122    Y=             -0.0000    Z=             -0.2227  Tot=              0.2494
                          Isotropic Fermi Contact Couplings
        Atom                 a.u.       MegaHertz       Gauss      10(-4) cm-1
     1  O(17)              0.27466    -166.49878     -59.41091     -55.53802
     2  C(13)             -0.10130    -113.87841     -40.63465     -37.98575
     3  Cl(35)             0.05832      25.57305       9.12510       8.53025
     4  Cl(35)            -0.00660      -2.89406      -1.03267      -0.96535
     5  Cl(35)            -0.00660      -2.89388      -1.03261      -0.96529
 --------------------------------------------------------
       Center         ----  Spin Dipole Couplings  ----
                      3XX-RR        3YY-RR        3ZZ-RR
 --------------------------------------------------------
     1   Atom        2.984254     -1.715973     -1.268282
     2   Atom       -0.103640      0.018709      0.084931
     3   Atom        0.170671     -0.732847      0.562176
     4   Atom       -0.083102      0.073833      0.009269
     5   Atom       -0.083140      0.073870      0.009270
 --------------------------------------------------------
                        XY            XZ            YZ
 --------------------------------------------------------
     1   Atom        0.000641     -1.575883     -0.000215
     2   Atom       -0.000017      0.091406      0.000012
     3   Atom        0.000111     -1.130466     -0.000138
     4   Atom       -0.066606      0.062722     -0.120063
     5   Atom        0.066567      0.062693      0.120086
 --------------------------------------------------------


 ---------------------------------------------------------------------------------
              Anisotropic Spin Dipole Couplings in Principal Axis System
 ---------------------------------------------------------------------------------

       Atom             a.u.   MegaHertz   Gauss  10(-4) cm-1        Axes

              Baa    -1.7886   129.422    46.181    43.170  0.3135  0.0000  0.9496
     1 O(17)  Bbb    -1.7160   124.167    44.306    41.418 -0.0001  1.0000 -0.0000
              Bcc     3.5046  -253.588   -90.487   -84.588  0.9496  0.0001 -0.3135
 
              Baa    -0.1407   -18.877    -6.736    -6.297  0.9268  0.0001 -0.3755
     2 C(13)  Bbb     0.0187     2.511     0.896     0.837 -0.0001  1.0000  0.0000
              Bcc     0.1220    16.367     5.840     5.459  0.3755  0.0000  0.9268
 
              Baa    -0.7809   -40.869   -14.583   -13.632  0.7651  0.0001  0.6440
     3 Cl(35) Bbb    -0.7328   -38.356   -13.686   -12.794 -0.0001  1.0000  0.0000
              Bcc     1.5137    79.224    28.269    26.426 -0.6440 -0.0001  0.7651
 
              Baa    -0.1152    -6.030    -2.152    -2.011  0.9182  0.0766 -0.3887
     4 Cl(35) Bbb    -0.0804    -4.209    -1.502    -1.404  0.2459  0.6593  0.7106
              Bcc     0.1956    10.239     3.654     3.415 -0.3107  0.7480 -0.5865
 
              Baa    -0.1152    -6.030    -2.152    -2.011  0.9182 -0.0764 -0.3887
     5 Cl(35) Bbb    -0.0804    -4.209    -1.502    -1.404  0.2460 -0.6592  0.7106
              Bcc     0.1956    10.239     3.654     3.416  0.3105  0.7481  0.5865
 

 ---------------------------------------------------------------------------------

 NROrb=    127 NOA=    33 NOB=    32 NVA=    94 NVB=    95

 **** Warning!!: The largest alpha MO coefficient is  0.13267398D+02


 **** Warning!!: The largest beta MO coefficient is  0.14341830D+02

    12 initial guesses have been made.
 Iteration     1 Dimension    12 NMult     0 NNew     12
 New state      1 was old state      7
 Iteration     2 Dimension    24 NMult    12 NNew     12
 Iteration     3 Dimension    27 NMult    24 NNew      3
 Iteration     4 Dimension    30 NMult    27 NNew      3
 Iteration     5 Dimension    33 NMult    30 NNew      3
 Iteration     6 Dimension    36 NMult    33 NNew      3
 Iteration     7 Dimension    39 NMult    36 NNew      3
 Iteration     8 Dimension    42 NMult    39 NNew      3
 ***********************************************************************
 Stability analysis using <AA,BB:AA,BB> singles matrix:
 ***********************************************************************
 Ground to excited state transition densities written to RWF  633

 Eigenvectors of the stability matrix:
 
 Excited state symmetry could not be determined.
 Eigenvector   1:  2.057-?Sym  Eigenvalue= 0.0172200  <S**2>=0.808
     23B -> 33B        0.39340
     23B -> 37B       -0.11117
     23B -> 47B        0.11770
     23B -> 56B       -0.10689
     26B -> 33B        0.53188
     26B -> 37B       -0.13280
     26B -> 47B        0.11304
     26B -> 56B       -0.11166
     29B -> 33B        0.50406
     29B -> 37B       -0.12596
     29B -> 47B        0.10408
     29B -> 56B       -0.10571
     31B -> 33B        0.28443
 The wavefunction is stable under the perturbations considered.
 The wavefunction is already stable.

 **********************************************************************

            Population analysis using the SCF Density.

 **********************************************************************

 Alpha  occ. eigenvalues -- -104.88570-104.87779-104.87779 -20.71963 -11.51083
 Alpha  occ. eigenvalues --  -10.61112 -10.60395 -10.60392  -8.08307  -8.07452
 Alpha  occ. eigenvalues --   -8.07400  -8.07209  -8.07209  -8.06777  -8.06777
 Alpha  occ. eigenvalues --   -8.06767  -8.06767  -1.54969  -1.20897  -1.13777
 Alpha  occ. eigenvalues --   -1.12837  -0.86569  -0.78448  -0.72614  -0.71602
 Alpha  occ. eigenvalues --   -0.59164  -0.55668  -0.52183  -0.50918  -0.50909
 Alpha  occ. eigenvalues --   -0.47931  -0.47771  -0.46612
 Alpha virt. eigenvalues --    0.05468   0.07947   0.08326   0.08455   0.10307
 Alpha virt. eigenvalues --    0.12183   0.12723   0.14281   0.14679   0.14848
 Alpha virt. eigenvalues --    0.18563   0.18629   0.18785   0.19222   0.22015
 Alpha virt. eigenvalues --    0.22784   0.27944   0.28733   0.29188   0.31141
 Alpha virt. eigenvalues --    0.31996   0.32585   0.32786   0.37353   0.41651
 Alpha virt. eigenvalues --    0.41971   0.44001   0.44150   0.47365   0.52149
 Alpha virt. eigenvalues --    0.53651   0.53887   0.55457   0.55739   0.64382
 Alpha virt. eigenvalues --    0.67440   0.68606   0.69423   0.70217   0.71998
 Alpha virt. eigenvalues --    0.72831   0.79980   0.82010   0.85328   0.89194
 Alpha virt. eigenvalues --    0.89883   0.92579   0.97707   0.98965   1.01348
 Alpha virt. eigenvalues --    1.03534   1.04228   1.06876   1.12786   1.16140
 Alpha virt. eigenvalues --    1.17086   1.21940   1.23888   1.25473   1.32066
 Alpha virt. eigenvalues --    1.32982   1.35967   1.38093   1.38201   1.40885
 Alpha virt. eigenvalues --    1.41438   1.42471   1.43153   1.43370   1.45867
 Alpha virt. eigenvalues --    1.46222   1.47447   1.47548   1.50470   1.50648
 Alpha virt. eigenvalues --    1.52416   1.53899   1.79523   1.82076   1.87497
 Alpha virt. eigenvalues --    1.88740   1.96773   2.10196   2.13045   2.18604
 Alpha virt. eigenvalues --    2.27716   2.33926   2.38887   3.05663   3.60078
 Alpha virt. eigenvalues --    3.60354   3.64992   3.70995   3.87771
  Beta  occ. eigenvalues -- -104.88271-104.87753-104.87753 -20.68006 -11.51715
  Beta  occ. eigenvalues --  -10.60803 -10.60370 -10.60367  -8.07386  -8.07232
  Beta  occ. eigenvalues --   -8.07083  -8.07083  -8.06950  -8.06767  -8.06767
  Beta  occ. eigenvalues --   -8.06757  -8.06757  -1.44015  -1.18739  -1.12635
  Beta  occ. eigenvalues --   -1.11504  -0.83838  -0.70739  -0.69741  -0.64686
  Beta  occ. eigenvalues --   -0.53811  -0.51999  -0.50637  -0.49671  -0.47865
  Beta  occ. eigenvalues --   -0.47512  -0.46510
  Beta virt. eigenvalues --   -0.00766   0.05493   0.08334   0.08410   0.09132
  Beta virt. eigenvalues --    0.10606   0.12350   0.12591   0.14543   0.14747
  Beta virt. eigenvalues --    0.14896   0.18583   0.18719   0.18778   0.20846
  Beta virt. eigenvalues --    0.22169   0.22641   0.27973   0.28860   0.29301
  Beta virt. eigenvalues --    0.32137   0.32804   0.33263   0.35118   0.37582
  Beta virt. eigenvalues --    0.41869   0.42008   0.44147   0.44644   0.48159
  Beta virt. eigenvalues --    0.52363   0.53831   0.54027   0.55599   0.57869
  Beta virt. eigenvalues --    0.64630   0.67892   0.69405   0.70220   0.71093
  Beta virt. eigenvalues --    0.72145   0.73310   0.80452   0.82682   0.86178
  Beta virt. eigenvalues --    0.89714   0.91453   0.93120   0.98655   0.98987
  Beta virt. eigenvalues --    1.01436   1.04474   1.04477   1.06964   1.15783
  Beta virt. eigenvalues --    1.17650   1.17838   1.22500   1.24456   1.27343
  Beta virt. eigenvalues --    1.32775   1.33225   1.36149   1.38461   1.38569
  Beta virt. eigenvalues --    1.41965   1.42091   1.43122   1.43303   1.43416
  Beta virt. eigenvalues --    1.46475   1.47167   1.47719   1.48955   1.51119
  Beta virt. eigenvalues --    1.51424   1.53281   1.54353   1.82090   1.83507
  Beta virt. eigenvalues --    1.88070   1.89032   1.97059   2.13180   2.14227
  Beta virt. eigenvalues --    2.19254   2.27927   2.35051   2.39851   3.08686
  Beta virt. eigenvalues --    3.68073   3.68632   3.73907   3.74115   3.91893
          Condensed to atoms (all electrons):
          Atomic-Atomic Spin Densities.
 Mulliken charges and spin densities:
               1          2
     1  O   -0.280051   1.019487
     2  C   -0.282381  -0.278144
     3  Cl   0.188570   0.216238
     4  Cl   0.186930   0.021209
     5  Cl   0.186933   0.021210
 Sum of Mulliken charges =  -0.00000   1.00000
 Mulliken charges and spin densities with hydrogens summed into heavy atoms:
               1          2
     1  O   -0.280051   1.019487
     2  C   -0.282381  -0.278144
     3  Cl   0.188570   0.216238
     4  Cl   0.186930   0.021209
     5  Cl   0.186933   0.021210
 Electronic spatial extent (au):  <R**2>=            736.7808
 Charge=             -0.0000 electrons
 Dipole moment (field-independent basis, Debye):
    X=             -0.1122    Y=             -0.0000    Z=             -0.2227  Tot=              0.2494
                          Isotropic Fermi Contact Couplings
        Atom                 a.u.       MegaHertz       Gauss      10(-4) cm-1
     1  O(17)              0.27466    -166.49878     -59.41091     -55.53802
     2  C(13)             -0.10130    -113.87841     -40.63465     -37.98575
     3  Cl(35)             0.05832      25.57305       9.12510       8.53025
     4  Cl(35)            -0.00660      -2.89406      -1.03267      -0.96535
     5  Cl(35)            -0.00660      -2.89388      -1.03261      -0.96529
 --------------------------------------------------------
       Center         ----  Spin Dipole Couplings  ----
                      3XX-RR        3YY-RR        3ZZ-RR
 --------------------------------------------------------
     1   Atom        2.984254     -1.715973     -1.268282
     2   Atom       -0.103640      0.018709      0.084931
     3   Atom        0.170671     -0.732847      0.562176
     4   Atom       -0.083102      0.073833      0.009269
     5   Atom       -0.083140      0.073870      0.009270
 --------------------------------------------------------
                        XY            XZ            YZ
 --------------------------------------------------------
     1   Atom        0.000641     -1.575883     -0.000215
     2   Atom       -0.000017      0.091406      0.000012
     3   Atom        0.000111     -1.130466     -0.000138
     4   Atom       -0.066606      0.062722     -0.120063
     5   Atom        0.066567      0.062693      0.120086
 --------------------------------------------------------


 ---------------------------------------------------------------------------------
              Anisotropic Spin Dipole Couplings in Principal Axis System
 ---------------------------------------------------------------------------------

       Atom             a.u.   MegaHertz   Gauss  10(-4) cm-1        Axes

              Baa    -1.7886   129.422    46.181    43.170  0.3135  0.0000  0.9496
     1 O(17)  Bbb    -1.7160   124.167    44.306    41.418 -0.0001  1.0000 -0.0000
              Bcc     3.5046  -253.588   -90.487   -84.588  0.9496  0.0001 -0.3135
 
              Baa    -0.1407   -18.877    -6.736    -6.297  0.9268  0.0001 -0.3755
     2 C(13)  Bbb     0.0187     2.511     0.896     0.837 -0.0001  1.0000  0.0000
              Bcc     0.1220    16.367     5.840     5.459  0.3755  0.0000  0.9268
 
              Baa    -0.7809   -40.869   -14.583   -13.632  0.7651  0.0001  0.6440
     3 Cl(35) Bbb    -0.7328   -38.356   -13.686   -12.794 -0.0001  1.0000  0.0000
              Bcc     1.5137    79.224    28.269    26.426 -0.6440 -0.0001  0.7651
 
              Baa    -0.1152    -6.030    -2.152    -2.011  0.9182  0.0766 -0.3887
     4 Cl(35) Bbb    -0.0804    -4.209    -1.502    -1.404  0.2459  0.6593  0.7106
              Bcc     0.1956    10.239     3.654     3.415 -0.3107  0.7480 -0.5865
 
              Baa    -0.1152    -6.030    -2.152    -2.011  0.9182 -0.0764 -0.3887
     5 Cl(35) Bbb    -0.0804    -4.209    -1.502    -1.404  0.2460 -0.6592  0.7106
              Bcc     0.1956    10.239     3.654     3.416  0.3105  0.7481  0.5865
 

 ---------------------------------------------------------------------------------

 Unable to Open any file for archive entry.
 1\1\GINC-SE339\Stability\UHF\Aug-CC-pVDZ\C1Cl3O1\OHZDE\08-Apr-2025\0\\
 #t hf aug-cc-pvdz symm=none int=(grid=ultrafine) guess=(read,tcheck) s
 table=opt\\title\\0,2\O,0,0.298272,0.000038,1.568705\C,0,-0.02477,0.00
 0001,0.321248\Cl,0,1.696474,0.000215,-0.381303\Cl,0,-0.914247,1.467102
 ,-0.235145\Cl,0,-0.913849,-1.467335,-0.235148\\Version=ES64L-G16RevC.0
 1\HF=-1491.1808813\S2=0.777796\S2-1=0.\S2A=0.750365\RMSD=4.603e-09\Dip
 ole=-0.0441431,-0.0000043,-0.0876358\Quadrupole=0.7487098,0.1664107,-0
 .9151206,0.0000504,-0.591148,-0.0000702\PG=Unknown\\@
 The archive entry for this job was punched.


 The arm of the moral universe is long, but it bends toward justice.
 -- Martin Luther King, Jr.
 Job cpu time:       0 days  0 hours  1 minutes  0.9 seconds.
 Elapsed time:       0 days  0 hours  0 minutes  6.8 seconds.
 File lengths (MBytes):  RWF=    151 Int=      0 D2E=      0 Chk=      4 Scr=      1
 Normal termination of Gaussian 16 at Tue Apr  8 23:16:52 2025.
 Initial command:
 /arc/software/Gaussian/g16.c01/l1.exe "/tmp/slurm/4843925/Gau-942873.inp" -scrdir="/tmp/slurm/4843925/"
 Entering Link 1 = /arc/software/Gaussian/g16.c01/l1.exe PID=    943206.
  
 Copyright (c) 1988-2019, Gaussian, Inc.  All Rights Reserved.
  
 This is part of the Gaussian(R) 16 program.  It is based on
 the Gaussian(R) 09 system (copyright 2009, Gaussian, Inc.),
 the Gaussian(R) 03 system (copyright 2003, Gaussian, Inc.),
 the Gaussian(R) 98 system (copyright 1998, Gaussian, Inc.),
 the Gaussian(R) 94 system (copyright 1995, Gaussian, Inc.),
 the Gaussian 92(TM) system (copyright 1992, Gaussian, Inc.),
 the Gaussian 90(TM) system (copyright 1990, Gaussian, Inc.),
 the Gaussian 88(TM) system (copyright 1988, Gaussian, Inc.),
 the Gaussian 86(TM) system (copyright 1986, Carnegie Mellon
 University), and the Gaussian 82(TM) system (copyright 1983,
 Carnegie Mellon University). Gaussian is a federally registered
 trademark of Gaussian, Inc.
  
 This software contains proprietary and confidential information,
 including trade secrets, belonging to Gaussian, Inc.
  
 This software is provided under written license and may be
 used, copied, transmitted, or stored only in accord with that
 written license.
  
 The following legend is applicable only to US Government
 contracts under FAR:
  
                    RESTRICTED RIGHTS LEGEND
  
 Use, reproduction and disclosure by the US Government is
 subject to restrictions as set forth in subparagraphs (a)
 and (c) of the Commercial Computer Software - Restricted
 Rights clause in FAR 52.227-19.
  
 Gaussian, Inc.
 340 Quinnipiac St., Bldg. 40, Wallingford CT 06492
  
  
 ---------------------------------------------------------------
 Warning -- This program may not be used in any manner that
 competes with the business of Gaussian, Inc. or will provide
 assistance to any competitor of Gaussian, Inc.  The licensee
 of this program is prohibited from giving any competitor of
 Gaussian, Inc. access to this program.  By using this program,
 the user acknowledges that Gaussian, Inc. is engaged in the
 business of creating and licensing software in the field of
 computational chemistry and represents and warrants to the
 licensee that it is not a competitor of Gaussian, Inc. and that
 it will not use this program in any manner prohibited above.
 ---------------------------------------------------------------
  

 Cite this work as:
 Gaussian 16, Revision C.01,
 M. J. Frisch, G. W. Trucks, H. B. Schlegel, G. E. Scuseria, 
 M. A. Robb, J. R. Cheeseman, G. Scalmani, V. Barone, 
 G. A. Petersson, H. Nakatsuji, X. Li, M. Caricato, A. V. Marenich, 
 J. Bloino, B. G. Janesko, R. Gomperts, B. Mennucci, H. P. Hratchian, 
 J. V. Ortiz, A. F. Izmaylov, J. L. Sonnenberg, D. Williams-Young, 
 F. Ding, F. Lipparini, F. Egidi, J. Goings, B. Peng, A. Petrone, 
 T. Henderson, D. Ranasinghe, V. G. Zakrzewski, J. Gao, N. Rega, 
 G. Zheng, W. Liang, M. Hada, M. Ehara, K. Toyota, R. Fukuda, 
 J. Hasegawa, M. Ishida, T. Nakajima, Y. Honda, O. Kitao, H. Nakai, 
 T. Vreven, K. Throssell, J. A. Montgomery, Jr., J. E. Peralta, 
 F. Ogliaro, M. J. Bearpark, J. J. Heyd, E. N. Brothers, K. N. Kudin, 
 V. N. Staroverov, T. A. Keith, R. Kobayashi, J. Normand, 
 K. Raghavachari, A. P. Rendell, J. C. Burant, S. S. Iyengar, 
 J. Tomasi, M. Cossi, J. M. Millam, M. Klene, C. Adamo, R. Cammi, 
 J. W. Ochterski, R. L. Martin, K. Morokuma, O. Farkas, 
 J. B. Foresman, and D. J. Fox, Gaussian, Inc., Wallingford CT, 2019.
 
 ******************************************
 Gaussian 16:  ES64L-G16RevC.01  3-Jul-2019
                 8-Apr-2025 
 ******************************************
 %nprocs=16
 Will use up to   16 processors via shared memory.
 %mem=30GB
 %chk=BDE49_nonexpt_1031_mol2.chk
 ----------------------------------------------------------------------
 #t hf aug-cc-pvdz iop(5/13=1,5/36=2,99/5=2) pseudo=read geom=check gue
 ss=(read,tcheck) scf=(maxcycle=1)
 ----------------------------------------------------------------------
 -----
 title
 -----
 Structure from the checkpoint file:  "BDE49_nonexpt_1031_mol2.chk"
 Charge =  0 Multiplicity = 2
 Z-Matrix found in chk file.
 O,0,0.298272,0.000038,1.568705
 C,0,-0.02477,0.000001,0.321248
 Cl,0,1.696474,0.000215,-0.381303
 Cl,0,-0.914247,1.467102,-0.235145
 Cl,0,-0.913849,-1.467335,-0.235148
 Recover connectivity data from disk.
                    Distance matrix (angstroms):
                    1          2          3          4          5
     1  O    0.000000
     2  C    1.288606   0.000000
     3  Cl   2.399479   1.859102   0.000000
     4  Cl   2.622280   1.803643   2.998163   0.000000
     5  Cl   2.622271   1.803639   2.998141   2.934437   0.000000
 Framework group  C1[X(CCl3O)]
 Deg. of freedom     9
                         Standard orientation:                         
 ---------------------------------------------------------------------
 Center     Atomic      Atomic             Coordinates (Angstroms)
 Number     Number       Type             X           Y           Z
 ---------------------------------------------------------------------
      1          8           0       -0.298272   -0.000039    1.568705
      2          6           0        0.024770   -0.000001    0.321248
      3         17           0       -1.696474   -0.000220   -0.381303
      4         17           0        0.914251   -1.467099   -0.235145
      5         17           0        0.913844    1.467338   -0.235148
 ---------------------------------------------------------------------
 Rotational constants (GHZ):           2.5256070           2.4060098           1.6246961
 ======================================================================================================
                                       Pseudopotential Parameters
 ======================================================================================================
  Center     Atomic      Valence      Angular      Power
  Number     Number     Electrons     Momentum     of R      Exponent        Coefficient   SO-Coeffient
 ======================================================================================================
    1          8            8
                                      G and up 
                                                     0        0.0000010        0.00049668    0.00000000
                                                     2        0.1200000       -0.01803391    0.00000000
                                                     2        0.1400000        0.04014195    0.00000000
                                                     2        0.2000000       -0.02692147    0.00000000
                                                     2        0.2800000       -0.04241843    0.00000000
                                                     2        0.4000000        0.15412145    0.00000000
                                                     2        0.7000000       -0.40587006    0.00000000
                                                     2        1.1000000        1.75666647    0.00000000
                                      S - G
                                                     0        0.0000010       -0.01088195    0.00000000
                                                     2        0.1200000        0.09867335    0.00000000
                                                     2        0.2400000       -0.08484177    0.00000000
                                                     2        0.6000000       -1.39011554    0.00000000
                                                     2        2.5000000        1.36225910    0.00000000
                                      P - G
                                                     0        0.0000010        0.05874028    0.00000000
                                                     2        0.1200000       -0.11700340    0.00000000
                                                     2        0.1600000        0.08847775    0.00000000
                                                     2        0.3000000        0.04709907    0.00000000
                                                     2        1.2000000       -1.80388338    0.00000000
                                      D - G
                                                     0        0.0000010       -0.00541262    0.00000000
                                                     2        0.1200000       -0.26547906    0.00000000
                                                     2        0.1600000        1.04289661    0.00000000
                                                     2        0.2400000       -1.92800913    0.00000000
                                                     2        0.4000000        2.26691633    0.00000000
                                                     2        0.7000000       -1.97391482    0.00000000
                                      F - G
                                                     0        0.0000010       -0.02604870    0.00000000
                                                     2        0.1200000        0.37362552    0.00000000
                                                     2        0.1600000       -1.43526367    0.00000000
                                                     2        0.2200000        1.76778079    0.00000000
                                                     2        0.5000000       -1.90846303    0.00000000
    2          6            6
                                      G and up 
                                                     0        0.0000010       -0.00007288    0.00000000
                                                     2        0.1200000        0.10466671    0.00000000
                                                     2        0.1400000       -0.65716157    0.00000000
                                                     2        0.1600000        1.18890794    0.00000000
                                                     2        0.2000000       -1.25772850    0.00000000
                                                     2        0.2600000        1.01188378    0.00000000
                                                     2        0.4000000       -1.09380874    0.00000000
                                                     2        0.5000000        0.96944888    0.00000000
                                                     2        1.0000000       -0.79256938    0.00000000
                                                     2        3.0000000        1.06443276    0.00000000
                                      S - G
                                                     0        0.0000010       -0.00635295    0.00000000
                                                     2        0.1200000        0.16918955    0.00000000
                                                     2        0.1600000       -0.38862576    0.00000000
                                                     2        0.2800000        0.25638263    0.00000000
                                                     2        0.5000000        0.29628419    0.00000000
                                                     2        0.9000000       -0.28791512    0.00000000
                                      P - G
                                                     0        0.0000010       -0.04756931    0.00000000
                                                     2        0.1200000        0.28430375    0.00000000
                                                     2        0.1600000       -0.69640032    0.00000000
                                                     2        0.2600000        1.13005668    0.00000000
                                                     2        0.4000000       -1.31433324    0.00000000
                                                     2        0.7000000        0.91526469    0.00000000
                                      D - G
                                                     0        0.0000010       -0.11496411    0.00000000
                                                     2        0.1200000        0.16620776    0.00000000
                                                     2        0.1800000       -0.30959819    0.00000000
                                                     2        0.3000000        0.16621458    0.00000000
                                                     2        0.6000000        0.27350556    0.00000000
                                      F - G
                                                     0        0.0000010        0.12037550    0.00000000
                                                     2        0.1200000       -0.48737077    0.00000000
                                                     2        0.1400000        0.58315350    0.00000000
                                                     2        0.3000000        0.00005188    0.00000000
                                                     2        0.5000000       -1.16063549    0.00000000
                                                     2        0.8000000        2.09053308    0.00000000
    3         17           17
                                      G and up 
                                                     0        0.0000010        0.00010715    0.00000000
                                                     2        0.1200000       -0.00076261    0.00000000
                                                     2        0.1600000        0.04395058    0.00000000
                                                     2        0.2000000       -0.10504698    0.00000000
                                                     2        0.2800000        0.13950130    0.00000000
                                                     2        0.4000000       -0.12623641    0.00000000
                                                     2        0.7000000       -0.42143984    0.00000000
                                      S - G
                                                     0        0.0000010       -0.00139392    0.00000000
                                                     2        0.1200000       -0.01887585    0.00000000
                                                     2        0.4000000        0.46511854    0.00000000
                                      P - G
                                                     0        0.0000010        0.03235088    0.00000000
                                                     2        0.1200000        0.42220750    0.00000000
                                                     2        0.1600000       -1.02263661    0.00000000
                                                     2        0.2600000        0.81322107    0.00000000
                                      D - G
                                                     0        0.0000010       -0.08073759    0.00000000
                                                     2        0.1200000       -0.02872770    0.00000000
                                                     2        0.2000000        0.11554000    0.00000000
                                      F - G
                                                     0        0.0000010        0.04269408    0.00000000
                                                     2        0.1200000       -0.09796467    0.00000000
                                                     2        0.2000000        0.26850099    0.00000000
    4         17           17
                                      G and up 
                                                     0        0.0000010        0.00010715    0.00000000
                                                     2        0.1200000       -0.00076261    0.00000000
                                                     2        0.1600000        0.04395058    0.00000000
                                                     2        0.2000000       -0.10504698    0.00000000
                                                     2        0.2800000        0.13950130    0.00000000
                                                     2        0.4000000       -0.12623641    0.00000000
                                                     2        0.7000000       -0.42143984    0.00000000
                                      S - G
                                                     0        0.0000010       -0.00139392    0.00000000
                                                     2        0.1200000       -0.01887585    0.00000000
                                                     2        0.4000000        0.46511854    0.00000000
                                      P - G
                                                     0        0.0000010        0.03235088    0.00000000
                                                     2        0.1200000        0.42220750    0.00000000
                                                     2        0.1600000       -1.02263661    0.00000000
                                                     2        0.2600000        0.81322107    0.00000000
                                      D - G
                                                     0        0.0000010       -0.08073759    0.00000000
                                                     2        0.1200000       -0.02872770    0.00000000
                                                     2        0.2000000        0.11554000    0.00000000
                                      F - G
                                                     0        0.0000010        0.04269408    0.00000000
                                                     2        0.1200000       -0.09796467    0.00000000
                                                     2        0.2000000        0.26850099    0.00000000
    5         17           17
                                      G and up 
                                                     0        0.0000010        0.00010715    0.00000000
                                                     2        0.1200000       -0.00076261    0.00000000
                                                     2        0.1600000        0.04395058    0.00000000
                                                     2        0.2000000       -0.10504698    0.00000000
                                                     2        0.2800000        0.13950130    0.00000000
                                                     2        0.4000000       -0.12623641    0.00000000
                                                     2        0.7000000       -0.42143984    0.00000000
                                      S - G
                                                     0        0.0000010       -0.00139392    0.00000000
                                                     2        0.1200000       -0.01887585    0.00000000
                                                     2        0.4000000        0.46511854    0.00000000
                                      P - G
                                                     0        0.0000010        0.03235088    0.00000000
                                                     2        0.1200000        0.42220750    0.00000000
                                                     2        0.1600000       -1.02263661    0.00000000
                                                     2        0.2600000        0.81322107    0.00000000
                                      D - G
                                                     0        0.0000010       -0.08073759    0.00000000
                                                     2        0.1200000       -0.02872770    0.00000000
                                                     2        0.2000000        0.11554000    0.00000000
                                      F - G
                                                     0        0.0000010        0.04269408    0.00000000
                                                     2        0.1200000       -0.09796467    0.00000000
                                                     2        0.2000000        0.26850099    0.00000000
 ======================================================================================================
   127 basis functions,   329 primitive gaussians,   137 cartesian basis functions
    33 alpha electrons       32 beta electrons
       nuclear repulsion energy       347.6144263896 Hartrees.
 NAtoms=    5 NActive=    5 NUniq=    5 SFac= 1.00D+00 NAtFMM=   60 NAOKFM=F Big=F
   1 Symmetry operations used in ECPInt.
 ECPInt:  NShTT=    1326 NPrTT=   15856 LenC2=    1315 LenP2D=    9979.
 LDataN:  DoStor=T MaxTD1= 6 Len=  172
 Initial guess from the checkpoint file:  "BDE49_nonexpt_1031_mol2.chk"
 B after Tr=    -0.000001    0.000000    0.000000
         Rot=    0.000002   -0.000000    0.000000    1.000000 Ang= 180.00 deg.
 Initial guess <Sx>= 0.0000 <Sy>= 0.0000 <Sz>= 0.5000 <S**2>= 0.7778 S= 0.5138
 >>>>>>>>>> Convergence criterion not met.
 SCF Done:  E(UHF) =  -1491.50847436     A.U. after    2 cycles
            NFock=  1  Conv=0.56D-02     -V/T= 2.0026
 <Sx>= 0.0000 <Sy>= 0.0000 <Sz>= 0.5000 <S**2>= 0.7770 S= 0.5134
 <L.S>=  0.00000000000    
 Annihilation of the first spin contaminant:
 S**2 before annihilation     0.7770,   after     0.7503

 **********************************************************************

            Population analysis using the SCF Density.

 **********************************************************************

 Orbital symmetries:
 Alpha Orbitals:
       Occupied  (A) (A) (A) (A) (A) (A) (A) (A) (A) (A) (A) (A)
                 (A) (A) (A) (A) (A) (A) (A) (A) (A) (A) (A) (A)
                 (A) (A) (A) (A) (A) (A) (A) (A) (A)
       Virtual   (A) (A) (A) (A) (A) (A) (A) (A) (A) (A) (A) (A)
                 (A) (A) (A) (A) (A) (A) (A) (A) (A) (A) (A) (A)
                 (A) (A) (A) (A) (A) (A) (A) (A) (A) (A) (A) (A)
                 (A) (A) (A) (A) (A) (A) (A) (A) (A) (A) (A) (A)
                 (A) (A) (A) (A) (A) (A) (A) (A) (A) (A) (A) (A)
                 (A) (A) (A) (A) (A) (A) (A) (A) (A) (A) (A) (A)
                 (A) (A) (A) (A) (A) (A) (A) (A) (A) (A) (A) (A)
                 (A) (A) (A) (A) (A) (A) (A) (A) (A) (A)
 Beta  Orbitals:
       Occupied  (A) (A) (A) (A) (A) (A) (A) (A) (A) (A) (A) (A)
                 (A) (A) (A) (A) (A) (A) (A) (A) (A) (A) (A) (A)
                 (A) (A) (A) (A) (A) (A) (A) (A)
       Virtual   (A) (A) (A) (A) (A) (A) (A) (A) (A) (A) (A) (A)
                 (A) (A) (A) (A) (A) (A) (A) (A) (A) (A) (A) (A)
                 (A) (A) (A) (A) (A) (A) (A) (A) (A) (A) (A) (A)
                 (A) (A) (A) (A) (A) (A) (A) (A) (A) (A) (A) (A)
                 (A) (A) (A) (A) (A) (A) (A) (A) (A) (A) (A) (A)
                 (A) (A) (A) (A) (A) (A) (A) (A) (A) (A) (A) (A)
                 (A) (A) (A) (A) (A) (A) (A) (A) (A) (A) (A) (A)
                 (A) (A) (A) (A) (A) (A) (A) (A) (A) (A) (A)
 The electronic state is 2-A.
 Alpha  occ. eigenvalues -- -105.61867-105.61075-105.61074 -20.69774 -11.51304
 Alpha  occ. eigenvalues --  -10.66627 -10.65905 -10.65900  -7.83990  -7.83078
 Alpha  occ. eigenvalues --   -7.83019  -7.82900  -7.82891  -7.82398  -7.82396
 Alpha  occ. eigenvalues --   -7.82388  -7.82385  -1.62584  -1.18072  -1.09536
 Alpha  occ. eigenvalues --   -1.08559  -0.86038  -0.77898  -0.72673  -0.71989
 Alpha  occ. eigenvalues --   -0.59929  -0.56055  -0.53020  -0.51759  -0.51751
 Alpha  occ. eigenvalues --   -0.48911  -0.48698  -0.47594
 Alpha virt. eigenvalues --    0.05484   0.07636   0.08378   0.08426   0.10425
 Alpha virt. eigenvalues --    0.11864   0.12423   0.13996   0.14450   0.14636
 Alpha virt. eigenvalues --    0.18462   0.18472   0.18638   0.18680   0.21863
 Alpha virt. eigenvalues --    0.22135   0.27658   0.28638   0.29015   0.30982
 Alpha virt. eigenvalues --    0.31807   0.32402   0.32502   0.36784   0.39781
 Alpha virt. eigenvalues --    0.40472   0.42177   0.42463   0.46125   0.49960
 Alpha virt. eigenvalues --    0.51546   0.51833   0.53245   0.53480   0.61862
 Alpha virt. eigenvalues --    0.66585   0.68462   0.68973   0.69411   0.71525
 Alpha virt. eigenvalues --    0.72815   0.79998   0.82050   0.85454   0.89229
 Alpha virt. eigenvalues --    0.89711   0.92541   0.98356   0.99767   1.01964
 Alpha virt. eigenvalues --    1.03722   1.03932   1.05244   1.13401   1.15851
 Alpha virt. eigenvalues --    1.17010   1.21267   1.22375   1.23467   1.27101
 Alpha virt. eigenvalues --    1.27712   1.29578   1.30905   1.31155   1.33478
 Alpha virt. eigenvalues --    1.34979   1.35204   1.35534   1.36051   1.41210
 Alpha virt. eigenvalues --    1.41215   1.41740   1.43397   1.46565   1.49509
 Alpha virt. eigenvalues --    1.50367   1.51930   1.79120   1.80649   1.87199
 Alpha virt. eigenvalues --    1.88539   1.94938   2.10815   2.11303   2.19462
 Alpha virt. eigenvalues --    2.28829   2.34497   2.39648   3.07882   3.70395
 Alpha virt. eigenvalues --    3.70704   3.75261   3.81290   3.98191
  Beta  occ. eigenvalues -- -105.61568-105.61049-105.61048 -20.65889 -11.51935
  Beta  occ. eigenvalues --  -10.66319 -10.65880 -10.65875  -7.83044  -7.82850
  Beta  occ. eigenvalues --   -7.82774  -7.82766  -7.82610  -7.82388  -7.82385
  Beta  occ. eigenvalues --   -7.82377  -7.82375  -1.50941  -1.16500  -1.08361
  Beta  occ. eigenvalues --   -1.07276  -0.83685  -0.71124  -0.70189  -0.65869
  Beta  occ. eigenvalues --   -0.54384  -0.53043  -0.51513  -0.50252  -0.48855
  Beta  occ. eigenvalues --   -0.48298  -0.47495
  Beta virt. eigenvalues --   -0.00629   0.05514   0.07970   0.08433   0.09227
  Beta virt. eigenvalues --    0.10679   0.12063   0.12288   0.14316   0.14534
  Beta virt. eigenvalues --    0.14691   0.18492   0.18512   0.18631   0.20410
  Beta virt. eigenvalues --    0.22018   0.22052   0.27687   0.28787   0.29135
  Beta virt. eigenvalues --    0.32013   0.32732   0.32873   0.34855   0.37061
  Beta virt. eigenvalues --    0.40006   0.40549   0.42477   0.42988   0.46930
  Beta virt. eigenvalues --    0.50197   0.51704   0.51965   0.53399   0.55719
  Beta virt. eigenvalues --    0.62132   0.67130   0.69159   0.69427   0.70576
  Beta virt. eigenvalues --    0.71923   0.73281   0.80485   0.82707   0.86277
  Beta virt. eigenvalues --    0.89672   0.91399   0.93100   0.99080   0.99779
  Beta virt. eigenvalues --    1.02060   1.04208   1.04882   1.05322   1.16171
  Beta virt. eigenvalues --    1.17304   1.17559   1.21762   1.22753   1.25007
  Beta virt. eigenvalues --    1.27403   1.28407   1.29882   1.31153   1.31756
  Beta virt. eigenvalues --    1.33862   1.35376   1.35584   1.35996   1.36879
  Beta virt. eigenvalues --    1.41475   1.41510   1.42447   1.44877   1.46882
  Beta virt. eigenvalues --    1.50522   1.51836   1.52645   1.80362   1.82706
  Beta virt. eigenvalues --    1.87444   1.89231   1.95232   2.11516   2.15498
  Beta virt. eigenvalues --    2.20254   2.29146   2.35442   2.41156   3.11062
  Beta virt. eigenvalues --    3.78492   3.79066   3.84264   3.84515   4.02438
          Condensed to atoms (all electrons):
          Atomic-Atomic Spin Densities.
 Mulliken charges and spin densities:
               1          2
     1  O   -0.627829   1.028545
     2  C    0.051771  -0.284897
     3  Cl   0.182628   0.213013
     4  Cl   0.196713   0.021669
     5  Cl   0.196716   0.021670
 Sum of Mulliken charges =  -0.00000   1.00000
 Mulliken charges and spin densities with hydrogens summed into heavy atoms:
               1          2
     1  O   -0.627829   1.028545
     2  C    0.051771  -0.284897
     3  Cl   0.182628   0.213013
     4  Cl   0.196713   0.021669
     5  Cl   0.196716   0.021670
 Electronic spatial extent (au):  <R**2>=            737.5707
 Charge=             -0.0000 electrons
 Dipole moment (field-independent basis, Debye):
    X=              0.1009    Y=              0.0000    Z=             -0.1280  Tot=              0.1630
                          Isotropic Fermi Contact Couplings
        Atom                 a.u.       MegaHertz       Gauss      10(-4) cm-1
     1  O(17)              0.24896    -150.91607     -53.85061     -50.34018
     2  C(13)             -0.09740    -109.49471     -39.07043     -36.52350
     3  Cl(35)             0.06493      28.46849      10.15827       9.49607
     4  Cl(35)            -0.00568      -2.48870      -0.88803      -0.83014
     5  Cl(35)            -0.00568      -2.48849      -0.88796      -0.83007
 --------------------------------------------------------
       Center         ----  Spin Dipole Couplings  ----
                      3XX-RR        3YY-RR        3ZZ-RR
 --------------------------------------------------------
     1   Atom        2.896345     -1.663014     -1.233331
     2   Atom       -0.100263      0.016064      0.084199
     3   Atom        0.173170     -0.772311      0.599141
     4   Atom       -0.087796      0.077951      0.009845
     5   Atom       -0.087836      0.077990      0.009846
 --------------------------------------------------------
                        XY            XZ            YZ
 --------------------------------------------------------
     1   Atom        0.000636      1.532710      0.000214
     2   Atom       -0.000017     -0.089510     -0.000012
     3   Atom        0.000119      1.191370      0.000149
     4   Atom       -0.069537     -0.065706      0.126012
     5   Atom        0.069495     -0.065674     -0.126036
 --------------------------------------------------------


 ---------------------------------------------------------------------------------
              Anisotropic Spin Dipole Couplings in Principal Axis System
 ---------------------------------------------------------------------------------

       Atom             a.u.   MegaHertz   Gauss  10(-4) cm-1        Axes

              Baa    -1.7400   125.907    44.927    41.998 -0.3139 -0.0000  0.9495
     1 O(17)  Bbb    -1.6630   120.335    42.938    40.139 -0.0001  1.0000  0.0000
              Bcc     3.4030  -246.241   -87.865   -82.137  0.9495  0.0001  0.3139
 
              Baa    -0.1366   -18.325    -6.539    -6.112  0.9267  0.0001  0.3758
     2 C(13)  Bbb     0.0161     2.156     0.769     0.719 -0.0001  1.0000 -0.0000
              Bcc     0.1205    16.169     5.769     5.393 -0.3758 -0.0000  0.9267
 
              Baa    -0.8241   -43.132   -15.390   -14.387  0.7668  0.0001 -0.6419
     3 Cl(35) Bbb    -0.7723   -40.421   -14.423   -13.483 -0.0001  1.0000 -0.0000
              Bcc     1.5964    83.553    29.814    27.870  0.6419  0.0001  0.7668
 
              Baa    -0.1212    -6.346    -2.264    -2.117  0.9185  0.0750  0.3882
     4 Cl(35) Bbb    -0.0841    -4.402    -1.571    -1.468 -0.2467 -0.6586  0.7109
              Bcc     0.2054    10.748     3.835     3.585 -0.3090  0.7487  0.5864
 
              Baa    -0.1213    -6.346    -2.264    -2.117  0.9185 -0.0748  0.3882
     5 Cl(35) Bbb    -0.0841    -4.402    -1.571    -1.468 -0.2468  0.6586  0.7109
              Bcc     0.2054    10.748     3.835     3.585  0.3088  0.7488 -0.5864
 

 ---------------------------------------------------------------------------------


 Test job not archived.
 1\1\GINC-SE339\SP\UHF\Aug-CC-pVDZ\C1Cl3O1(2)\OHZDE\08-Apr-2025\0\\#t h
 f aug-cc-pvdz iop(5/13=1,5/36=2,99/5=2) pseudo=read geom=check guess=(
 read,tcheck) scf=(maxcycle=1)\\title\\0,2\O,0,0.298272,0.000038,1.5687
 05\C,0,-0.02477,0.000001,0.321248\Cl,0,1.696474,0.000215,-0.381303\Cl,
 0,-0.914247,1.467102,-0.235145\Cl,0,-0.913849,-1.467335,-0.235148\\Ver
 sion=ES64L-G16RevC.01\State=2-A\HF=-1491.5084744\S2=0.776961\S2-1=0.\S
 2A=0.750343\RMSD=5.579e-03\Dipole=-0.0397108,-0.000004,-0.0503694\Quad
 rupole=0.7124265,0.1314983,-0.8439247,0.0000508,-0.5607794,-0.0000665\
 PG=C01 [X(C1Cl3O1)]\\@


 DIATOMIC MOLECULES ARE PECULIAR BECAUSE THEY ONLY HAVE TWO ENDS,
 AND THESE ENDS ARE VERY CLOSE TOGETHER.
 KLAUS RUEDENBERG, REV.MOD.PHYS. PG 176, 32, (1960)
 Job cpu time:       0 days  0 hours  0 minutes 24.1 seconds.
 Elapsed time:       0 days  0 hours  0 minutes  2.4 seconds.
 File lengths (MBytes):  RWF=      6 Int=      0 D2E=      0 Chk=      4 Scr=      1
 Normal termination of Gaussian 16 at Tue Apr  8 23:16:55 2025.
