 Entering Gaussian System, Link 0=g16
 Input=BDE49_nonexpt_54_mol1.gjf
 Output=BDE49_nonexpt_54_mol1.log
 Initial command:
 /arc/software/Gaussian/g16.c01/l1.exe "/tmp/slurm/4854345/Gau-2068250.inp" -scrdir="/tmp/slurm/4854345/"
 Entering Link 1 = /arc/software/Gaussian/g16.c01/l1.exe PID=   2068251.
  
 Copyright (c) 1988-2019, Gaussian, Inc.  All Rights Reserved.
  
 This is part of the Gaussian(R) 16 program.  It is based on
 the Gaussian(R) 09 system (copyright 2009, Gaussian, Inc.),
 the Gaussian(R) 03 system (copyright 2003, Gaussian, Inc.),
 the Gaussian(R) 98 system (copyright 1998, Gaussian, Inc.),
 the Gaussian(R) 94 system (copyright 1995, Gaussian, Inc.),
 the Gaussian 92(TM) system (copyright 1992, Gaussian, Inc.),
 the Gaussian 90(TM) system (copyright 1990, Gaussian, Inc.),
 the Gaussian 88(TM) system (copyright 1988, Gaussian, Inc.),
 the Gaussian 86(TM) system (copyright 1986, Carnegie Mellon
 University), and the Gaussian 82(TM) system (copyright 1983,
 Carnegie Mellon University). Gaussian is a federally registered
 trademark of Gaussian, Inc.
  
 This software contains proprietary and confidential information,
 including trade secrets, belonging to Gaussian, Inc.
  
 This software is provided under written license and may be
 used, copied, transmitted, or stored only in accord with that
 written license.
  
 The following legend is applicable only to US Government
 contracts under FAR:
  
                    RESTRICTED RIGHTS LEGEND
  
 Use, reproduction and disclosure by the US Government is
 subject to restrictions as set forth in subparagraphs (a)
 and (c) of the Commercial Computer Software - Restricted
 Rights clause in FAR 52.227-19.
  
 Gaussian, Inc.
 340 Quinnipiac St., Bldg. 40, Wallingford CT 06492
  
  
 ---------------------------------------------------------------
 Warning -- This program may not be used in any manner that
 competes with the business of Gaussian, Inc. or will provide
 assistance to any competitor of Gaussian, Inc.  The licensee
 of this program is prohibited from giving any competitor of
 Gaussian, Inc. access to this program.  By using this program,
 the user acknowledges that Gaussian, Inc. is engaged in the
 business of creating and licensing software in the field of
 computational chemistry and represents and warrants to the
 licensee that it is not a competitor of Gaussian, Inc. and that
 it will not use this program in any manner prohibited above.
 ---------------------------------------------------------------
  

 Cite this work as:
 Gaussian 16, Revision C.01,
 M. J. Frisch, G. W. Trucks, H. B. Schlegel, G. E. Scuseria, 
 M. A. Robb, J. R. Cheeseman, G. Scalmani, V. Barone, 
 G. A. Petersson, H. Nakatsuji, X. Li, M. Caricato, A. V. Marenich, 
 J. Bloino, B. G. Janesko, R. Gomperts, B. Mennucci, H. P. Hratchian, 
 J. V. Ortiz, A. F. Izmaylov, J. L. Sonnenberg, D. Williams-Young, 
 F. Ding, F. Lipparini, F. Egidi, J. Goings, B. Peng, A. Petrone, 
 T. Henderson, D. Ranasinghe, V. G. Zakrzewski, J. Gao, N. Rega, 
 G. Zheng, W. Liang, M. Hada, M. Ehara, K. Toyota, R. Fukuda, 
 J. Hasegawa, M. Ishida, T. Nakajima, Y. Honda, O. Kitao, H. Nakai, 
 T. Vreven, K. Throssell, J. A. Montgomery, Jr., J. E. Peralta, 
 F. Ogliaro, M. J. Bearpark, J. J. Heyd, E. N. Brothers, K. N. Kudin, 
 V. N. Staroverov, T. A. Keith, R. Kobayashi, J. Normand, 
 K. Raghavachari, A. P. Rendell, J. C. Burant, S. S. Iyengar, 
 J. Tomasi, M. Cossi, J. M. Millam, M. Klene, C. Adamo, R. Cammi, 
 J. W. Ochterski, R. L. Martin, K. Morokuma, O. Farkas, 
 J. B. Foresman, and D. J. Fox, Gaussian, Inc., Wallingford CT, 2019.
 
 ******************************************
 Gaussian 16:  ES64L-G16RevC.01  3-Jul-2019
                 9-Apr-2025 
 ******************************************
 %nprocs=16
 Will use up to   16 processors via shared memory.
 %mem=30GB
 %chk=BDE49_nonexpt_54_mol1.chk
 ----------------------------------------------------------------------
 #t hf aug-cc-pvdz symm=none int=(grid=ultrafine) guess=(read,tcheck) s
 table=(opt,rrhf)
 ----------------------------------------------------------------------
 -----
 title
 -----
 Symbolic Z-matrix:
 Charge =  0 Multiplicity = 1
 B                    -2.37287  -0.46619  -0.41174 
 B                    -3.31936   0.80851  -0.82741 
 C                    -1.53359  -0.63076   0.92287 
 C                    -0.11968  -0.28338   0.47589 
 C                     0.73132  -1.26393  -0.05106 
 C                     0.34859   1.03474   0.54434 
 C                     2.01774  -0.94122  -0.47278 
 C                     2.47553   0.37246  -0.38709 
 C                     1.63536   1.35971   0.1225 
 H                     0.38247  -2.28901  -0.12099 
 H                     2.66453  -1.71726  -0.86701 
 H                     3.47781   0.6239   -0.71471 
 H                     1.98152   2.3849    0.19374 
 H                    -0.29811   1.81001   0.94266 
 H                    -1.5597   -1.65881   1.29449 
 H                    -1.83983   0.03471   1.73302 
 H                    -2.91173   1.80058  -1.3558 
 H                    -4.50105   0.77471  -0.62979 
 H                    -2.26629  -1.36104  -1.20782 
 
                    Distance matrix (angstroms):
                    1          2          3          4          5
     1  B    0.000000
     2  B    1.641187   0.000000
     3  C    1.585134   2.885122   0.000000
     4  C    2.428610   3.623362   1.523023   0.000000
     5  C    3.225283   4.615814   2.545441   1.401200   0.000000
     6  C    3.251646   3.922590   2.541607   1.400503   2.405178
     7  C    4.416648   5.627783   3.828336   2.429258   1.391710
     8  C    4.920453   5.827929   4.335371   2.812465   2.415146
     9  C    4.436804   5.074980   3.826853   2.429981   2.780453
    10  H    3.316485   4.878237   2.740572   2.151971   1.085071
    11  H    5.210350   6.495226   4.691303   3.407520   2.146756
    12  H    5.959074   6.800617   5.419409   3.896493   3.398170
    13  H    5.239848   5.623795   4.688477   3.407987   3.864829
    14  H    3.364539   3.641990   2.735720   2.152210   3.390625
    15  H    2.234904   3.699529   1.093470   2.153035   2.686112
    16  H    2.266064   3.056727   1.092237   2.154177   3.388251
    17  H    2.513937   1.195644   3.605967   3.936179   4.936130
    18  H    2.473162   1.198574   3.632062   4.640952   5.645231
    19  H    1.202437   2.441434   2.368548   2.933289   3.214533
                    6          7          8          9         10
     6  C    0.000000
     7  C    2.779394   0.000000
     8  C    2.414550   1.393794   0.000000
     9  C    1.392600   2.407255   1.392926   0.000000
    10  H    3.389860   2.148114   3.396337   3.865516   0.000000
    11  H    3.863803   1.084426   2.152426   3.392058   2.468042
    12  H    3.397949   2.154056   1.084039   2.153366   4.291702
    13  H    2.147629   3.392442   2.152057   1.084395   4.949897
    14  H    1.085321   3.864702   3.395271   2.147961   4.289119
    15  H    3.385190   4.054160   4.820454   4.549004   2.484501
    16  H    2.683693   4.549599   4.819881   4.052944   3.711559
    17  H    3.850544   5.709365   5.656897   4.801643   5.394557
    18  H    4.996513   6.742672   6.992375   6.209966   5.787398
    19  H    3.955684   4.366860   5.115024   4.939146   3.009698
                   11         12         13         14         15
    11  H    0.000000
    12  H    2.483071   0.000000
    13  H    4.291782   2.483005   0.000000
    14  H    4.949116   4.290844   2.467404   0.000000
    15  H    4.745477   5.884230   5.486663   3.707848   0.000000
    16  H    5.488059   5.883526   4.742942   2.480581   1.771668
    17  H    6.611257   6.528543   5.165886   3.480516   4.562827
    18  H    7.590230   7.980740   6.730124   4.605335   4.275088
    19  H    4.955404   6.097371   5.834411   4.307422   2.617157
                   16         17         18         19
    16  H    0.000000
    17  H    3.715923   0.000000
    18  H    3.634907   2.026187   0.000000
    19  H    3.283074   3.230218   3.144782   0.000000
 Symmetry turned off by external request.
 Rotational constants (GHZ):           3.3868143           1.0554624           0.9261949
   297 basis functions,   497 primitive gaussians,   315 cartesian basis functions
    31 alpha electrons       31 beta electrons
       nuclear repulsion energy       367.6021481473 Hartrees.
 NAtoms=   19 NActive=   19 NUniq=   19 SFac= 1.00D+00 NAtFMM=   60 NAOKFM=F Big=F
 ExpMin= 2.38D-02 ExpMax= 6.67D+03 ExpMxC= 2.28D+02 IAcc=3 IRadAn=         5 AccDes= 0.00D+00
 Harris functional with IExCor=  205 and IRadAn=       5 diagonalized for initial guess.
 HarFok:  IExCor=  205 AccDes= 0.00D+00 IRadAn=         5 IDoV= 1 UseB2=F ITyADJ=14
 ICtDFT=  3500011 ScaDFX=  1.000000  1.000000  1.000000  1.000000
 FoFCou: FMM=F IPFlag=           0 FMFlag=      100000 FMFlg1=           0
         NFxFlg=           0 DoJE=T BraDBF=F KetDBF=T FulRan=T
         wScrn=  0.000000 ICntrl=       500 IOpCl=  0 I1Cent=   200000004 NGrid=           0
         NMat0=    1 NMatS0=      1 NMatT0=    0 NMatD0=    1 NMtDS0=    0 NMtDT0=    0
 Symmetry not used in FoFCou.
 SCF Done:  E(RHF) =  -320.258169103     A.U. after   15 cycles
            NFock= 15  Conv=0.76D-08     -V/T= 2.0004

 **********************************************************************

            Population analysis using the SCF Density.

 **********************************************************************

 Alpha  occ. eigenvalues --  -11.25583 -11.24269 -11.24247 -11.23952 -11.23898
 Alpha  occ. eigenvalues --  -11.23866 -11.21930  -7.58965  -7.58621  -1.15864
 Alpha  occ. eigenvalues --   -1.04983  -1.01759  -0.93559  -0.82991  -0.80152
 Alpha  occ. eigenvalues --   -0.72455  -0.69452  -0.64155  -0.63399  -0.61815
 Alpha  occ. eigenvalues --   -0.58730  -0.56819  -0.55001  -0.51634  -0.49104
 Alpha  occ. eigenvalues --   -0.49037  -0.48394  -0.46196  -0.41866  -0.33768
 Alpha  occ. eigenvalues --   -0.32262
 Alpha virt. eigenvalues --    0.03228   0.03726   0.03922   0.04291   0.05066
 Alpha virt. eigenvalues --    0.05166   0.05850   0.06199   0.06635   0.07047
 Alpha virt. eigenvalues --    0.07703   0.08845   0.09297   0.09882   0.10438
 Alpha virt. eigenvalues --    0.11003   0.11230   0.11896   0.12527   0.13488
 Alpha virt. eigenvalues --    0.14243   0.14593   0.14796   0.14939   0.15378
 Alpha virt. eigenvalues --    0.15841   0.15959   0.16170   0.16733   0.16915
 Alpha virt. eigenvalues --    0.17475   0.17840   0.18834   0.19262   0.19868
 Alpha virt. eigenvalues --    0.20199   0.20547   0.21269   0.22074   0.22335
 Alpha virt. eigenvalues --    0.23617   0.24755   0.25602   0.26095   0.27895
 Alpha virt. eigenvalues --    0.29416   0.30309   0.31090   0.31395   0.31669
 Alpha virt. eigenvalues --    0.32025   0.33207   0.33506   0.34023   0.34304
 Alpha virt. eigenvalues --    0.35176   0.35844   0.36458   0.37010   0.37435
 Alpha virt. eigenvalues --    0.38276   0.38746   0.38930   0.39396   0.39674
 Alpha virt. eigenvalues --    0.40961   0.41599   0.42555   0.42836   0.43769
 Alpha virt. eigenvalues --    0.44213   0.44774   0.44938   0.45963   0.47254
 Alpha virt. eigenvalues --    0.47469   0.48293   0.49563   0.50368   0.50735
 Alpha virt. eigenvalues --    0.51923   0.52946   0.53106   0.54154   0.55104
 Alpha virt. eigenvalues --    0.55644   0.56367   0.57228   0.57977   0.58687
 Alpha virt. eigenvalues --    0.59223   0.59634   0.60976   0.61985   0.62449
 Alpha virt. eigenvalues --    0.62776   0.63250   0.64306   0.64785   0.65607
 Alpha virt. eigenvalues --    0.66118   0.66836   0.67365   0.68137   0.68574
 Alpha virt. eigenvalues --    0.69011   0.69833   0.69983   0.70526   0.71556
 Alpha virt. eigenvalues --    0.72486   0.73489   0.74558   0.75042   0.75451
 Alpha virt. eigenvalues --    0.76646   0.77083   0.77337   0.78145   0.79336
 Alpha virt. eigenvalues --    0.79835   0.81725   0.82535   0.83330   0.83977
 Alpha virt. eigenvalues --    0.85269   0.86156   0.86620   0.86925   0.87753
 Alpha virt. eigenvalues --    0.90606   0.90923   0.92344   0.93190   0.93669
 Alpha virt. eigenvalues --    0.94497   0.94720   0.95888   0.97154   0.97563
 Alpha virt. eigenvalues --    0.99082   1.00404   1.00806   1.02206   1.04243
 Alpha virt. eigenvalues --    1.05350   1.06342   1.07021   1.08207   1.09048
 Alpha virt. eigenvalues --    1.11210   1.12444   1.12861   1.16041   1.17931
 Alpha virt. eigenvalues --    1.18117   1.18722   1.22693   1.24051   1.24915
 Alpha virt. eigenvalues --    1.29250   1.30274   1.31331   1.33245   1.34366
 Alpha virt. eigenvalues --    1.38122   1.39038   1.39656   1.44470   1.44877
 Alpha virt. eigenvalues --    1.49607   1.51484   1.52847   1.54086   1.55988
 Alpha virt. eigenvalues --    1.56995   1.58066   1.60127   1.61450   1.62517
 Alpha virt. eigenvalues --    1.63522   1.64576   1.65771   1.68214   1.68687
 Alpha virt. eigenvalues --    1.71569   1.72622   1.73777   1.74430   1.75162
 Alpha virt. eigenvalues --    1.77518   1.78293   1.80107   1.81316   1.81592
 Alpha virt. eigenvalues --    1.85007   1.85838   1.87950   1.90309   1.91649
 Alpha virt. eigenvalues --    1.92624   1.93728   1.96214   1.97476   1.98077
 Alpha virt. eigenvalues --    1.98619   1.99709   2.01173   2.03486   2.07517
 Alpha virt. eigenvalues --    2.09604   2.11371   2.11570   2.12697   2.13287
 Alpha virt. eigenvalues --    2.14608   2.15509   2.17023   2.17376   2.21307
 Alpha virt. eigenvalues --    2.22809   2.23744   2.25461   2.26923   2.27292
 Alpha virt. eigenvalues --    2.28257   2.31779   2.32229   2.34738   2.36367
 Alpha virt. eigenvalues --    2.37772   2.39657   2.41347   2.42037   2.42622
 Alpha virt. eigenvalues --    2.46210   2.48562   2.51511   2.53043   2.56694
 Alpha virt. eigenvalues --    2.58450   2.63817   2.65342   2.69003   2.70871
 Alpha virt. eigenvalues --    2.71828   2.79669   2.81329   2.82623   2.83197
 Alpha virt. eigenvalues --    2.87421   2.95259   2.96620   2.99881   3.03427
 Alpha virt. eigenvalues --    3.09547   3.14107   3.15918   3.17454   3.29126
 Alpha virt. eigenvalues --    3.30378   3.38610   3.66570   3.68867   3.86883
 Alpha virt. eigenvalues --    4.76982
          Condensed to atoms (all electrons):
 Mulliken charges:
               1
     1  B    0.138503
     2  B   -0.809089
     3  C    0.440889
     4  C    0.448924
     5  C    0.381676
     6  C    0.503007
     7  C    0.253922
     8  C    0.539138
     9  C    0.248510
    10  H   -0.630146
    11  H   -0.458747
    12  H   -0.437172
    13  H   -0.459727
    14  H   -0.635662
    15  H   -0.316324
    16  H   -0.289545
    17  H    0.407944
    18  H    0.337907
    19  H    0.335990
 Sum of Mulliken charges =  -0.00000
 Mulliken charges with hydrogens summed into heavy atoms:
               1
     1  B    0.474493
     2  B   -0.063237
     3  C   -0.164980
     4  C    0.448924
     5  C   -0.248470
     6  C   -0.132655
     7  C   -0.204825
     8  C    0.101967
     9  C   -0.211217
 Electronic spatial extent (au):  <R**2>=           1316.3088
 Charge=              0.0000 electrons
 Dipole moment (field-independent basis, Debye):
    X=              0.1985    Y=             -0.1726    Z=              0.4244  Tot=              0.4994
 NROrb=    297 NOA=    31 NOB=    31 NVA=   266 NVB=   266

 **** Warning!!: The largest alpha MO coefficient is  0.13144852D+03

    12 initial guesses have been made.
 Iteration     1 Dimension    12 NMult     0 NNew     12
 New state      1 was old state      3
 Iteration     2 Dimension    24 NMult    12 NNew     12
 Iteration     3 Dimension    27 NMult    24 NNew      3
 Iteration     4 Dimension    30 NMult    27 NNew      3
 Iteration     5 Dimension    33 NMult    30 NNew      3
 Iteration     6 Dimension    36 NMult    33 NNew      3
 ***********************************************************************
 Stability analysis using <AA,BB:AA,BB> singles matrix:
 ***********************************************************************
 Ground to excited state transition densities written to RWF  633

 Eigenvectors of the stability matrix:
 
 Excited state symmetry could not be determined.
 Eigenvector   1:      Singlet-?Sym  Eigenvalue= 0.1658847  <S**2>=0.000
      30 -> 38         0.12602
      30 -> 43        -0.11584
      30 -> 45         0.27582
      30 -> 50        -0.14851
      30 -> 51         0.12122
      30 -> 67        -0.12850
      31 -> 46         0.16155
      31 -> 47         0.20453
      31 -> 48         0.35622
      31 -> 71        -0.10469
 The wavefunction is stable under the perturbations considered.
 The wavefunction is already stable.

 **********************************************************************

            Population analysis using the SCF Density.

 **********************************************************************

 Alpha  occ. eigenvalues --  -11.25583 -11.24269 -11.24247 -11.23952 -11.23898
 Alpha  occ. eigenvalues --  -11.23866 -11.21930  -7.58965  -7.58621  -1.15864
 Alpha  occ. eigenvalues --   -1.04983  -1.01759  -0.93559  -0.82991  -0.80152
 Alpha  occ. eigenvalues --   -0.72455  -0.69452  -0.64155  -0.63399  -0.61815
 Alpha  occ. eigenvalues --   -0.58730  -0.56819  -0.55001  -0.51634  -0.49104
 Alpha  occ. eigenvalues --   -0.49037  -0.48394  -0.46196  -0.41866  -0.33768
 Alpha  occ. eigenvalues --   -0.32262
 Alpha virt. eigenvalues --    0.03228   0.03726   0.03922   0.04291   0.05066
 Alpha virt. eigenvalues --    0.05166   0.05850   0.06199   0.06635   0.07047
 Alpha virt. eigenvalues --    0.07703   0.08845   0.09297   0.09882   0.10438
 Alpha virt. eigenvalues --    0.11003   0.11230   0.11896   0.12527   0.13488
 Alpha virt. eigenvalues --    0.14243   0.14593   0.14796   0.14939   0.15378
 Alpha virt. eigenvalues --    0.15841   0.15959   0.16170   0.16733   0.16915
 Alpha virt. eigenvalues --    0.17475   0.17840   0.18834   0.19262   0.19868
 Alpha virt. eigenvalues --    0.20199   0.20547   0.21269   0.22074   0.22335
 Alpha virt. eigenvalues --    0.23617   0.24755   0.25602   0.26095   0.27895
 Alpha virt. eigenvalues --    0.29416   0.30309   0.31090   0.31395   0.31669
 Alpha virt. eigenvalues --    0.32025   0.33207   0.33506   0.34023   0.34304
 Alpha virt. eigenvalues --    0.35176   0.35844   0.36458   0.37010   0.37435
 Alpha virt. eigenvalues --    0.38276   0.38746   0.38930   0.39396   0.39674
 Alpha virt. eigenvalues --    0.40961   0.41599   0.42555   0.42836   0.43769
 Alpha virt. eigenvalues --    0.44213   0.44774   0.44938   0.45963   0.47254
 Alpha virt. eigenvalues --    0.47469   0.48293   0.49563   0.50368   0.50735
 Alpha virt. eigenvalues --    0.51923   0.52946   0.53106   0.54154   0.55104
 Alpha virt. eigenvalues --    0.55644   0.56367   0.57228   0.57977   0.58687
 Alpha virt. eigenvalues --    0.59223   0.59634   0.60976   0.61985   0.62449
 Alpha virt. eigenvalues --    0.62776   0.63250   0.64306   0.64785   0.65607
 Alpha virt. eigenvalues --    0.66118   0.66836   0.67365   0.68137   0.68574
 Alpha virt. eigenvalues --    0.69011   0.69833   0.69983   0.70526   0.71556
 Alpha virt. eigenvalues --    0.72486   0.73489   0.74558   0.75042   0.75451
 Alpha virt. eigenvalues --    0.76646   0.77083   0.77337   0.78145   0.79336
 Alpha virt. eigenvalues --    0.79835   0.81725   0.82535   0.83330   0.83977
 Alpha virt. eigenvalues --    0.85269   0.86156   0.86620   0.86925   0.87753
 Alpha virt. eigenvalues --    0.90606   0.90923   0.92344   0.93190   0.93669
 Alpha virt. eigenvalues --    0.94497   0.94720   0.95888   0.97154   0.97563
 Alpha virt. eigenvalues --    0.99082   1.00404   1.00806   1.02206   1.04243
 Alpha virt. eigenvalues --    1.05350   1.06342   1.07021   1.08207   1.09048
 Alpha virt. eigenvalues --    1.11210   1.12444   1.12861   1.16041   1.17931
 Alpha virt. eigenvalues --    1.18117   1.18722   1.22693   1.24051   1.24915
 Alpha virt. eigenvalues --    1.29250   1.30274   1.31331   1.33245   1.34366
 Alpha virt. eigenvalues --    1.38122   1.39038   1.39656   1.44470   1.44877
 Alpha virt. eigenvalues --    1.49607   1.51484   1.52847   1.54086   1.55988
 Alpha virt. eigenvalues --    1.56995   1.58066   1.60127   1.61450   1.62517
 Alpha virt. eigenvalues --    1.63522   1.64576   1.65771   1.68214   1.68687
 Alpha virt. eigenvalues --    1.71569   1.72622   1.73777   1.74430   1.75162
 Alpha virt. eigenvalues --    1.77518   1.78293   1.80107   1.81316   1.81592
 Alpha virt. eigenvalues --    1.85007   1.85838   1.87950   1.90309   1.91649
 Alpha virt. eigenvalues --    1.92624   1.93728   1.96214   1.97476   1.98077
 Alpha virt. eigenvalues --    1.98619   1.99709   2.01173   2.03486   2.07517
 Alpha virt. eigenvalues --    2.09604   2.11371   2.11570   2.12697   2.13287
 Alpha virt. eigenvalues --    2.14608   2.15509   2.17023   2.17376   2.21307
 Alpha virt. eigenvalues --    2.22809   2.23744   2.25461   2.26923   2.27292
 Alpha virt. eigenvalues --    2.28257   2.31779   2.32229   2.34738   2.36367
 Alpha virt. eigenvalues --    2.37772   2.39657   2.41347   2.42037   2.42622
 Alpha virt. eigenvalues --    2.46210   2.48562   2.51511   2.53043   2.56694
 Alpha virt. eigenvalues --    2.58450   2.63817   2.65342   2.69003   2.70871
 Alpha virt. eigenvalues --    2.71828   2.79669   2.81329   2.82623   2.83197
 Alpha virt. eigenvalues --    2.87421   2.95259   2.96620   2.99881   3.03427
 Alpha virt. eigenvalues --    3.09547   3.14107   3.15918   3.17454   3.29126
 Alpha virt. eigenvalues --    3.30378   3.38610   3.66570   3.68867   3.86883
 Alpha virt. eigenvalues --    4.76982
          Condensed to atoms (all electrons):
 Mulliken charges:
               1
     1  B    0.138503
     2  B   -0.809089
     3  C    0.440889
     4  C    0.448924
     5  C    0.381676
     6  C    0.503007
     7  C    0.253922
     8  C    0.539138
     9  C    0.248510
    10  H   -0.630146
    11  H   -0.458747
    12  H   -0.437172
    13  H   -0.459727
    14  H   -0.635662
    15  H   -0.316324
    16  H   -0.289545
    17  H    0.407944
    18  H    0.337907
    19  H    0.335990
 Sum of Mulliken charges =  -0.00000
 Mulliken charges with hydrogens summed into heavy atoms:
               1
     1  B    0.474493
     2  B   -0.063237
     3  C   -0.164980
     4  C    0.448924
     5  C   -0.248470
     6  C   -0.132655
     7  C   -0.204825
     8  C    0.101967
     9  C   -0.211217
 Electronic spatial extent (au):  <R**2>=           1316.3088
 Charge=              0.0000 electrons
 Dipole moment (field-independent basis, Debye):
    X=              0.1985    Y=             -0.1726    Z=              0.4244  Tot=              0.4994
 Unable to Open any file for archive entry.
 1\1\GINC-SE070\Stability\RHF\Aug-CC-pVDZ\C7H10B2\OHZDE\09-Apr-2025\0\\
 #t hf aug-cc-pvdz symm=none int=(grid=ultrafine) guess=(read,tcheck) s
 table=(opt,rrhf)\\title\\0,1\B,0,-2.372867,-0.466194,-0.41174\B,0,-3.3
 19363,0.808507,-0.827406\C,0,-1.53359,-0.630758,0.922869\C,0,-0.119682
 ,-0.28338,0.475889\C,0,0.73132,-1.26393,-0.051063\C,0,0.348586,1.03474
 3,0.544336\C,0,2.017737,-0.941221,-0.472783\C,0,2.475526,0.372456,-0.3
 8709\C,0,1.635359,1.359714,0.122501\H,0,0.382469,-2.289011,-0.120993\H
 ,0,2.664525,-1.717255,-0.867013\H,0,3.477814,0.6239,-0.714709\H,0,1.98
 1516,2.384903,0.193737\H,0,-0.298112,1.810014,0.942656\H,0,-1.559697,-
 1.658812,1.294487\H,0,-1.83983,0.03471,1.733024\H,0,-2.911733,1.800578
 ,-1.355798\H,0,-4.501049,0.774705,-0.629785\H,0,-2.266295,-1.361039,-1
 .207824\\Version=ES64L-G16RevC.01\HF=-320.2581691\RMSD=7.611e-09\Dipol
 e=0.078111,-0.0679071,0.1669839\Quadrupole=0.3229576,2.0696654,-2.3926
 23,1.1652653,-2.9995861,1.3051146\PG=Unknown\\@
 The archive entry for this job was punched.


 THE RED LIGHT IS ALWAYS LONGER THAN THE GREEN LIGHT.

                     -- PETER'S THEORY OF RELATIVITY
 Job cpu time:       0 days  0 hours 18 minutes 59.1 seconds.
 Elapsed time:       0 days  0 hours  1 minutes 20.0 seconds.
 File lengths (MBytes):  RWF=    351 Int=      0 D2E=      0 Chk=     12 Scr=      1
 Normal termination of Gaussian 16 at Wed Apr  9 00:38:05 2025.
 Initial command:
 /arc/software/Gaussian/g16.c01/l1.exe "/tmp/slurm/4854345/Gau-2068250.inp" -scrdir="/tmp/slurm/4854345/"
 Entering Link 1 = /arc/software/Gaussian/g16.c01/l1.exe PID=   2069261.
  
 Copyright (c) 1988-2019, Gaussian, Inc.  All Rights Reserved.
  
 This is part of the Gaussian(R) 16 program.  It is based on
 the Gaussian(R) 09 system (copyright 2009, Gaussian, Inc.),
 the Gaussian(R) 03 system (copyright 2003, Gaussian, Inc.),
 the Gaussian(R) 98 system (copyright 1998, Gaussian, Inc.),
 the Gaussian(R) 94 system (copyright 1995, Gaussian, Inc.),
 the Gaussian 92(TM) system (copyright 1992, Gaussian, Inc.),
 the Gaussian 90(TM) system (copyright 1990, Gaussian, Inc.),
 the Gaussian 88(TM) system (copyright 1988, Gaussian, Inc.),
 the Gaussian 86(TM) system (copyright 1986, Carnegie Mellon
 University), and the Gaussian 82(TM) system (copyright 1983,
 Carnegie Mellon University). Gaussian is a federally registered
 trademark of Gaussian, Inc.
  
 This software contains proprietary and confidential information,
 including trade secrets, belonging to Gaussian, Inc.
  
 This software is provided under written license and may be
 used, copied, transmitted, or stored only in accord with that
 written license.
  
 The following legend is applicable only to US Government
 contracts under FAR:
  
                    RESTRICTED RIGHTS LEGEND
  
 Use, reproduction and disclosure by the US Government is
 subject to restrictions as set forth in subparagraphs (a)
 and (c) of the Commercial Computer Software - Restricted
 Rights clause in FAR 52.227-19.
  
 Gaussian, Inc.
 340 Quinnipiac St., Bldg. 40, Wallingford CT 06492
  
  
 ---------------------------------------------------------------
 Warning -- This program may not be used in any manner that
 competes with the business of Gaussian, Inc. or will provide
 assistance to any competitor of Gaussian, Inc.  The licensee
 of this program is prohibited from giving any competitor of
 Gaussian, Inc. access to this program.  By using this program,
 the user acknowledges that Gaussian, Inc. is engaged in the
 business of creating and licensing software in the field of
 computational chemistry and represents and warrants to the
 licensee that it is not a competitor of Gaussian, Inc. and that
 it will not use this program in any manner prohibited above.
 ---------------------------------------------------------------
  

 Cite this work as:
 Gaussian 16, Revision C.01,
 M. J. Frisch, G. W. Trucks, H. B. Schlegel, G. E. Scuseria, 
 M. A. Robb, J. R. Cheeseman, G. Scalmani, V. Barone, 
 G. A. Petersson, H. Nakatsuji, X. Li, M. Caricato, A. V. Marenich, 
 J. Bloino, B. G. Janesko, R. Gomperts, B. Mennucci, H. P. Hratchian, 
 J. V. Ortiz, A. F. Izmaylov, J. L. Sonnenberg, D. Williams-Young, 
 F. Ding, F. Lipparini, F. Egidi, J. Goings, B. Peng, A. Petrone, 
 T. Henderson, D. Ranasinghe, V. G. Zakrzewski, J. Gao, N. Rega, 
 G. Zheng, W. Liang, M. Hada, M. Ehara, K. Toyota, R. Fukuda, 
 J. Hasegawa, M. Ishida, T. Nakajima, Y. Honda, O. Kitao, H. Nakai, 
 T. Vreven, K. Throssell, J. A. Montgomery, Jr., J. E. Peralta, 
 F. Ogliaro, M. J. Bearpark, J. J. Heyd, E. N. Brothers, K. N. Kudin, 
 V. N. Staroverov, T. A. Keith, R. Kobayashi, J. Normand, 
 K. Raghavachari, A. P. Rendell, J. C. Burant, S. S. Iyengar, 
 J. Tomasi, M. Cossi, J. M. Millam, M. Klene, C. Adamo, R. Cammi, 
 J. W. Ochterski, R. L. Martin, K. Morokuma, O. Farkas, 
 J. B. Foresman, and D. J. Fox, Gaussian, Inc., Wallingford CT, 2019.
 
 ******************************************
 Gaussian 16:  ES64L-G16RevC.01  3-Jul-2019
                 9-Apr-2025 
 ******************************************
 %nprocs=16
 Will use up to   16 processors via shared memory.
 %mem=30GB
 %chk=BDE49_nonexpt_54_mol1.chk
 ----------------------------------------------------------------------
 #t hf aug-cc-pvdz iop(5/13=1,5/36=2,99/5=2) pseudo=read geom=check gue
 ss=(read,tcheck) scf=(maxcycle=1)
 ----------------------------------------------------------------------
 -----
 title
 -----
 Structure from the checkpoint file:  "BDE49_nonexpt_54_mol1.chk"
 Charge =  0 Multiplicity = 1
 Z-Matrix found in chk file.
 B,0,-2.372867,-0.466194,-0.41174
 B,0,-3.319363,0.808507,-0.827406
 C,0,-1.53359,-0.630758,0.922869
 C,0,-0.119682,-0.28338,0.475889
 C,0,0.73132,-1.26393,-0.051063
 C,0,0.348586,1.034743,0.544336
 C,0,2.017737,-0.941221,-0.472783
 C,0,2.475526,0.372456,-0.38709
 C,0,1.635359,1.359714,0.122501
 H,0,0.382469,-2.289011,-0.120993
 H,0,2.664525,-1.717255,-0.867013
 H,0,3.477814,0.6239,-0.714709
 H,0,1.981516,2.384903,0.193737
 H,0,-0.298112,1.810014,0.942656
 H,0,-1.559697,-1.658812,1.294487
 H,0,-1.83983,0.03471,1.733024
 H,0,-2.911733,1.800578,-1.355798
 H,0,-4.501049,0.774705,-0.629785
 H,0,-2.266295,-1.361039,-1.207824
 Recover connectivity data from disk.
                    Distance matrix (angstroms):
                    1          2          3          4          5
     1  B    0.000000
     2  B    1.641187   0.000000
     3  C    1.585134   2.885122   0.000000
     4  C    2.428610   3.623362   1.523023   0.000000
     5  C    3.225283   4.615814   2.545441   1.401200   0.000000
     6  C    3.251646   3.922590   2.541607   1.400503   2.405178
     7  C    4.416648   5.627783   3.828336   2.429258   1.391710
     8  C    4.920453   5.827929   4.335371   2.812465   2.415146
     9  C    4.436804   5.074980   3.826853   2.429981   2.780453
    10  H    3.316485   4.878237   2.740572   2.151971   1.085071
    11  H    5.210350   6.495226   4.691303   3.407520   2.146756
    12  H    5.959074   6.800617   5.419409   3.896493   3.398170
    13  H    5.239848   5.623795   4.688477   3.407987   3.864829
    14  H    3.364539   3.641990   2.735720   2.152210   3.390625
    15  H    2.234904   3.699529   1.093470   2.153035   2.686112
    16  H    2.266064   3.056727   1.092237   2.154177   3.388251
    17  H    2.513937   1.195644   3.605967   3.936179   4.936130
    18  H    2.473162   1.198574   3.632062   4.640952   5.645231
    19  H    1.202437   2.441434   2.368548   2.933289   3.214533
                    6          7          8          9         10
     6  C    0.000000
     7  C    2.779394   0.000000
     8  C    2.414550   1.393794   0.000000
     9  C    1.392600   2.407255   1.392926   0.000000
    10  H    3.389860   2.148114   3.396337   3.865516   0.000000
    11  H    3.863803   1.084426   2.152426   3.392058   2.468042
    12  H    3.397949   2.154056   1.084039   2.153366   4.291702
    13  H    2.147629   3.392442   2.152057   1.084395   4.949897
    14  H    1.085321   3.864702   3.395271   2.147961   4.289119
    15  H    3.385190   4.054160   4.820454   4.549004   2.484501
    16  H    2.683693   4.549599   4.819881   4.052944   3.711559
    17  H    3.850544   5.709365   5.656897   4.801643   5.394557
    18  H    4.996513   6.742672   6.992375   6.209966   5.787398
    19  H    3.955684   4.366860   5.115024   4.939146   3.009698
                   11         12         13         14         15
    11  H    0.000000
    12  H    2.483071   0.000000
    13  H    4.291782   2.483005   0.000000
    14  H    4.949116   4.290844   2.467404   0.000000
    15  H    4.745477   5.884230   5.486663   3.707848   0.000000
    16  H    5.488059   5.883526   4.742942   2.480581   1.771668
    17  H    6.611257   6.528543   5.165886   3.480516   4.562827
    18  H    7.590230   7.980740   6.730124   4.605335   4.275088
    19  H    4.955404   6.097371   5.834411   4.307422   2.617157
                   16         17         18         19
    16  H    0.000000
    17  H    3.715923   0.000000
    18  H    3.634907   2.026187   0.000000
    19  H    3.283074   3.230218   3.144782   0.000000
 Framework group  C1[X(C7H10B2)]
 Deg. of freedom    51
                         Standard orientation:                         
 ---------------------------------------------------------------------
 Center     Atomic      Atomic             Coordinates (Angstroms)
 Number     Number       Type             X           Y           Z
 ---------------------------------------------------------------------
      1          5           0       -2.372867   -0.466194   -0.411740
      2          5           0       -3.319363    0.808507   -0.827406
      3          6           0       -1.533590   -0.630758    0.922869
      4          6           0       -0.119682   -0.283380    0.475889
      5          6           0        0.731320   -1.263930   -0.051063
      6          6           0        0.348586    1.034743    0.544336
      7          6           0        2.017737   -0.941221   -0.472783
      8          6           0        2.475526    0.372456   -0.387090
      9          6           0        1.635359    1.359714    0.122501
     10          1           0        0.382469   -2.289011   -0.120993
     11          1           0        2.664525   -1.717255   -0.867013
     12          1           0        3.477814    0.623900   -0.714709
     13          1           0        1.981516    2.384903    0.193737
     14          1           0       -0.298112    1.810014    0.942656
     15          1           0       -1.559697   -1.658812    1.294487
     16          1           0       -1.839830    0.034710    1.733024
     17          1           0       -2.911733    1.800578   -1.355798
     18          1           0       -4.501049    0.774705   -0.629785
     19          1           0       -2.266295   -1.361039   -1.207824
 ---------------------------------------------------------------------
 Rotational constants (GHZ):           3.3868143           1.0554624           0.9261949
 ======================================================================================================
                                       Pseudopotential Parameters
 ======================================================================================================
  Center     Atomic      Valence      Angular      Power
  Number     Number     Electrons     Momentum     of R      Exponent        Coefficient   SO-Coeffient
 ======================================================================================================
    1          5            5
                                      G and up 
                                                     0        0.0000010        0.00020763    0.00000000
                                                     2        0.1200000        0.03067755    0.00000000
                                                     2        0.1400000       -0.06903562    0.00000000
                                                     2        0.2200000        0.20686977    0.00000000
                                                     2        0.2800000       -0.28012699    0.00000000
                                                     2        0.4000000        0.15289287    0.00000000
                                                     2        0.9000000        0.23777548    0.00000000
                                      S - G
                                                     0        0.0000010       -0.01460145    0.00000000
                                                     2        0.1200000        0.61520407    0.00000000
                                                     2        0.1600000       -1.40324983    0.00000000
                                                     2        0.2600000        1.13743336    0.00000000
                                                     2        0.7000000       -0.82121849    0.00000000
                                                     2        3.0000000        1.14340087    0.00000000
                                      P - G
                                                     0        0.0000010       -0.15206468    0.00000000
                                                     2        0.1200000        0.05342385    0.00000000
                                                     2        0.1800000       -0.02150831    0.00000000
                                                     2        0.4000000       -0.11023892    0.00000000
                                                     2        1.0000000        0.38415171    0.00000000
                                      D - G
                                                     0        0.0000010        0.03877889    0.00000000
                                                     2        0.1200000        0.15497678    0.00000000
                                                     2        0.2000000       -0.61843740    0.00000000
                                                     2        0.4000000        1.25619759    0.00000000
                                                     2        0.8000000       -1.68748014    0.00000000
                                      F - G
                                                     0        0.0000010        0.04196027    0.00000000
                                                     2        0.1200000       -0.20480821    0.00000000
                                                     2        0.1600000        0.27131339    0.00000000
                                                     2        0.2400000        0.24945984    0.00000000
                                                     2        0.5000000       -1.37105438    0.00000000
    2          5            5
                                      G and up 
                                                     0        0.0000010        0.00020763    0.00000000
                                                     2        0.1200000        0.03067755    0.00000000
                                                     2        0.1400000       -0.06903562    0.00000000
                                                     2        0.2200000        0.20686977    0.00000000
                                                     2        0.2800000       -0.28012699    0.00000000
                                                     2        0.4000000        0.15289287    0.00000000
                                                     2        0.9000000        0.23777548    0.00000000
                                      S - G
                                                     0        0.0000010       -0.01460145    0.00000000
                                                     2        0.1200000        0.61520407    0.00000000
                                                     2        0.1600000       -1.40324983    0.00000000
                                                     2        0.2600000        1.13743336    0.00000000
                                                     2        0.7000000       -0.82121849    0.00000000
                                                     2        3.0000000        1.14340087    0.00000000
                                      P - G
                                                     0        0.0000010       -0.15206468    0.00000000
                                                     2        0.1200000        0.05342385    0.00000000
                                                     2        0.1800000       -0.02150831    0.00000000
                                                     2        0.4000000       -0.11023892    0.00000000
                                                     2        1.0000000        0.38415171    0.00000000
                                      D - G
                                                     0        0.0000010        0.03877889    0.00000000
                                                     2        0.1200000        0.15497678    0.00000000
                                                     2        0.2000000       -0.61843740    0.00000000
                                                     2        0.4000000        1.25619759    0.00000000
                                                     2        0.8000000       -1.68748014    0.00000000
                                      F - G
                                                     0        0.0000010        0.04196027    0.00000000
                                                     2        0.1200000       -0.20480821    0.00000000
                                                     2        0.1600000        0.27131339    0.00000000
                                                     2        0.2400000        0.24945984    0.00000000
                                                     2        0.5000000       -1.37105438    0.00000000
    3          6            6
                                      G and up 
                                                     0        0.0000010       -0.00007288    0.00000000
                                                     2        0.1200000        0.10466671    0.00000000
                                                     2        0.1400000       -0.65716157    0.00000000
                                                     2        0.1600000        1.18890794    0.00000000
                                                     2        0.2000000       -1.25772850    0.00000000
                                                     2        0.2600000        1.01188378    0.00000000
                                                     2        0.4000000       -1.09380874    0.00000000
                                                     2        0.5000000        0.96944888    0.00000000
                                                     2        1.0000000       -0.79256938    0.00000000
                                                     2        3.0000000        1.06443276    0.00000000
                                      S - G
                                                     0        0.0000010       -0.00635295    0.00000000
                                                     2        0.1200000        0.16918955    0.00000000
                                                     2        0.1600000       -0.38862576    0.00000000
                                                     2        0.2800000        0.25638263    0.00000000
                                                     2        0.5000000        0.29628419    0.00000000
                                                     2        0.9000000       -0.28791512    0.00000000
                                      P - G
                                                     0        0.0000010       -0.04756931    0.00000000
                                                     2        0.1200000        0.28430375    0.00000000
                                                     2        0.1600000       -0.69640032    0.00000000
                                                     2        0.2600000        1.13005668    0.00000000
                                                     2        0.4000000       -1.31433324    0.00000000
                                                     2        0.7000000        0.91526469    0.00000000
                                      D - G
                                                     0        0.0000010       -0.11496411    0.00000000
                                                     2        0.1200000        0.16620776    0.00000000
                                                     2        0.1800000       -0.30959819    0.00000000
                                                     2        0.3000000        0.16621458    0.00000000
                                                     2        0.6000000        0.27350556    0.00000000
                                      F - G
                                                     0        0.0000010        0.12037550    0.00000000
                                                     2        0.1200000       -0.48737077    0.00000000
                                                     2        0.1400000        0.58315350    0.00000000
                                                     2        0.3000000        0.00005188    0.00000000
                                                     2        0.5000000       -1.16063549    0.00000000
                                                     2        0.8000000        2.09053308    0.00000000
    4          6            6
                                      G and up 
                                                     0        0.0000010       -0.00007288    0.00000000
                                                     2        0.1200000        0.10466671    0.00000000
                                                     2        0.1400000       -0.65716157    0.00000000
                                                     2        0.1600000        1.18890794    0.00000000
                                                     2        0.2000000       -1.25772850    0.00000000
                                                     2        0.2600000        1.01188378    0.00000000
                                                     2        0.4000000       -1.09380874    0.00000000
                                                     2        0.5000000        0.96944888    0.00000000
                                                     2        1.0000000       -0.79256938    0.00000000
                                                     2        3.0000000        1.06443276    0.00000000
                                      S - G
                                                     0        0.0000010       -0.00635295    0.00000000
                                                     2        0.1200000        0.16918955    0.00000000
                                                     2        0.1600000       -0.38862576    0.00000000
                                                     2        0.2800000        0.25638263    0.00000000
                                                     2        0.5000000        0.29628419    0.00000000
                                                     2        0.9000000       -0.28791512    0.00000000
                                      P - G
                                                     0        0.0000010       -0.04756931    0.00000000
                                                     2        0.1200000        0.28430375    0.00000000
                                                     2        0.1600000       -0.69640032    0.00000000
                                                     2        0.2600000        1.13005668    0.00000000
                                                     2        0.4000000       -1.31433324    0.00000000
                                                     2        0.7000000        0.91526469    0.00000000
                                      D - G
                                                     0        0.0000010       -0.11496411    0.00000000
                                                     2        0.1200000        0.16620776    0.00000000
                                                     2        0.1800000       -0.30959819    0.00000000
                                                     2        0.3000000        0.16621458    0.00000000
                                                     2        0.6000000        0.27350556    0.00000000
                                      F - G
                                                     0        0.0000010        0.12037550    0.00000000
                                                     2        0.1200000       -0.48737077    0.00000000
                                                     2        0.1400000        0.58315350    0.00000000
                                                     2        0.3000000        0.00005188    0.00000000
                                                     2        0.5000000       -1.16063549    0.00000000
                                                     2        0.8000000        2.09053308    0.00000000
    5          6            6
                                      G and up 
                                                     0        0.0000010       -0.00007288    0.00000000
                                                     2        0.1200000        0.10466671    0.00000000
                                                     2        0.1400000       -0.65716157    0.00000000
                                                     2        0.1600000        1.18890794    0.00000000
                                                     2        0.2000000       -1.25772850    0.00000000
                                                     2        0.2600000        1.01188378    0.00000000
                                                     2        0.4000000       -1.09380874    0.00000000
                                                     2        0.5000000        0.96944888    0.00000000
                                                     2        1.0000000       -0.79256938    0.00000000
                                                     2        3.0000000        1.06443276    0.00000000
                                      S - G
                                                     0        0.0000010       -0.00635295    0.00000000
                                                     2        0.1200000        0.16918955    0.00000000
                                                     2        0.1600000       -0.38862576    0.00000000
                                                     2        0.2800000        0.25638263    0.00000000
                                                     2        0.5000000        0.29628419    0.00000000
                                                     2        0.9000000       -0.28791512    0.00000000
                                      P - G
                                                     0        0.0000010       -0.04756931    0.00000000
                                                     2        0.1200000        0.28430375    0.00000000
                                                     2        0.1600000       -0.69640032    0.00000000
                                                     2        0.2600000        1.13005668    0.00000000
                                                     2        0.4000000       -1.31433324    0.00000000
                                                     2        0.7000000        0.91526469    0.00000000
                                      D - G
                                                     0        0.0000010       -0.11496411    0.00000000
                                                     2        0.1200000        0.16620776    0.00000000
                                                     2        0.1800000       -0.30959819    0.00000000
                                                     2        0.3000000        0.16621458    0.00000000
                                                     2        0.6000000        0.27350556    0.00000000
                                      F - G
                                                     0        0.0000010        0.12037550    0.00000000
                                                     2        0.1200000       -0.48737077    0.00000000
                                                     2        0.1400000        0.58315350    0.00000000
                                                     2        0.3000000        0.00005188    0.00000000
                                                     2        0.5000000       -1.16063549    0.00000000
                                                     2        0.8000000        2.09053308    0.00000000
    6          6            6
                                      G and up 
                                                     0        0.0000010       -0.00007288    0.00000000
                                                     2        0.1200000        0.10466671    0.00000000
                                                     2        0.1400000       -0.65716157    0.00000000
                                                     2        0.1600000        1.18890794    0.00000000
                                                     2        0.2000000       -1.25772850    0.00000000
                                                     2        0.2600000        1.01188378    0.00000000
                                                     2        0.4000000       -1.09380874    0.00000000
                                                     2        0.5000000        0.96944888    0.00000000
                                                     2        1.0000000       -0.79256938    0.00000000
                                                     2        3.0000000        1.06443276    0.00000000
                                      S - G
                                                     0        0.0000010       -0.00635295    0.00000000
                                                     2        0.1200000        0.16918955    0.00000000
                                                     2        0.1600000       -0.38862576    0.00000000
                                                     2        0.2800000        0.25638263    0.00000000
                                                     2        0.5000000        0.29628419    0.00000000
                                                     2        0.9000000       -0.28791512    0.00000000
                                      P - G
                                                     0        0.0000010       -0.04756931    0.00000000
                                                     2        0.1200000        0.28430375    0.00000000
                                                     2        0.1600000       -0.69640032    0.00000000
                                                     2        0.2600000        1.13005668    0.00000000
                                                     2        0.4000000       -1.31433324    0.00000000
                                                     2        0.7000000        0.91526469    0.00000000
                                      D - G
                                                     0        0.0000010       -0.11496411    0.00000000
                                                     2        0.1200000        0.16620776    0.00000000
                                                     2        0.1800000       -0.30959819    0.00000000
                                                     2        0.3000000        0.16621458    0.00000000
                                                     2        0.6000000        0.27350556    0.00000000
                                      F - G
                                                     0        0.0000010        0.12037550    0.00000000
                                                     2        0.1200000       -0.48737077    0.00000000
                                                     2        0.1400000        0.58315350    0.00000000
                                                     2        0.3000000        0.00005188    0.00000000
                                                     2        0.5000000       -1.16063549    0.00000000
                                                     2        0.8000000        2.09053308    0.00000000
    7          6            6
                                      G and up 
                                                     0        0.0000010       -0.00007288    0.00000000
                                                     2        0.1200000        0.10466671    0.00000000
                                                     2        0.1400000       -0.65716157    0.00000000
                                                     2        0.1600000        1.18890794    0.00000000
                                                     2        0.2000000       -1.25772850    0.00000000
                                                     2        0.2600000        1.01188378    0.00000000
                                                     2        0.4000000       -1.09380874    0.00000000
                                                     2        0.5000000        0.96944888    0.00000000
                                                     2        1.0000000       -0.79256938    0.00000000
                                                     2        3.0000000        1.06443276    0.00000000
                                      S - G
                                                     0        0.0000010       -0.00635295    0.00000000
                                                     2        0.1200000        0.16918955    0.00000000
                                                     2        0.1600000       -0.38862576    0.00000000
                                                     2        0.2800000        0.25638263    0.00000000
                                                     2        0.5000000        0.29628419    0.00000000
                                                     2        0.9000000       -0.28791512    0.00000000
                                      P - G
                                                     0        0.0000010       -0.04756931    0.00000000
                                                     2        0.1200000        0.28430375    0.00000000
                                                     2        0.1600000       -0.69640032    0.00000000
                                                     2        0.2600000        1.13005668    0.00000000
                                                     2        0.4000000       -1.31433324    0.00000000
                                                     2        0.7000000        0.91526469    0.00000000
                                      D - G
                                                     0        0.0000010       -0.11496411    0.00000000
                                                     2        0.1200000        0.16620776    0.00000000
                                                     2        0.1800000       -0.30959819    0.00000000
                                                     2        0.3000000        0.16621458    0.00000000
                                                     2        0.6000000        0.27350556    0.00000000
                                      F - G
                                                     0        0.0000010        0.12037550    0.00000000
                                                     2        0.1200000       -0.48737077    0.00000000
                                                     2        0.1400000        0.58315350    0.00000000
                                                     2        0.3000000        0.00005188    0.00000000
                                                     2        0.5000000       -1.16063549    0.00000000
                                                     2        0.8000000        2.09053308    0.00000000
    8          6            6
                                      G and up 
                                                     0        0.0000010       -0.00007288    0.00000000
                                                     2        0.1200000        0.10466671    0.00000000
                                                     2        0.1400000       -0.65716157    0.00000000
                                                     2        0.1600000        1.18890794    0.00000000
                                                     2        0.2000000       -1.25772850    0.00000000
                                                     2        0.2600000        1.01188378    0.00000000
                                                     2        0.4000000       -1.09380874    0.00000000
                                                     2        0.5000000        0.96944888    0.00000000
                                                     2        1.0000000       -0.79256938    0.00000000
                                                     2        3.0000000        1.06443276    0.00000000
                                      S - G
                                                     0        0.0000010       -0.00635295    0.00000000
                                                     2        0.1200000        0.16918955    0.00000000
                                                     2        0.1600000       -0.38862576    0.00000000
                                                     2        0.2800000        0.25638263    0.00000000
                                                     2        0.5000000        0.29628419    0.00000000
                                                     2        0.9000000       -0.28791512    0.00000000
                                      P - G
                                                     0        0.0000010       -0.04756931    0.00000000
                                                     2        0.1200000        0.28430375    0.00000000
                                                     2        0.1600000       -0.69640032    0.00000000
                                                     2        0.2600000        1.13005668    0.00000000
                                                     2        0.4000000       -1.31433324    0.00000000
                                                     2        0.7000000        0.91526469    0.00000000
                                      D - G
                                                     0        0.0000010       -0.11496411    0.00000000
                                                     2        0.1200000        0.16620776    0.00000000
                                                     2        0.1800000       -0.30959819    0.00000000
                                                     2        0.3000000        0.16621458    0.00000000
                                                     2        0.6000000        0.27350556    0.00000000
                                      F - G
                                                     0        0.0000010        0.12037550    0.00000000
                                                     2        0.1200000       -0.48737077    0.00000000
                                                     2        0.1400000        0.58315350    0.00000000
                                                     2        0.3000000        0.00005188    0.00000000
                                                     2        0.5000000       -1.16063549    0.00000000
                                                     2        0.8000000        2.09053308    0.00000000
    9          6            6
                                      G and up 
                                                     0        0.0000010       -0.00007288    0.00000000
                                                     2        0.1200000        0.10466671    0.00000000
                                                     2        0.1400000       -0.65716157    0.00000000
                                                     2        0.1600000        1.18890794    0.00000000
                                                     2        0.2000000       -1.25772850    0.00000000
                                                     2        0.2600000        1.01188378    0.00000000
                                                     2        0.4000000       -1.09380874    0.00000000
                                                     2        0.5000000        0.96944888    0.00000000
                                                     2        1.0000000       -0.79256938    0.00000000
                                                     2        3.0000000        1.06443276    0.00000000
                                      S - G
                                                     0        0.0000010       -0.00635295    0.00000000
                                                     2        0.1200000        0.16918955    0.00000000
                                                     2        0.1600000       -0.38862576    0.00000000
                                                     2        0.2800000        0.25638263    0.00000000
                                                     2        0.5000000        0.29628419    0.00000000
                                                     2        0.9000000       -0.28791512    0.00000000
                                      P - G
                                                     0        0.0000010       -0.04756931    0.00000000
                                                     2        0.1200000        0.28430375    0.00000000
                                                     2        0.1600000       -0.69640032    0.00000000
                                                     2        0.2600000        1.13005668    0.00000000
                                                     2        0.4000000       -1.31433324    0.00000000
                                                     2        0.7000000        0.91526469    0.00000000
                                      D - G
                                                     0        0.0000010       -0.11496411    0.00000000
                                                     2        0.1200000        0.16620776    0.00000000
                                                     2        0.1800000       -0.30959819    0.00000000
                                                     2        0.3000000        0.16621458    0.00000000
                                                     2        0.6000000        0.27350556    0.00000000
                                      F - G
                                                     0        0.0000010        0.12037550    0.00000000
                                                     2        0.1200000       -0.48737077    0.00000000
                                                     2        0.1400000        0.58315350    0.00000000
                                                     2        0.3000000        0.00005188    0.00000000
                                                     2        0.5000000       -1.16063549    0.00000000
                                                     2        0.8000000        2.09053308    0.00000000
   10          1            1
                                      F and up 
                                                     0        0.0000010       -0.00007675    0.00000000
                                                     2        0.1200000        0.05352699    0.00000000
                                                     2        0.1400000       -0.25123645    0.00000000
                                                     2        0.1600000        0.32188106    0.00000000
                                                     2        0.2200000       -0.25206857    0.00000000
                                                     2        0.3000000        0.19290477    0.00000000
                                                     2        0.5000000       -0.10129770    0.00000000
                                                     2        0.9000000        0.00314995    0.00000000
                                                     2        1.5000000        0.18401192    0.00000000
                                      S - F
                                                     0        0.0000010        0.08065976    0.00000000
                                                     2        0.1200000       -0.09231673    0.00000000
                                                     2        0.1600000       -0.03278082    0.00000000
                                                     2        0.2800000        0.38423402    0.00000000
                                                     2        0.6000000       -1.09357590    0.00000000
                                                     2        1.1000000        1.53099489    0.00000000
                                                     2        3.0000000       -2.63300202    0.00000000
                                      P - F
                                                     0        0.0000010       -0.11638665    0.00000000
                                                     2        0.1200000        0.35468655    0.00000000
                                                     2        0.1600000       -0.59160923    0.00000000
                                                     2        0.3000000        0.49390547    0.00000000
                                                     2        0.6000000       -0.37949835    0.00000000
                                                     2        1.6000000        0.89304688    0.00000000
                                      D - F
                                                     0        0.0000010        0.05443663    0.00000000
                                                     2        0.1200000       -0.29679479    0.00000000
                                                     2        0.1400000        0.36849872    0.00000000
                                                     2        0.2400000        0.02793449    0.00000000
                                                     2        0.4000000       -0.46312857    0.00000000
                                                     2        0.7000000        0.97587598    0.00000000
                                                     2        1.5000000       -2.43431102    0.00000000
   11          1            1
                                      F and up 
                                                     0        0.0000010       -0.00007675    0.00000000
                                                     2        0.1200000        0.05352699    0.00000000
                                                     2        0.1400000       -0.25123645    0.00000000
                                                     2        0.1600000        0.32188106    0.00000000
                                                     2        0.2200000       -0.25206857    0.00000000
                                                     2        0.3000000        0.19290477    0.00000000
                                                     2        0.5000000       -0.10129770    0.00000000
                                                     2        0.9000000        0.00314995    0.00000000
                                                     2        1.5000000        0.18401192    0.00000000
                                      S - F
                                                     0        0.0000010        0.08065976    0.00000000
                                                     2        0.1200000       -0.09231673    0.00000000
                                                     2        0.1600000       -0.03278082    0.00000000
                                                     2        0.2800000        0.38423402    0.00000000
                                                     2        0.6000000       -1.09357590    0.00000000
                                                     2        1.1000000        1.53099489    0.00000000
                                                     2        3.0000000       -2.63300202    0.00000000
                                      P - F
                                                     0        0.0000010       -0.11638665    0.00000000
                                                     2        0.1200000        0.35468655    0.00000000
                                                     2        0.1600000       -0.59160923    0.00000000
                                                     2        0.3000000        0.49390547    0.00000000
                                                     2        0.6000000       -0.37949835    0.00000000
                                                     2        1.6000000        0.89304688    0.00000000
                                      D - F
                                                     0        0.0000010        0.05443663    0.00000000
                                                     2        0.1200000       -0.29679479    0.00000000
                                                     2        0.1400000        0.36849872    0.00000000
                                                     2        0.2400000        0.02793449    0.00000000
                                                     2        0.4000000       -0.46312857    0.00000000
                                                     2        0.7000000        0.97587598    0.00000000
                                                     2        1.5000000       -2.43431102    0.00000000
   12          1            1
                                      F and up 
                                                     0        0.0000010       -0.00007675    0.00000000
                                                     2        0.1200000        0.05352699    0.00000000
                                                     2        0.1400000       -0.25123645    0.00000000
                                                     2        0.1600000        0.32188106    0.00000000
                                                     2        0.2200000       -0.25206857    0.00000000
                                                     2        0.3000000        0.19290477    0.00000000
                                                     2        0.5000000       -0.10129770    0.00000000
                                                     2        0.9000000        0.00314995    0.00000000
                                                     2        1.5000000        0.18401192    0.00000000
                                      S - F
                                                     0        0.0000010        0.08065976    0.00000000
                                                     2        0.1200000       -0.09231673    0.00000000
                                                     2        0.1600000       -0.03278082    0.00000000
                                                     2        0.2800000        0.38423402    0.00000000
                                                     2        0.6000000       -1.09357590    0.00000000
                                                     2        1.1000000        1.53099489    0.00000000
                                                     2        3.0000000       -2.63300202    0.00000000
                                      P - F
                                                     0        0.0000010       -0.11638665    0.00000000
                                                     2        0.1200000        0.35468655    0.00000000
                                                     2        0.1600000       -0.59160923    0.00000000
                                                     2        0.3000000        0.49390547    0.00000000
                                                     2        0.6000000       -0.37949835    0.00000000
                                                     2        1.6000000        0.89304688    0.00000000
                                      D - F
                                                     0        0.0000010        0.05443663    0.00000000
                                                     2        0.1200000       -0.29679479    0.00000000
                                                     2        0.1400000        0.36849872    0.00000000
                                                     2        0.2400000        0.02793449    0.00000000
                                                     2        0.4000000       -0.46312857    0.00000000
                                                     2        0.7000000        0.97587598    0.00000000
                                                     2        1.5000000       -2.43431102    0.00000000
   13          1            1
                                      F and up 
                                                     0        0.0000010       -0.00007675    0.00000000
                                                     2        0.1200000        0.05352699    0.00000000
                                                     2        0.1400000       -0.25123645    0.00000000
                                                     2        0.1600000        0.32188106    0.00000000
                                                     2        0.2200000       -0.25206857    0.00000000
                                                     2        0.3000000        0.19290477    0.00000000
                                                     2        0.5000000       -0.10129770    0.00000000
                                                     2        0.9000000        0.00314995    0.00000000
                                                     2        1.5000000        0.18401192    0.00000000
                                      S - F
                                                     0        0.0000010        0.08065976    0.00000000
                                                     2        0.1200000       -0.09231673    0.00000000
                                                     2        0.1600000       -0.03278082    0.00000000
                                                     2        0.2800000        0.38423402    0.00000000
                                                     2        0.6000000       -1.09357590    0.00000000
                                                     2        1.1000000        1.53099489    0.00000000
                                                     2        3.0000000       -2.63300202    0.00000000
                                      P - F
                                                     0        0.0000010       -0.11638665    0.00000000
                                                     2        0.1200000        0.35468655    0.00000000
                                                     2        0.1600000       -0.59160923    0.00000000
                                                     2        0.3000000        0.49390547    0.00000000
                                                     2        0.6000000       -0.37949835    0.00000000
                                                     2        1.6000000        0.89304688    0.00000000
                                      D - F
                                                     0        0.0000010        0.05443663    0.00000000
                                                     2        0.1200000       -0.29679479    0.00000000
                                                     2        0.1400000        0.36849872    0.00000000
                                                     2        0.2400000        0.02793449    0.00000000
                                                     2        0.4000000       -0.46312857    0.00000000
                                                     2        0.7000000        0.97587598    0.00000000
                                                     2        1.5000000       -2.43431102    0.00000000
   14          1            1
                                      F and up 
                                                     0        0.0000010       -0.00007675    0.00000000
                                                     2        0.1200000        0.05352699    0.00000000
                                                     2        0.1400000       -0.25123645    0.00000000
                                                     2        0.1600000        0.32188106    0.00000000
                                                     2        0.2200000       -0.25206857    0.00000000
[...]
                                                     2        0.7000000        0.97587598    0.00000000
                                                     2        1.5000000       -2.43431102    0.00000000
   17          1            1
                                      F and up 
                                                     0        0.0000010       -0.00007675    0.00000000
                                                     2        0.1200000        0.05352699    0.00000000
                                                     2        0.1400000       -0.25123645    0.00000000
                                                     2        0.1600000        0.32188106    0.00000000
                                                     2        0.2200000       -0.25206857    0.00000000
                                                     2        0.3000000        0.19290477    0.00000000
                                                     2        0.5000000       -0.10129770    0.00000000
                                                     2        0.9000000        0.00314995    0.00000000
                                                     2        1.5000000        0.18401192    0.00000000
                                      S - F
                                                     0        0.0000010        0.08065976    0.00000000
                                                     2        0.1200000       -0.09231673    0.00000000
                                                     2        0.1600000       -0.03278082    0.00000000
                                                     2        0.2800000        0.38423402    0.00000000
                                                     2        0.6000000       -1.09357590    0.00000000
                                                     2        1.1000000        1.53099489    0.00000000
                                                     2        3.0000000       -2.63300202    0.00000000
                                      P - F
                                                     0        0.0000010       -0.11638665    0.00000000
                                                     2        0.1200000        0.35468655    0.00000000
                                                     2        0.1600000       -0.59160923    0.00000000
                                                     2        0.3000000        0.49390547    0.00000000
                                                     2        0.6000000       -0.37949835    0.00000000
                                                     2        1.6000000        0.89304688    0.00000000
                                      D - F
                                                     0        0.0000010        0.05443663    0.00000000
                                                     2        0.1200000       -0.29679479    0.00000000
                                                     2        0.1400000        0.36849872    0.00000000
                                                     2        0.2400000        0.02793449    0.00000000
                                                     2        0.4000000       -0.46312857    0.00000000
                                                     2        0.7000000        0.97587598    0.00000000
                                                     2        1.5000000       -2.43431102    0.00000000
   18          1            1
                                      F and up 
                                                     0        0.0000010       -0.00007675    0.00000000
                                                     2        0.1200000        0.05352699    0.00000000
                                                     2        0.1400000       -0.25123645    0.00000000
                                                     2        0.1600000        0.32188106    0.00000000
                                                     2        0.2200000       -0.25206857    0.00000000
                                                     2        0.3000000        0.19290477    0.00000000
                                                     2        0.5000000       -0.10129770    0.00000000
                                                     2        0.9000000        0.00314995    0.00000000
                                                     2        1.5000000        0.18401192    0.00000000
                                      S - F
                                                     0        0.0000010        0.08065976    0.00000000
                                                     2        0.1200000       -0.09231673    0.00000000
                                                     2        0.1600000       -0.03278082    0.00000000
                                                     2        0.2800000        0.38423402    0.00000000
                                                     2        0.6000000       -1.09357590    0.00000000
                                                     2        1.1000000        1.53099489    0.00000000
                                                     2        3.0000000       -2.63300202    0.00000000
                                      P - F
                                                     0        0.0000010       -0.11638665    0.00000000
                                                     2        0.1200000        0.35468655    0.00000000
                                                     2        0.1600000       -0.59160923    0.00000000
                                                     2        0.3000000        0.49390547    0.00000000
                                                     2        0.6000000       -0.37949835    0.00000000
                                                     2        1.6000000        0.89304688    0.00000000
                                      D - F
                                                     0        0.0000010        0.05443663    0.00000000
                                                     2        0.1200000       -0.29679479    0.00000000
                                                     2        0.1400000        0.36849872    0.00000000
                                                     2        0.2400000        0.02793449    0.00000000
                                                     2        0.4000000       -0.46312857    0.00000000
                                                     2        0.7000000        0.97587598    0.00000000
                                                     2        1.5000000       -2.43431102    0.00000000
   19          1            1
                                      F and up 
                                                     0        0.0000010       -0.00007675    0.00000000
                                                     2        0.1200000        0.05352699    0.00000000
                                                     2        0.1400000       -0.25123645    0.00000000
                                                     2        0.1600000        0.32188106    0.00000000
                                                     2        0.2200000       -0.25206857    0.00000000
                                                     2        0.3000000        0.19290477    0.00000000
                                                     2        0.5000000       -0.10129770    0.00000000
                                                     2        0.9000000        0.00314995    0.00000000
                                                     2        1.5000000        0.18401192    0.00000000
                                      S - F
                                                     0        0.0000010        0.08065976    0.00000000
                                                     2        0.1200000       -0.09231673    0.00000000
                                                     2        0.1600000       -0.03278082    0.00000000
                                                     2        0.2800000        0.38423402    0.00000000
                                                     2        0.6000000       -1.09357590    0.00000000
                                                     2        1.1000000        1.53099489    0.00000000
                                                     2        3.0000000       -2.63300202    0.00000000
                                      P - F
                                                     0        0.0000010       -0.11638665    0.00000000
                                                     2        0.1200000        0.35468655    0.00000000
                                                     2        0.1600000       -0.59160923    0.00000000
                                                     2        0.3000000        0.49390547    0.00000000
                                                     2        0.6000000       -0.37949835    0.00000000
                                                     2        1.6000000        0.89304688    0.00000000
                                      D - F
                                                     0        0.0000010        0.05443663    0.00000000
                                                     2        0.1200000       -0.29679479    0.00000000
                                                     2        0.1400000        0.36849872    0.00000000
                                                     2        0.2400000        0.02793449    0.00000000
                                                     2        0.4000000       -0.46312857    0.00000000
                                                     2        0.7000000        0.97587598    0.00000000
                                                     2        1.5000000       -2.43431102    0.00000000
 ======================================================================================================
   297 basis functions,   497 primitive gaussians,   315 cartesian basis functions
    31 alpha electrons       31 beta electrons
       nuclear repulsion energy       367.6021481473 Hartrees.
 NAtoms=   19 NActive=   19 NUniq=   19 SFac= 1.00D+00 NAtFMM=   60 NAOKFM=F Big=F
   1 Symmetry operations used in ECPInt.
 ECPInt:  NShTT=    8646 NPrTT=   38938 LenC2=    8614 LenP2D=   29650.
 LDataN:  DoStor=T MaxTD1= 6 Len=  172
 Initial guess from the checkpoint file:  "BDE49_nonexpt_54_mol1.chk"
 B after Tr=     0.000000   -0.000000   -0.000000
         Rot=    1.000000    0.000000   -0.000000    0.000000 Ang=   0.00 deg.
 >>>>>>>>>> Convergence criterion not met.
 SCF Done:  E(RHF) =  -320.593664387     A.U. after    2 cycles
            NFock=  1  Conv=0.43D-01     -V/T= 1.9993

 **********************************************************************

            Population analysis using the SCF Density.

 **********************************************************************

 Orbital symmetries:
       Occupied  (A) (A) (A) (A) (A) (A) (A) (A) (A) (A) (A) (A)
                 (A) (A) (A) (A) (A) (A) (A) (A) (A) (A) (A) (A)
                 (A) (A) (A) (A) (A) (A) (A)
       Virtual   (A) (A) (A) (A) (A) (A) (A) (A) (A) (A) (A) (A)
                 (A) (A) (A) (A) (A) (A) (A) (A) (A) (A) (A) (A)
                 (A) (A) (A) (A) (A) (A) (A) (A) (A) (A) (A) (A)
                 (A) (A) (A) (A) (A) (A) (A) (A) (A) (A) (A) (A)
                 (A) (A) (A) (A) (A) (A) (A) (A) (A) (A) (A) (A)
                 (A) (A) (A) (A) (A) (A) (A) (A) (A) (A) (A) (A)
                 (A) (A) (A) (A) (A) (A) (A) (A) (A) (A) (A) (A)
                 (A) (A) (A) (A) (A) (A) (A) (A) (A) (A) (A) (A)
                 (A) (A) (A) (A) (A) (A) (A) (A) (A) (A) (A) (A)
                 (A) (A) (A) (A) (A) (A) (A) (A) (A) (A) (A) (A)
                 (A) (A) (A) (A) (A) (A) (A) (A) (A) (A) (A) (A)
                 (A) (A) (A) (A) (A) (A) (A) (A) (A) (A) (A) (A)
                 (A) (A) (A) (A) (A) (A) (A) (A) (A) (A) (A) (A)
                 (A) (A) (A) (A) (A) (A) (A) (A) (A) (A) (A) (A)
                 (A) (A) (A) (A) (A) (A) (A) (A) (A) (A) (A) (A)
                 (A) (A) (A) (A) (A) (A) (A) (A) (A) (A) (A) (A)
                 (A) (A) (A) (A) (A) (A) (A) (A) (A) (A) (A) (A)
                 (A) (A) (A) (A) (A) (A) (A) (A) (A) (A) (A) (A)
                 (A) (A) (A) (A) (A) (A) (A) (A) (A) (A) (A) (A)
                 (A) (A) (A) (A) (A) (A) (A) (A) (A) (A) (A) (A)
                 (A) (A) (A) (A) (A) (A) (A) (A) (A) (A) (A) (A)
                 (A) (A) (A) (A) (A) (A) (A) (A) (A) (A) (A) (A)
                 (A) (A)
 The electronic state is 1-A.
 Alpha  occ. eigenvalues --  -11.25631 -11.24412 -11.24387 -11.24097 -11.24044
 Alpha  occ. eigenvalues --  -11.24032 -11.22168  -7.57989  -7.57654  -1.15823
 Alpha  occ. eigenvalues --   -1.04996  -1.01641  -0.93928  -0.83640  -0.81000
 Alpha  occ. eigenvalues --   -0.74260  -0.70592  -0.65638  -0.64118  -0.63036
 Alpha  occ. eigenvalues --   -0.59896  -0.58067  -0.55955  -0.52601  -0.50171
 Alpha  occ. eigenvalues --   -0.50102  -0.48997  -0.47132  -0.42622  -0.34661
 Alpha  occ. eigenvalues --   -0.33226
 Alpha virt. eigenvalues --    0.02958   0.03158   0.03404   0.03740   0.04627
 Alpha virt. eigenvalues --    0.04645   0.05692   0.06040   0.06433   0.07097
 Alpha virt. eigenvalues --    0.07813   0.08886   0.09365   0.09505   0.10408
 Alpha virt. eigenvalues --    0.10699   0.11118   0.11798   0.12331   0.13251
 Alpha virt. eigenvalues --    0.14086   0.14429   0.14621   0.14844   0.15457
 Alpha virt. eigenvalues --    0.15665   0.15972   0.16058   0.16716   0.16995
 Alpha virt. eigenvalues --    0.17507   0.17942   0.18824   0.19259   0.19910
 Alpha virt. eigenvalues --    0.20220   0.20678   0.21247   0.21984   0.22384
 Alpha virt. eigenvalues --    0.23649   0.24681   0.25459   0.26083   0.27883
 Alpha virt. eigenvalues --    0.29322   0.30190   0.30963   0.31213   0.31612
 Alpha virt. eigenvalues --    0.31881   0.33019   0.33267   0.33811   0.34100
 Alpha virt. eigenvalues --    0.35059   0.35657   0.36318   0.36767   0.37232
 Alpha virt. eigenvalues --    0.38120   0.38521   0.38822   0.39183   0.39519
 Alpha virt. eigenvalues --    0.40788   0.41493   0.42454   0.42744   0.43426
 Alpha virt. eigenvalues --    0.44139   0.44646   0.44801   0.45807   0.47082
 Alpha virt. eigenvalues --    0.47342   0.48239   0.49505   0.50171   0.50696
 Alpha virt. eigenvalues --    0.51812   0.52911   0.53062   0.54024   0.55126
 Alpha virt. eigenvalues --    0.55544   0.56415   0.57151   0.57963   0.58560
 Alpha virt. eigenvalues --    0.59180   0.59599   0.61012   0.62015   0.62341
 Alpha virt. eigenvalues --    0.62768   0.63201   0.64385   0.64795   0.65706
 Alpha virt. eigenvalues --    0.66175   0.66913   0.67373   0.68090   0.68489
 Alpha virt. eigenvalues --    0.68901   0.69765   0.69956   0.70422   0.71548
 Alpha virt. eigenvalues --    0.72448   0.73512   0.74599   0.75141   0.75548
 Alpha virt. eigenvalues --    0.76661   0.77231   0.77454   0.78101   0.79423
 Alpha virt. eigenvalues --    0.79915   0.81737   0.82546   0.83505   0.84026
 Alpha virt. eigenvalues --    0.85553   0.86373   0.86662   0.86942   0.87760
 Alpha virt. eigenvalues --    0.90588   0.90928   0.92351   0.93456   0.93980
 Alpha virt. eigenvalues --    0.94712   0.94863   0.96106   0.97305   0.97741
 Alpha virt. eigenvalues --    0.99201   1.00705   1.01151   1.02370   1.04722
 Alpha virt. eigenvalues --    1.05620   1.06657   1.07475   1.08453   1.09267
 Alpha virt. eigenvalues --    1.11752   1.12880   1.13083   1.16489   1.18309
 Alpha virt. eigenvalues --    1.18625   1.19264   1.23336   1.25091   1.25803
 Alpha virt. eigenvalues --    1.30131   1.30909   1.32113   1.33794   1.34972
 Alpha virt. eigenvalues --    1.38971   1.40171   1.40597   1.45156   1.45771
 Alpha virt. eigenvalues --    1.50342   1.52461   1.53995   1.55334   1.56584
 Alpha virt. eigenvalues --    1.58175   1.59198   1.61779   1.62265   1.64012
 Alpha virt. eigenvalues --    1.64969   1.65810   1.66881   1.69481   1.69906
 Alpha virt. eigenvalues --    1.71086   1.72923   1.74055   1.74476   1.75769
 Alpha virt. eigenvalues --    1.77476   1.79493   1.81191   1.84050   1.84360
 Alpha virt. eigenvalues --    1.86798   1.88409   1.89551   1.91045   1.92898
 Alpha virt. eigenvalues --    1.93463   1.95132   1.97655   1.98516   1.99579
 Alpha virt. eigenvalues --    2.01083   2.01875   2.02543   2.06261   2.09136
 Alpha virt. eigenvalues --    2.13035   2.14112   2.14735   2.15797   2.16360
 Alpha virt. eigenvalues --    2.17234   2.18301   2.19564   2.19859   2.23430
 Alpha virt. eigenvalues --    2.24536   2.26202   2.26627   2.29217   2.29972
 Alpha virt. eigenvalues --    2.31168   2.34177   2.35629   2.37471   2.38903
 Alpha virt. eigenvalues --    2.39358   2.41901   2.43981   2.44742   2.45798
 Alpha virt. eigenvalues --    2.50179   2.51274   2.54522   2.54996   2.58655
 Alpha virt. eigenvalues --    2.59581   2.64179   2.66501   2.70119   2.72021
 Alpha virt. eigenvalues --    2.74602   2.82256   2.84082   2.85085   2.86740
 Alpha virt. eigenvalues --    2.89602   2.99553   3.01816   3.04686   3.05672
 Alpha virt. eigenvalues --    3.10953   3.16828   3.17347   3.21593   3.30616
 Alpha virt. eigenvalues --    3.33434   3.39141   3.69727   3.71418   3.89390
 Alpha virt. eigenvalues --    4.77350
          Condensed to atoms (all electrons):
 Mulliken charges:
               1
     1  B    0.248065
     2  B   -0.829906
     3  C   -0.511419
     4  C    0.868049
     5  C    0.179374
     6  C    0.269298
     7  C    0.086609
     8  C    0.111859
     9  C    0.060332
    10  H   -0.332541
    11  H   -0.234250
    12  H   -0.214358
    13  H   -0.235532
    14  H   -0.321246
    15  H   -0.018406
    16  H   -0.006714
    17  H    0.385026
    18  H    0.270390
    19  H    0.225369
 Sum of Mulliken charges =  -0.00000
 Mulliken charges with hydrogens summed into heavy atoms:
               1
     1  B    0.473434
     2  B   -0.174491
     3  C   -0.536539
     4  C    0.868049
     5  C   -0.153167
     6  C   -0.051948
     7  C   -0.147640
     8  C   -0.102499
     9  C   -0.175200
 Electronic spatial extent (au):  <R**2>=           1315.3019
 Charge=             -0.0000 electrons
 Dipole moment (field-independent basis, Debye):
    X=              0.2100    Y=             -0.1671    Z=              0.4148  Tot=              0.4941

 Test job not archived.
 1\1\GINC-SE070\SP\RHF\Aug-CC-pVDZ\C7H10B2\OHZDE\09-Apr-2025\0\\#t hf a
 ug-cc-pvdz iop(5/13=1,5/36=2,99/5=2) pseudo=read geom=check guess=(rea
 d,tcheck) scf=(maxcycle=1)\\title\\0,1\B,0,-2.372867,-0.466194,-0.4117
 4\B,0,-3.319363,0.808507,-0.827406\C,0,-1.53359,-0.630758,0.922869\C,0
 ,-0.119682,-0.28338,0.475889\C,0,0.73132,-1.26393,-0.051063\C,0,0.3485
 86,1.034743,0.544336\C,0,2.017737,-0.941221,-0.472783\C,0,2.475526,0.3
 72456,-0.38709\C,0,1.635359,1.359714,0.122501\H,0,0.382469,-2.289011,-
 0.120993\H,0,2.664525,-1.717255,-0.867013\H,0,3.477814,0.6239,-0.71470
 9\H,0,1.981516,2.384903,0.193737\H,0,-0.298112,1.810014,0.942656\H,0,-
 1.559697,-1.658812,1.294487\H,0,-1.83983,0.03471,1.733024\H,0,-2.91173
 3,1.800578,-1.355798\H,0,-4.501049,0.774705,-0.629785\H,0,-2.266295,-1
 .361039,-1.207824\\Version=ES64L-G16RevC.01\State=1-A\HF=-320.5936644\
 RMSD=4.279e-02\Dipole=0.0826057,-0.065754,0.1632139\Quadrupole=0.45517
 59,2.1602628,-2.6154388,1.1505306,-3.0776966,1.3427498\PG=C01 [X(C7H10
 B2)]\\@


 THERE IS NO SUBJECT, HOWEVER COMPLEX,
 WHICH, IF STUDIED WITH PATIENCE AND INTELLIGIENCE
 WILL NOT BECOME
 MORE COMPLEX
                        QUOTED BY D. GORDON ROHMAN
 Job cpu time:       0 days  0 hours  2 minutes  9.1 seconds.
 Elapsed time:       0 days  0 hours  0 minutes  9.4 seconds.
 File lengths (MBytes):  RWF=     14 Int=      0 D2E=      0 Chk=     12 Scr=      1
 Normal termination of Gaussian 16 at Wed Apr  9 00:38:14 2025.
