 Entering Gaussian System, Link 0=g16
 Input=BDE49_nonexpt_938_mol1.gjf
 Output=BDE49_nonexpt_938_mol1.log
 Initial command:
 /arc/software/Gaussian/g16.c01/l1.exe "/tmp/slurm/4855501/Gau-1184023.inp" -scrdir="/tmp/slurm/4855501/"
 Entering Link 1 = /arc/software/Gaussian/g16.c01/l1.exe PID=   1184024.
  
 Copyright (c) 1988-2019, Gaussian, Inc.  All Rights Reserved.
  
 This is part of the Gaussian(R) 16 program.  It is based on
 the Gaussian(R) 09 system (copyright 2009, Gaussian, Inc.),
 the Gaussian(R) 03 system (copyright 2003, Gaussian, Inc.),
 the Gaussian(R) 98 system (copyright 1998, Gaussian, Inc.),
 the Gaussian(R) 94 system (copyright 1995, Gaussian, Inc.),
 the Gaussian 92(TM) system (copyright 1992, Gaussian, Inc.),
 the Gaussian 90(TM) system (copyright 1990, Gaussian, Inc.),
 the Gaussian 88(TM) system (copyright 1988, Gaussian, Inc.),
 the Gaussian 86(TM) system (copyright 1986, Carnegie Mellon
 University), and the Gaussian 82(TM) system (copyright 1983,
 Carnegie Mellon University). Gaussian is a federally registered
 trademark of Gaussian, Inc.
  
 This software contains proprietary and confidential information,
 including trade secrets, belonging to Gaussian, Inc.
  
 This software is provided under written license and may be
 used, copied, transmitted, or stored only in accord with that
 written license.
  
 The following legend is applicable only to US Government
 contracts under FAR:
  
                    RESTRICTED RIGHTS LEGEND
  
 Use, reproduction and disclosure by the US Government is
 subject to restrictions as set forth in subparagraphs (a)
 and (c) of the Commercial Computer Software - Restricted
 Rights clause in FAR 52.227-19.
  
 Gaussian, Inc.
 340 Quinnipiac St., Bldg. 40, Wallingford CT 06492
  
  
 ---------------------------------------------------------------
 Warning -- This program may not be used in any manner that
 competes with the business of Gaussian, Inc. or will provide
 assistance to any competitor of Gaussian, Inc.  The licensee
 of this program is prohibited from giving any competitor of
 Gaussian, Inc. access to this program.  By using this program,
 the user acknowledges that Gaussian, Inc. is engaged in the
 business of creating and licensing software in the field of
 computational chemistry and represents and warrants to the
 licensee that it is not a competitor of Gaussian, Inc. and that
 it will not use this program in any manner prohibited above.
 ---------------------------------------------------------------
  

 Cite this work as:
 Gaussian 16, Revision C.01,
 M. J. Frisch, G. W. Trucks, H. B. Schlegel, G. E. Scuseria, 
 M. A. Robb, J. R. Cheeseman, G. Scalmani, V. Barone, 
 G. A. Petersson, H. Nakatsuji, X. Li, M. Caricato, A. V. Marenich, 
 J. Bloino, B. G. Janesko, R. Gomperts, B. Mennucci, H. P. Hratchian, 
 J. V. Ortiz, A. F. Izmaylov, J. L. Sonnenberg, D. Williams-Young, 
 F. Ding, F. Lipparini, F. Egidi, J. Goings, B. Peng, A. Petrone, 
 T. Henderson, D. Ranasinghe, V. G. Zakrzewski, J. Gao, N. Rega, 
 G. Zheng, W. Liang, M. Hada, M. Ehara, K. Toyota, R. Fukuda, 
 J. Hasegawa, M. Ishida, T. Nakajima, Y. Honda, O. Kitao, H. Nakai, 
 T. Vreven, K. Throssell, J. A. Montgomery, Jr., J. E. Peralta, 
 F. Ogliaro, M. J. Bearpark, J. J. Heyd, E. N. Brothers, K. N. Kudin, 
 V. N. Staroverov, T. A. Keith, R. Kobayashi, J. Normand, 
 K. Raghavachari, A. P. Rendell, J. C. Burant, S. S. Iyengar, 
 J. Tomasi, M. Cossi, J. M. Millam, M. Klene, C. Adamo, R. Cammi, 
 J. W. Ochterski, R. L. Martin, K. Morokuma, O. Farkas, 
 J. B. Foresman, and D. J. Fox, Gaussian, Inc., Wallingford CT, 2019.
 
 ******************************************
 Gaussian 16:  ES64L-G16RevC.01  3-Jul-2019
                 9-Apr-2025 
 ******************************************
 %nprocs=16
 Will use up to   16 processors via shared memory.
 %mem=30GB
 %chk=BDE49_nonexpt_938_mol1.chk
 ----------------------------------------------------------------------
 #t hf aug-cc-pvdz symm=none int=(grid=ultrafine) guess=(read,tcheck) s
 table=(opt,rrhf)
 ----------------------------------------------------------------------
 -----
 title
 -----
 Symbolic Z-matrix:
 Charge =  0 Multiplicity = 1
 Cl                    3.26203  -0.55737  -0.1307 
 N                     1.53686  -0.83946  -0.06497 
 C                     0.83266   0.22973   0.11027 
 N                     1.25849   1.49533   0.32316 
 H                     2.26435   1.57643   0.25002 
 C                     0.51025   2.7421    0.17903 
 H                     1.06069   3.52303   0.70346 
 H                    -0.47076   2.66644   0.6455 
 H                     0.3877    3.02745  -0.86891 
 C                    -0.65638  -0.08866   0.18794 
 Cl                   -1.36915   0.33502   1.73171 
 N                    -1.45061   0.58965  -0.98467 
 O                    -2.65131   0.64051  -0.86747 
 O                    -0.77533   0.97166  -1.91751 
 N                    -0.88179  -1.64645  -0.08162 
 O                    -1.00856  -1.9432   -1.24598 
 O                    -0.91241  -2.35721   0.88673 
 
                    Distance matrix (angstroms):
                    1          2          3          4          5
     1  Cl   0.000000
     2  N    1.749323   0.000000
     3  C    2.565043   1.292198   0.000000
     4  N    2.904091   2.383149   1.352184   0.000000
     5  H    2.386083   2.542636   1.970500   1.011773   0.000000
     6  C    4.307519   3.733772   2.533906   1.461185   2.107297
     7  H    4.710771   4.455175   3.354059   2.072515   2.333167
     8  H    4.992908   4.102031   2.814771   2.113217   2.970746
     9  H    4.653772   4.113377   2.997334   2.127596   2.622831
    10  C    3.959190   2.331944   1.524677   2.488781   3.362594
    11  Cl   5.070770   3.612797   2.736436   3.199187   4.115676
    12  N    4.924819   3.437023   2.557676   3.141629   4.037208
    13  O    6.078266   4.513872   3.641803   4.175500   5.127221
    14  O    4.672352   3.472500   2.692201   3.071024   3.782000
    15  N    4.284825   2.549769   2.548756   3.823004   4.516088
    16  O    4.626265   3.015320   3.154539   4.407402   5.033658
    17  O    4.658382   3.034495   3.215645   4.457851   5.096141
                    6          7          8          9         10
     6  C    0.000000
     7  H    1.089891   0.000000
     8  H    1.088891   1.755683   0.000000
     9  H    1.092989   1.780687   1.777843   0.000000
    10  C    3.061746   4.032171   2.799001   3.452126   0.000000
    11  Cl   3.425924   4.138215   2.724425   4.135086   1.752358
    12  N    3.135629   4.214389   2.816136   3.055429   1.570316
    13  O    3.937927   4.955367   3.338908   3.864334   2.371773
    14  O    3.030283   4.092662   3.087726   2.584270   2.360365
    15  N    4.611399   5.577906   4.393023   4.906802   1.596923
    16  O    5.127326   6.161314   5.011563   5.176784   2.370545
    17  O    5.341132   6.205150   5.048792   5.810945   2.387503
                   11         12         13         14         15
    11  Cl   0.000000
    12  N    2.729499   0.000000
    13  O    2.914279   1.207479   0.000000
    14  O    3.751626   1.213310   2.175206   0.000000
    15  N    2.729813   2.477733   2.996486   3.199419   0.000000
    16  O    3.766558   2.584381   3.085038   3.000295   1.208252
    17  O    2.858438   3.532103   3.884241   4.354757   1.201595
                   16         17
    16  O    0.000000
    17  O    2.174654   0.000000
 Symmetry turned off by external request.
 Rotational constants (GHZ):           0.8113537           0.5376107           0.4595216
   343 basis functions,   679 primitive gaussians,   369 cartesian basis functions
    58 alpha electrons       58 beta electrons
       nuclear repulsion energy      1116.5081984733 Hartrees.
 NAtoms=   17 NActive=   17 NUniq=   17 SFac= 1.00D+00 NAtFMM=   60 NAOKFM=F Big=F
 ExpMin= 2.97D-02 ExpMax= 1.28D+05 ExpMxC= 1.24D+03 IAcc=3 IRadAn=         5 AccDes= 0.00D+00
 Harris functional with IExCor=  205 and IRadAn=       5 diagonalized for initial guess.
 HarFok:  IExCor=  205 AccDes= 0.00D+00 IRadAn=         5 IDoV= 1 UseB2=F ITyADJ=14
 ICtDFT=  3500011 ScaDFX=  1.000000  1.000000  1.000000  1.000000
 FoFCou: FMM=F IPFlag=           0 FMFlag=      100000 FMFlg1=           0
         NFxFlg=           0 DoJE=T BraDBF=F KetDBF=T FulRan=T
         wScrn=  0.000000 ICntrl=       500 IOpCl=  0 I1Cent=   200000004 NGrid=           0
         NMat0=    1 NMatS0=      1 NMatT0=    0 NMatD0=    1 NMtDS0=    0 NMtDT0=    0
 Symmetry not used in FoFCou.
 SCF Done:  E(RHF) =  -1551.92916168     A.U. after   16 cycles
            NFock= 16  Conv=0.67D-08     -V/T= 2.0008

 **********************************************************************

            Population analysis using the SCF Density.

 **********************************************************************

 Alpha  occ. eigenvalues -- -104.91101-104.87669 -20.66599 -20.66534 -20.65627
 Alpha  occ. eigenvalues --  -20.65296 -15.91381 -15.90795 -15.65287 -15.64290
 Alpha  occ. eigenvalues --  -11.48981 -11.41059 -11.31155 -10.63664 -10.59977
 Alpha  occ. eigenvalues --   -8.10445  -8.10063  -8.10052  -8.06760  -8.06379
 Alpha  occ. eigenvalues --   -8.06358  -1.67359  -1.65695  -1.46715  -1.46105
 Alpha  occ. eigenvalues --   -1.35940  -1.25047  -1.24700  -1.11650  -1.07251
 Alpha  occ. eigenvalues --   -0.99623  -0.98289  -0.91224  -0.84968  -0.83249
 Alpha  occ. eigenvalues --   -0.78399  -0.77885  -0.76791  -0.75330  -0.74182
 Alpha  occ. eigenvalues --   -0.71954  -0.69131  -0.66079  -0.63008  -0.60100
 Alpha  occ. eigenvalues --   -0.59201  -0.56596  -0.55673  -0.54478  -0.53394
 Alpha  occ. eigenvalues --   -0.52350  -0.51152  -0.49909  -0.49620  -0.48553
 Alpha  occ. eigenvalues --   -0.48359  -0.44944  -0.39444
 Alpha virt. eigenvalues --    0.02356   0.03086   0.04274   0.04770   0.05261
 Alpha virt. eigenvalues --    0.06125   0.07844   0.08390   0.09333   0.09894
 Alpha virt. eigenvalues --    0.10224   0.10802   0.11708   0.13408   0.13598
 Alpha virt. eigenvalues --    0.14184   0.14528   0.14815   0.15439   0.15914
 Alpha virt. eigenvalues --    0.16385   0.16965   0.17306   0.17684   0.18368
 Alpha virt. eigenvalues --    0.19512   0.19946   0.20313   0.21121   0.21450
 Alpha virt. eigenvalues --    0.22363   0.22924   0.23431   0.24927   0.25201
 Alpha virt. eigenvalues --    0.26319   0.27273   0.28119   0.28521   0.28778
 Alpha virt. eigenvalues --    0.29733   0.29803   0.30001   0.30615   0.31825
 Alpha virt. eigenvalues --    0.32665   0.33387   0.33703   0.33963   0.34776
 Alpha virt. eigenvalues --    0.35965   0.36426   0.36531   0.37289   0.37460
 Alpha virt. eigenvalues --    0.38082   0.38609   0.39436   0.39961   0.40576
 Alpha virt. eigenvalues --    0.41576   0.42293   0.43027   0.43413   0.44000
 Alpha virt. eigenvalues --    0.45615   0.45731   0.47110   0.47851   0.48860
 Alpha virt. eigenvalues --    0.49375   0.50140   0.50443   0.51173   0.52487
 Alpha virt. eigenvalues --    0.52839   0.53398   0.53565   0.54727   0.55001
 Alpha virt. eigenvalues --    0.55435   0.56452   0.56985   0.58772   0.59012
 Alpha virt. eigenvalues --    0.60427   0.60856   0.62514   0.63710   0.63972
 Alpha virt. eigenvalues --    0.66116   0.66725   0.67655   0.68003   0.69597
 Alpha virt. eigenvalues --    0.69938   0.70251   0.71557   0.72769   0.73453
 Alpha virt. eigenvalues --    0.75170   0.76604   0.76904   0.77813   0.78987
 Alpha virt. eigenvalues --    0.79898   0.80798   0.84131   0.84553   0.85218
 Alpha virt. eigenvalues --    0.86532   0.87788   0.87960   0.89401   0.90426
 Alpha virt. eigenvalues --    0.91555   0.93082   0.93825   0.94736   0.95295
 Alpha virt. eigenvalues --    0.97599   0.98589   0.98868   1.00571   1.01576
 Alpha virt. eigenvalues --    1.02140   1.03005   1.04557   1.05121   1.06603
 Alpha virt. eigenvalues --    1.08060   1.10019   1.11270   1.11548   1.13842
 Alpha virt. eigenvalues --    1.15237   1.15737   1.16286   1.17443   1.18616
 Alpha virt. eigenvalues --    1.20542   1.22087   1.22300   1.23316   1.24935
 Alpha virt. eigenvalues --    1.25177   1.25579   1.26418   1.27396   1.28670
 Alpha virt. eigenvalues --    1.29149   1.30556   1.31483   1.32729   1.33365
 Alpha virt. eigenvalues --    1.34038   1.35199   1.36362   1.39774   1.41048
 Alpha virt. eigenvalues --    1.41567   1.41952   1.43777   1.44467   1.45422
 Alpha virt. eigenvalues --    1.45816   1.46272   1.46870   1.47340   1.49157
 Alpha virt. eigenvalues --    1.50444   1.50531   1.51924   1.54864   1.55631
 Alpha virt. eigenvalues --    1.56544   1.59481   1.59907   1.60681   1.63472
 Alpha virt. eigenvalues --    1.65316   1.67327   1.68348   1.71131   1.73115
 Alpha virt. eigenvalues --    1.73634   1.75483   1.76727   1.78644   1.81718
 Alpha virt. eigenvalues --    1.82808   1.84727   1.85713   1.87246   1.88284
 Alpha virt. eigenvalues --    1.91049   1.92480   1.93982   1.95604   1.97711
 Alpha virt. eigenvalues --    1.99417   2.01114   2.04397   2.06496   2.08269
 Alpha virt. eigenvalues --    2.09304   2.10936   2.13415   2.15903   2.17991
 Alpha virt. eigenvalues --    2.19304   2.22449   2.25292   2.25645   2.27176
 Alpha virt. eigenvalues --    2.28189   2.29481   2.30933   2.32824   2.34416
 Alpha virt. eigenvalues --    2.39061   2.39757   2.43664   2.44716   2.45507
 Alpha virt. eigenvalues --    2.47809   2.49366   2.50405   2.51299   2.56216
 Alpha virt. eigenvalues --    2.59379   2.59969   2.61234   2.63400   2.65631
 Alpha virt. eigenvalues --    2.69606   2.71771   2.72445   2.75648   2.77675
 Alpha virt. eigenvalues --    2.79839   2.81288   2.84338   2.85301   2.88285
 Alpha virt. eigenvalues --    2.90208   2.92581   2.94417   2.98522   2.98892
 Alpha virt. eigenvalues --    3.03016   3.08060   3.10882   3.12981   3.23543
 Alpha virt. eigenvalues --    3.28241   3.36483   3.38537   3.45055   3.55924
 Alpha virt. eigenvalues --    3.61406   3.66372   3.67313   3.67553   3.69364
 Alpha virt. eigenvalues --    3.71178   3.72538   3.75291   3.75713   3.78688
 Alpha virt. eigenvalues --    3.79977   3.82267   3.88642   3.92262   3.93179
 Alpha virt. eigenvalues --    3.96856   4.02308   4.03541   4.10160   4.17500
 Alpha virt. eigenvalues --    4.18183   4.21533   4.25521   4.48844   4.68423
          Condensed to atoms (all electrons):
 Mulliken charges:
               1
     1  Cl   0.158443
     2  N   -0.866058
     3  C    0.894172
     4  N   -0.337167
     5  H   -0.046639
     6  C    0.868760
     7  H   -0.232965
     8  H   -0.111143
     9  H   -0.042941
    10  C    1.085744
    11  Cl   0.087953
    12  N    1.124452
    13  O   -0.858772
    14  O   -0.844374
    15  N    0.682428
    16  O   -0.774632
    17  O   -0.787261
 Sum of Mulliken charges =  -0.00000
 Mulliken charges with hydrogens summed into heavy atoms:
               1
     1  Cl   0.158443
     2  N   -0.866058
     3  C    0.894172
     4  N   -0.383806
     6  C    0.481710
    10  C    1.085744
    11  Cl   0.087953
    12  N    1.124452
    13  O   -0.858772
    14  O   -0.844374
    15  N    0.682428
    16  O   -0.774632
    17  O   -0.787261
 Electronic spatial extent (au):  <R**2>=           2622.2512
 Charge=             -0.0000 electrons
 Dipole moment (field-independent basis, Debye):
    X=              1.3868    Y=              5.4119    Z=              2.3762  Tot=              6.0711
 NROrb=    343 NOA=    58 NOB=    58 NVA=   285 NVB=   285

 **** Warning!!: The largest alpha MO coefficient is  0.79515991D+02

    12 initial guesses have been made.
 Iteration     1 Dimension    12 NMult     0 NNew     12
 Iteration     2 Dimension    24 NMult    12 NNew     12
 Iteration     3 Dimension    27 NMult    24 NNew      3
 New state      1 was old state      2
 Iteration     4 Dimension    30 NMult    27 NNew      3
 Iteration     5 Dimension    33 NMult    30 NNew      3
 Iteration     6 Dimension    36 NMult    33 NNew      3
 Iteration     7 Dimension    39 NMult    36 NNew      3
 Iteration     8 Dimension    42 NMult    39 NNew      3
 Iteration     9 Dimension    45 NMult    42 NNew      3
 Iteration    10 Dimension    48 NMult    45 NNew      3
 Iteration    11 Dimension    51 NMult    48 NNew      3
 Iteration    12 Dimension    54 NMult    51 NNew      3
 Iteration    13 Dimension    57 NMult    54 NNew      3
 Iteration    14 Dimension    60 NMult    57 NNew      3
 Iteration    15 Dimension    63 NMult    60 NNew      3
 ***********************************************************************
 Stability analysis using <AA,BB:AA,BB> singles matrix:
 ***********************************************************************
 Ground to excited state transition densities written to RWF  633

 Eigenvectors of the stability matrix:
 
 Excited state symmetry could not be determined.
 Eigenvector   1:      Singlet-?Sym  Eigenvalue= 0.1891486  <S**2>=0.000
      47 -> 60        -0.27638
      48 -> 60        -0.24130
      49 -> 60         0.25091
      50 -> 60        -0.34757
      51 -> 60        -0.12921
      53 -> 60        -0.12231
 The wavefunction is stable under the perturbations considered.
 The wavefunction is already stable.

 **********************************************************************

            Population analysis using the SCF Density.

 **********************************************************************

 Alpha  occ. eigenvalues -- -104.91101-104.87669 -20.66599 -20.66534 -20.65627
 Alpha  occ. eigenvalues --  -20.65296 -15.91381 -15.90795 -15.65287 -15.64290
 Alpha  occ. eigenvalues --  -11.48981 -11.41059 -11.31155 -10.63664 -10.59977
 Alpha  occ. eigenvalues --   -8.10445  -8.10063  -8.10052  -8.06760  -8.06379
 Alpha  occ. eigenvalues --   -8.06358  -1.67359  -1.65695  -1.46715  -1.46105
 Alpha  occ. eigenvalues --   -1.35940  -1.25047  -1.24700  -1.11650  -1.07251
 Alpha  occ. eigenvalues --   -0.99623  -0.98289  -0.91224  -0.84968  -0.83249
 Alpha  occ. eigenvalues --   -0.78399  -0.77885  -0.76791  -0.75330  -0.74182
 Alpha  occ. eigenvalues --   -0.71954  -0.69131  -0.66079  -0.63008  -0.60100
 Alpha  occ. eigenvalues --   -0.59201  -0.56596  -0.55673  -0.54478  -0.53394
 Alpha  occ. eigenvalues --   -0.52350  -0.51152  -0.49909  -0.49620  -0.48553
 Alpha  occ. eigenvalues --   -0.48359  -0.44944  -0.39444
 Alpha virt. eigenvalues --    0.02356   0.03086   0.04274   0.04770   0.05261
 Alpha virt. eigenvalues --    0.06125   0.07844   0.08390   0.09333   0.09894
 Alpha virt. eigenvalues --    0.10224   0.10802   0.11708   0.13408   0.13598
 Alpha virt. eigenvalues --    0.14184   0.14528   0.14815   0.15439   0.15914
 Alpha virt. eigenvalues --    0.16385   0.16965   0.17306   0.17684   0.18368
 Alpha virt. eigenvalues --    0.19512   0.19946   0.20313   0.21121   0.21450
 Alpha virt. eigenvalues --    0.22363   0.22924   0.23431   0.24927   0.25201
 Alpha virt. eigenvalues --    0.26319   0.27273   0.28119   0.28521   0.28778
 Alpha virt. eigenvalues --    0.29733   0.29803   0.30001   0.30615   0.31825
 Alpha virt. eigenvalues --    0.32665   0.33387   0.33703   0.33963   0.34776
 Alpha virt. eigenvalues --    0.35965   0.36426   0.36531   0.37289   0.37460
 Alpha virt. eigenvalues --    0.38082   0.38609   0.39436   0.39961   0.40576
 Alpha virt. eigenvalues --    0.41576   0.42293   0.43027   0.43413   0.44000
 Alpha virt. eigenvalues --    0.45615   0.45731   0.47110   0.47851   0.48860
 Alpha virt. eigenvalues --    0.49375   0.50140   0.50443   0.51173   0.52487
 Alpha virt. eigenvalues --    0.52839   0.53398   0.53565   0.54727   0.55001
 Alpha virt. eigenvalues --    0.55435   0.56452   0.56985   0.58772   0.59012
 Alpha virt. eigenvalues --    0.60427   0.60856   0.62514   0.63710   0.63972
 Alpha virt. eigenvalues --    0.66116   0.66725   0.67655   0.68003   0.69597
 Alpha virt. eigenvalues --    0.69938   0.70251   0.71557   0.72769   0.73453
 Alpha virt. eigenvalues --    0.75170   0.76604   0.76904   0.77813   0.78987
 Alpha virt. eigenvalues --    0.79898   0.80798   0.84131   0.84553   0.85218
 Alpha virt. eigenvalues --    0.86532   0.87788   0.87960   0.89401   0.90426
 Alpha virt. eigenvalues --    0.91555   0.93082   0.93825   0.94736   0.95295
 Alpha virt. eigenvalues --    0.97599   0.98589   0.98868   1.00571   1.01576
 Alpha virt. eigenvalues --    1.02140   1.03005   1.04557   1.05121   1.06603
 Alpha virt. eigenvalues --    1.08060   1.10019   1.11270   1.11548   1.13842
 Alpha virt. eigenvalues --    1.15237   1.15737   1.16286   1.17443   1.18616
 Alpha virt. eigenvalues --    1.20542   1.22087   1.22300   1.23316   1.24935
 Alpha virt. eigenvalues --    1.25177   1.25579   1.26418   1.27396   1.28670
 Alpha virt. eigenvalues --    1.29149   1.30556   1.31483   1.32729   1.33365
 Alpha virt. eigenvalues --    1.34038   1.35199   1.36362   1.39774   1.41048
 Alpha virt. eigenvalues --    1.41567   1.41952   1.43777   1.44467   1.45422
 Alpha virt. eigenvalues --    1.45816   1.46272   1.46870   1.47340   1.49157
 Alpha virt. eigenvalues --    1.50444   1.50531   1.51924   1.54864   1.55631
 Alpha virt. eigenvalues --    1.56544   1.59481   1.59907   1.60681   1.63472
 Alpha virt. eigenvalues --    1.65316   1.67327   1.68348   1.71131   1.73115
 Alpha virt. eigenvalues --    1.73634   1.75483   1.76727   1.78644   1.81718
 Alpha virt. eigenvalues --    1.82808   1.84727   1.85713   1.87246   1.88284
 Alpha virt. eigenvalues --    1.91049   1.92480   1.93982   1.95604   1.97711
 Alpha virt. eigenvalues --    1.99417   2.01114   2.04397   2.06496   2.08269
 Alpha virt. eigenvalues --    2.09304   2.10936   2.13415   2.15903   2.17991
 Alpha virt. eigenvalues --    2.19304   2.22449   2.25292   2.25645   2.27176
 Alpha virt. eigenvalues --    2.28189   2.29481   2.30933   2.32824   2.34416
 Alpha virt. eigenvalues --    2.39061   2.39757   2.43664   2.44716   2.45507
 Alpha virt. eigenvalues --    2.47809   2.49366   2.50405   2.51299   2.56216
 Alpha virt. eigenvalues --    2.59379   2.59969   2.61234   2.63400   2.65631
 Alpha virt. eigenvalues --    2.69606   2.71771   2.72445   2.75648   2.77675
 Alpha virt. eigenvalues --    2.79839   2.81288   2.84338   2.85301   2.88285
 Alpha virt. eigenvalues --    2.90208   2.92581   2.94417   2.98522   2.98892
 Alpha virt. eigenvalues --    3.03016   3.08060   3.10882   3.12981   3.23543
 Alpha virt. eigenvalues --    3.28241   3.36483   3.38537   3.45055   3.55924
 Alpha virt. eigenvalues --    3.61406   3.66372   3.67313   3.67553   3.69364
 Alpha virt. eigenvalues --    3.71178   3.72538   3.75291   3.75713   3.78688
 Alpha virt. eigenvalues --    3.79977   3.82267   3.88642   3.92262   3.93179
 Alpha virt. eigenvalues --    3.96856   4.02308   4.03541   4.10160   4.17500
 Alpha virt. eigenvalues --    4.18183   4.21533   4.25521   4.48844   4.68423
          Condensed to atoms (all electrons):
 Mulliken charges:
               1
     1  Cl   0.158443
     2  N   -0.866058
     3  C    0.894172
     4  N   -0.337167
     5  H   -0.046639
     6  C    0.868760
     7  H   -0.232965
     8  H   -0.111143
     9  H   -0.042941
    10  C    1.085744
    11  Cl   0.087953
    12  N    1.124452
    13  O   -0.858772
    14  O   -0.844374
    15  N    0.682428
    16  O   -0.774632
    17  O   -0.787261
 Sum of Mulliken charges =  -0.00000
 Mulliken charges with hydrogens summed into heavy atoms:
               1
     1  Cl   0.158443
     2  N   -0.866058
     3  C    0.894172
     4  N   -0.383806
     6  C    0.481710
    10  C    1.085744
    11  Cl   0.087953
    12  N    1.124452
    13  O   -0.858772
    14  O   -0.844374
    15  N    0.682428
    16  O   -0.774632
    17  O   -0.787261
 Electronic spatial extent (au):  <R**2>=           2622.2512
 Charge=             -0.0000 electrons
 Dipole moment (field-independent basis, Debye):
    X=              1.3868    Y=              5.4119    Z=              2.3762  Tot=              6.0711
 Unable to Open any file for archive entry.
 1\1\GINC-SE459\Stability\RHF\Aug-CC-pVDZ\C3H4Cl2N4O4\OHZDE\09-Apr-2025
 \0\\#t hf aug-cc-pvdz symm=none int=(grid=ultrafine) guess=(read,tchec
 k) stable=(opt,rrhf)\\title\\0,1\Cl,0,3.262031,-0.557365,-0.130702\N,0
 ,1.536855,-0.839464,-0.064972\C,0,0.832656,0.229728,0.110268\N,0,1.258
 485,1.495331,0.323155\H,0,2.264347,1.576428,0.250015\C,0,0.510245,2.74
 2098,0.179032\H,0,1.060687,3.523031,0.703456\H,0,-0.470757,2.666442,0.
 645502\H,0,0.387704,3.027448,-0.868911\C,0,-0.656383,-0.08866,0.187938
 \Cl,0,-1.369145,0.335016,1.731709\N,0,-1.450606,0.589649,-0.984666\O,0
 ,-2.651308,0.640509,-0.867474\O,0,-0.77533,0.971662,-1.917505\N,0,-0.8
 81786,-1.646445,-0.081623\O,0,-1.008558,-1.943202,-1.245984\O,0,-0.912
 405,-2.357208,0.886731\\Version=ES64L-G16RevC.01\HF=-1551.9291617\RMSD
 =6.739e-09\Dipole=0.5456239,2.1292159,0.9348798\Quadrupole=-0.661647,2
 .4700107,-1.8083638,3.3742921,-2.5998092,1.8190308\PG=Unknown\\@
 The archive entry for this job was punched.


 GARLIC THEN HAVE POWER TO SAVE FROM DEATH
 BEAR WITH IT THOUGH IT MAKETH UNSAVORY BREATH,
 AND SCORN NOT GARLIC LIKE SOME THAT THINK
 IT ONLY MAKETH MEN WINK AND DRINK AND STINK.
   --  SIR JOHN HARRINGTON,
       "THE ENGLISHMAN'S DOCTOR", 1609
 Job cpu time:       0 days  0 hours 42 minutes 19.4 seconds.
 Elapsed time:       0 days  0 hours  2 minutes 52.7 seconds.
 File lengths (MBytes):  RWF=    680 Int=      0 D2E=      0 Chk=     17 Scr=      1
 Normal termination of Gaussian 16 at Wed Apr  9 00:53:46 2025.
 Initial command:
 /arc/software/Gaussian/g16.c01/l1.exe "/tmp/slurm/4855501/Gau-1184023.inp" -scrdir="/tmp/slurm/4855501/"
 Entering Link 1 = /arc/software/Gaussian/g16.c01/l1.exe PID=   1184932.
  
 Copyright (c) 1988-2019, Gaussian, Inc.  All Rights Reserved.
  
 This is part of the Gaussian(R) 16 program.  It is based on
 the Gaussian(R) 09 system (copyright 2009, Gaussian, Inc.),
 the Gaussian(R) 03 system (copyright 2003, Gaussian, Inc.),
 the Gaussian(R) 98 system (copyright 1998, Gaussian, Inc.),
 the Gaussian(R) 94 system (copyright 1995, Gaussian, Inc.),
 the Gaussian 92(TM) system (copyright 1992, Gaussian, Inc.),
 the Gaussian 90(TM) system (copyright 1990, Gaussian, Inc.),
 the Gaussian 88(TM) system (copyright 1988, Gaussian, Inc.),
 the Gaussian 86(TM) system (copyright 1986, Carnegie Mellon
 University), and the Gaussian 82(TM) system (copyright 1983,
 Carnegie Mellon University). Gaussian is a federally registered
 trademark of Gaussian, Inc.
  
 This software contains proprietary and confidential information,
 including trade secrets, belonging to Gaussian, Inc.
  
 This software is provided under written license and may be
 used, copied, transmitted, or stored only in accord with that
 written license.
  
 The following legend is applicable only to US Government
 contracts under FAR:
  
                    RESTRICTED RIGHTS LEGEND
  
 Use, reproduction and disclosure by the US Government is
 subject to restrictions as set forth in subparagraphs (a)
 and (c) of the Commercial Computer Software - Restricted
 Rights clause in FAR 52.227-19.
  
 Gaussian, Inc.
 340 Quinnipiac St., Bldg. 40, Wallingford CT 06492
  
  
 ---------------------------------------------------------------
 Warning -- This program may not be used in any manner that
 competes with the business of Gaussian, Inc. or will provide
 assistance to any competitor of Gaussian, Inc.  The licensee
 of this program is prohibited from giving any competitor of
 Gaussian, Inc. access to this program.  By using this program,
 the user acknowledges that Gaussian, Inc. is engaged in the
 business of creating and licensing software in the field of
 computational chemistry and represents and warrants to the
 licensee that it is not a competitor of Gaussian, Inc. and that
 it will not use this program in any manner prohibited above.
 ---------------------------------------------------------------
  

 Cite this work as:
 Gaussian 16, Revision C.01,
 M. J. Frisch, G. W. Trucks, H. B. Schlegel, G. E. Scuseria, 
 M. A. Robb, J. R. Cheeseman, G. Scalmani, V. Barone, 
 G. A. Petersson, H. Nakatsuji, X. Li, M. Caricato, A. V. Marenich, 
 J. Bloino, B. G. Janesko, R. Gomperts, B. Mennucci, H. P. Hratchian, 
 J. V. Ortiz, A. F. Izmaylov, J. L. Sonnenberg, D. Williams-Young, 
 F. Ding, F. Lipparini, F. Egidi, J. Goings, B. Peng, A. Petrone, 
 T. Henderson, D. Ranasinghe, V. G. Zakrzewski, J. Gao, N. Rega, 
 G. Zheng, W. Liang, M. Hada, M. Ehara, K. Toyota, R. Fukuda, 
 J. Hasegawa, M. Ishida, T. Nakajima, Y. Honda, O. Kitao, H. Nakai, 
 T. Vreven, K. Throssell, J. A. Montgomery, Jr., J. E. Peralta, 
 F. Ogliaro, M. J. Bearpark, J. J. Heyd, E. N. Brothers, K. N. Kudin, 
 V. N. Staroverov, T. A. Keith, R. Kobayashi, J. Normand, 
 K. Raghavachari, A. P. Rendell, J. C. Burant, S. S. Iyengar, 
 J. Tomasi, M. Cossi, J. M. Millam, M. Klene, C. Adamo, R. Cammi, 
 J. W. Ochterski, R. L. Martin, K. Morokuma, O. Farkas, 
 J. B. Foresman, and D. J. Fox, Gaussian, Inc., Wallingford CT, 2019.
 
 ******************************************
 Gaussian 16:  ES64L-G16RevC.01  3-Jul-2019
                 9-Apr-2025 
 ******************************************
 %nprocs=16
 Will use up to   16 processors via shared memory.
 %mem=30GB
 %chk=BDE49_nonexpt_938_mol1.chk
 ----------------------------------------------------------------------
 #t hf aug-cc-pvdz iop(5/13=1,5/36=2,99/5=2) pseudo=read geom=check gue
 ss=(read,tcheck) scf=(maxcycle=1)
 ----------------------------------------------------------------------
 -----
 title
 -----
 Structure from the checkpoint file:  "BDE49_nonexpt_938_mol1.chk"
 Charge =  0 Multiplicity = 1
 Z-Matrix found in chk file.
 Cl,0,3.262031,-0.557365,-0.130702
 N,0,1.536855,-0.839464,-0.064972
 C,0,0.832656,0.229728,0.110268
 N,0,1.258485,1.495331,0.323155
 H,0,2.264347,1.576428,0.250015
 C,0,0.510245,2.742098,0.179032
 H,0,1.060687,3.523031,0.703456
 H,0,-0.470757,2.666442,0.645502
 H,0,0.387704,3.027448,-0.868911
 C,0,-0.656383,-0.08866,0.187938
 Cl,0,-1.369145,0.335016,1.731709
 N,0,-1.450606,0.589649,-0.984666
 O,0,-2.651308,0.640509,-0.867474
 O,0,-0.77533,0.971662,-1.917505
 N,0,-0.881786,-1.646445,-0.081623
 O,0,-1.008558,-1.943202,-1.245984
 O,0,-0.912405,-2.357208,0.886731
 Recover connectivity data from disk.
                    Distance matrix (angstroms):
                    1          2          3          4          5
     1  Cl   0.000000
     2  N    1.749323   0.000000
     3  C    2.565043   1.292198   0.000000
     4  N    2.904091   2.383149   1.352184   0.000000
     5  H    2.386083   2.542636   1.970500   1.011773   0.000000
     6  C    4.307519   3.733772   2.533906   1.461185   2.107297
     7  H    4.710771   4.455175   3.354059   2.072515   2.333167
     8  H    4.992908   4.102031   2.814771   2.113217   2.970746
     9  H    4.653772   4.113377   2.997334   2.127596   2.622831
    10  C    3.959190   2.331944   1.524677   2.488781   3.362594
    11  Cl   5.070770   3.612797   2.736436   3.199187   4.115676
    12  N    4.924819   3.437023   2.557676   3.141629   4.037208
    13  O    6.078266   4.513872   3.641803   4.175500   5.127221
    14  O    4.672352   3.472500   2.692201   3.071024   3.782000
    15  N    4.284825   2.549769   2.548756   3.823004   4.516088
    16  O    4.626265   3.015320   3.154539   4.407402   5.033658
    17  O    4.658382   3.034495   3.215645   4.457851   5.096141
                    6          7          8          9         10
     6  C    0.000000
     7  H    1.089891   0.000000
     8  H    1.088891   1.755683   0.000000
     9  H    1.092989   1.780687   1.777843   0.000000
    10  C    3.061746   4.032171   2.799001   3.452126   0.000000
    11  Cl   3.425924   4.138215   2.724425   4.135086   1.752358
    12  N    3.135629   4.214389   2.816136   3.055429   1.570316
    13  O    3.937927   4.955367   3.338908   3.864334   2.371773
    14  O    3.030283   4.092662   3.087726   2.584270   2.360365
    15  N    4.611399   5.577906   4.393023   4.906802   1.596923
    16  O    5.127326   6.161314   5.011563   5.176784   2.370545
    17  O    5.341132   6.205150   5.048792   5.810945   2.387503
                   11         12         13         14         15
    11  Cl   0.000000
    12  N    2.729499   0.000000
    13  O    2.914279   1.207479   0.000000
    14  O    3.751626   1.213310   2.175206   0.000000
    15  N    2.729813   2.477733   2.996486   3.199419   0.000000
    16  O    3.766558   2.584381   3.085038   3.000295   1.208252
    17  O    2.858438   3.532103   3.884241   4.354757   1.201595
                   16         17
    16  O    0.000000
    17  O    2.174654   0.000000
 Framework group  C1[X(C3H4Cl2N4O4)]
 Deg. of freedom    45
                         Standard orientation:                         
 ---------------------------------------------------------------------
 Center     Atomic      Atomic             Coordinates (Angstroms)
 Number     Number       Type             X           Y           Z
 ---------------------------------------------------------------------
      1         17           0        3.262031   -0.557364   -0.130702
      2          7           0        1.536855   -0.839464   -0.064972
      3          6           0        0.832656    0.229728    0.110268
      4          7           0        1.258485    1.495331    0.323155
      5          1           0        2.264347    1.576429    0.250015
      6          6           0        0.510245    2.742098    0.179032
      7          1           0        1.060686    3.523031    0.703456
      8          1           0       -0.470757    2.666442    0.645502
      9          1           0        0.387703    3.027448   -0.868911
     10          6           0       -0.656383   -0.088660    0.187938
     11         17           0       -1.369145    0.335016    1.731709
     12          7           0       -1.450606    0.589649   -0.984666
     13          8           0       -2.651308    0.640508   -0.867474
     14          8           0       -0.775330    0.971662   -1.917505
     15          7           0       -0.881785   -1.646445   -0.081623
     16          8           0       -1.008557   -1.943202   -1.245984
     17          8           0       -0.912404   -2.357208    0.886731
 ---------------------------------------------------------------------
 Rotational constants (GHZ):           0.8113537           0.5376107           0.4595216
 ======================================================================================================
                                       Pseudopotential Parameters
 ======================================================================================================
  Center     Atomic      Valence      Angular      Power
  Number     Number     Electrons     Momentum     of R      Exponent        Coefficient   SO-Coeffient
 ======================================================================================================
    1         17           17
                                      G and up 
                                                     0        0.0000010        0.00010715    0.00000000
                                                     2        0.1200000       -0.00076261    0.00000000
                                                     2        0.1600000        0.04395058    0.00000000
                                                     2        0.2000000       -0.10504698    0.00000000
                                                     2        0.2800000        0.13950130    0.00000000
                                                     2        0.4000000       -0.12623641    0.00000000
                                                     2        0.7000000       -0.42143984    0.00000000
                                      S - G
                                                     0        0.0000010       -0.00139392    0.00000000
                                                     2        0.1200000       -0.01887585    0.00000000
                                                     2        0.4000000        0.46511854    0.00000000
                                      P - G
                                                     0        0.0000010        0.03235088    0.00000000
                                                     2        0.1200000        0.42220750    0.00000000
                                                     2        0.1600000       -1.02263661    0.00000000
                                                     2        0.2600000        0.81322107    0.00000000
                                      D - G
                                                     0        0.0000010       -0.08073759    0.00000000
                                                     2        0.1200000       -0.02872770    0.00000000
                                                     2        0.2000000        0.11554000    0.00000000
                                      F - G
                                                     0        0.0000010        0.04269408    0.00000000
                                                     2        0.1200000       -0.09796467    0.00000000
                                                     2        0.2000000        0.26850099    0.00000000
    2          7            7
                                      G and up 
                                                     0        0.0000010       -0.00039818    0.00000000
                                                     2        0.1200000       -0.37616123    0.00000000
                                                     2        0.1400000        2.13837358    0.00000000
                                                     2        0.1600000       -3.36562035    0.00000000
                                                     2        0.2000000        2.53463289    0.00000000
                                                     2        0.3000000       -1.98118833    0.00000000
                                                     2        0.5000000        4.06642919    0.00000000
                                                     2        0.7000000       -6.15327959    0.00000000
                                                     2        1.2000000       10.22492851    0.00000000
                                                     2        2.0000000      -14.94707511    0.00000000
                                      S - G
                                                     0        0.0000010        0.02721443    0.00000000
                                                     2        0.1200000       -0.60186009    0.00000000
                                                     2        0.1600000        1.10088134    0.00000000
                                                     2        0.2600000       -0.59857981    0.00000000
                                                     2        0.6000000        0.21288222    0.00000000
                                                     2        3.0000000        5.09059205    0.00000000
                                      P - G
                                                     0        0.0000010        0.40558062    0.00000000
                                                     2        0.1200000        0.81809854    0.00000000
                                                     2        0.1600000       -2.44952728    0.00000000
                                                     2        0.2800000        4.16638749    0.00000000
                                                     2        0.5000000       -6.02944147    0.00000000
                                                     2        1.1000000        5.78262914    0.00000000
                                      D - G
                                                     0        0.0000010       -0.62770267    0.00000000
                                                     2        0.1600000        0.91438653    0.00000000
                                                     2        0.2600000       -2.00568466    0.00000000
                                                     2        0.5000000        3.30798839    0.00000000
                                                     2        1.1000000       -3.91526108    0.00000000
                                      F - G
                                                     0        0.0000010        0.29726344    0.00000000
                                                     2        0.1200000       -0.41591527    0.00000000
                                                     2        0.1600000        0.51444439    0.00000000
                                                     2        0.4000000       -0.69401726    0.00000000
                                                     2        0.7000000        0.51478123    0.00000000
    3          6            6
                                      G and up 
                                                     0        0.0000010       -0.00007288    0.00000000
                                                     2        0.1200000        0.10466671    0.00000000
                                                     2        0.1400000       -0.65716157    0.00000000
                                                     2        0.1600000        1.18890794    0.00000000
                                                     2        0.2000000       -1.25772850    0.00000000
                                                     2        0.2600000        1.01188378    0.00000000
                                                     2        0.4000000       -1.09380874    0.00000000
                                                     2        0.5000000        0.96944888    0.00000000
                                                     2        1.0000000       -0.79256938    0.00000000
                                                     2        3.0000000        1.06443276    0.00000000
                                      S - G
                                                     0        0.0000010       -0.00635295    0.00000000
                                                     2        0.1200000        0.16918955    0.00000000
                                                     2        0.1600000       -0.38862576    0.00000000
                                                     2        0.2800000        0.25638263    0.00000000
                                                     2        0.5000000        0.29628419    0.00000000
                                                     2        0.9000000       -0.28791512    0.00000000
                                      P - G
                                                     0        0.0000010       -0.04756931    0.00000000
                                                     2        0.1200000        0.28430375    0.00000000
                                                     2        0.1600000       -0.69640032    0.00000000
                                                     2        0.2600000        1.13005668    0.00000000
                                                     2        0.4000000       -1.31433324    0.00000000
                                                     2        0.7000000        0.91526469    0.00000000
                                      D - G
                                                     0        0.0000010       -0.11496411    0.00000000
                                                     2        0.1200000        0.16620776    0.00000000
                                                     2        0.1800000       -0.30959819    0.00000000
                                                     2        0.3000000        0.16621458    0.00000000
                                                     2        0.6000000        0.27350556    0.00000000
                                      F - G
                                                     0        0.0000010        0.12037550    0.00000000
                                                     2        0.1200000       -0.48737077    0.00000000
                                                     2        0.1400000        0.58315350    0.00000000
                                                     2        0.3000000        0.00005188    0.00000000
                                                     2        0.5000000       -1.16063549    0.00000000
                                                     2        0.8000000        2.09053308    0.00000000
    4          7            7
                                      G and up 
                                                     0        0.0000010       -0.00039818    0.00000000
                                                     2        0.1200000       -0.37616123    0.00000000
                                                     2        0.1400000        2.13837358    0.00000000
                                                     2        0.1600000       -3.36562035    0.00000000
                                                     2        0.2000000        2.53463289    0.00000000
                                                     2        0.3000000       -1.98118833    0.00000000
                                                     2        0.5000000        4.06642919    0.00000000
                                                     2        0.7000000       -6.15327959    0.00000000
                                                     2        1.2000000       10.22492851    0.00000000
                                                     2        2.0000000      -14.94707511    0.00000000
                                      S - G
                                                     0        0.0000010        0.02721443    0.00000000
                                                     2        0.1200000       -0.60186009    0.00000000
                                                     2        0.1600000        1.10088134    0.00000000
                                                     2        0.2600000       -0.59857981    0.00000000
                                                     2        0.6000000        0.21288222    0.00000000
                                                     2        3.0000000        5.09059205    0.00000000
                                      P - G
                                                     0        0.0000010        0.40558062    0.00000000
                                                     2        0.1200000        0.81809854    0.00000000
                                                     2        0.1600000       -2.44952728    0.00000000
                                                     2        0.2800000        4.16638749    0.00000000
                                                     2        0.5000000       -6.02944147    0.00000000
                                                     2        1.1000000        5.78262914    0.00000000
                                      D - G
                                                     0        0.0000010       -0.62770267    0.00000000
                                                     2        0.1600000        0.91438653    0.00000000
                                                     2        0.2600000       -2.00568466    0.00000000
                                                     2        0.5000000        3.30798839    0.00000000
                                                     2        1.1000000       -3.91526108    0.00000000
                                      F - G
                                                     0        0.0000010        0.29726344    0.00000000
                                                     2        0.1200000       -0.41591527    0.00000000
                                                     2        0.1600000        0.51444439    0.00000000
                                                     2        0.4000000       -0.69401726    0.00000000
                                                     2        0.7000000        0.51478123    0.00000000
    5          1            1
                                      F and up 
                                                     0        0.0000010       -0.00007675    0.00000000
                                                     2        0.1200000        0.05352699    0.00000000
                                                     2        0.1400000       -0.25123645    0.00000000
                                                     2        0.1600000        0.32188106    0.00000000
                                                     2        0.2200000       -0.25206857    0.00000000
                                                     2        0.3000000        0.19290477    0.00000000
                                                     2        0.5000000       -0.10129770    0.00000000
                                                     2        0.9000000        0.00314995    0.00000000
                                                     2        1.5000000        0.18401192    0.00000000
                                      S - F
                                                     0        0.0000010        0.08065976    0.00000000
                                                     2        0.1200000       -0.09231673    0.00000000
                                                     2        0.1600000       -0.03278082    0.00000000
                                                     2        0.2800000        0.38423402    0.00000000
                                                     2        0.6000000       -1.09357590    0.00000000
                                                     2        1.1000000        1.53099489    0.00000000
                                                     2        3.0000000       -2.63300202    0.00000000
                                      P - F
                                                     0        0.0000010       -0.11638665    0.00000000
                                                     2        0.1200000        0.35468655    0.00000000
                                                     2        0.1600000       -0.59160923    0.00000000
                                                     2        0.3000000        0.49390547    0.00000000
                                                     2        0.6000000       -0.37949835    0.00000000
                                                     2        1.6000000        0.89304688    0.00000000
                                      D - F
                                                     0        0.0000010        0.05443663    0.00000000
                                                     2        0.1200000       -0.29679479    0.00000000
                                                     2        0.1400000        0.36849872    0.00000000
                                                     2        0.2400000        0.02793449    0.00000000
                                                     2        0.4000000       -0.46312857    0.00000000
                                                     2        0.7000000        0.97587598    0.00000000
                                                     2        1.5000000       -2.43431102    0.00000000
    6          6            6
                                      G and up 
                                                     0        0.0000010       -0.00007288    0.00000000
                                                     2        0.1200000        0.10466671    0.00000000
                                                     2        0.1400000       -0.65716157    0.00000000
                                                     2        0.1600000        1.18890794    0.00000000
                                                     2        0.2000000       -1.25772850    0.00000000
                                                     2        0.2600000        1.01188378    0.00000000
                                                     2        0.4000000       -1.09380874    0.00000000
                                                     2        0.5000000        0.96944888    0.00000000
                                                     2        1.0000000       -0.79256938    0.00000000
                                                     2        3.0000000        1.06443276    0.00000000
                                      S - G
                                                     0        0.0000010       -0.00635295    0.00000000
                                                     2        0.1200000        0.16918955    0.00000000
                                                     2        0.1600000       -0.38862576    0.00000000
                                                     2        0.2800000        0.25638263    0.00000000
                                                     2        0.5000000        0.29628419    0.00000000
                                                     2        0.9000000       -0.28791512    0.00000000
                                      P - G
                                                     0        0.0000010       -0.04756931    0.00000000
                                                     2        0.1200000        0.28430375    0.00000000
                                                     2        0.1600000       -0.69640032    0.00000000
                                                     2        0.2600000        1.13005668    0.00000000
                                                     2        0.4000000       -1.31433324    0.00000000
                                                     2        0.7000000        0.91526469    0.00000000
                                      D - G
                                                     0        0.0000010       -0.11496411    0.00000000
                                                     2        0.1200000        0.16620776    0.00000000
                                                     2        0.1800000       -0.30959819    0.00000000
                                                     2        0.3000000        0.16621458    0.00000000
                                                     2        0.6000000        0.27350556    0.00000000
                                      F - G
                                                     0        0.0000010        0.12037550    0.00000000
                                                     2        0.1200000       -0.48737077    0.00000000
                                                     2        0.1400000        0.58315350    0.00000000
                                                     2        0.3000000        0.00005188    0.00000000
                                                     2        0.5000000       -1.16063549    0.00000000
                                                     2        0.8000000        2.09053308    0.00000000
    7          1            1
                                      F and up 
                                                     0        0.0000010       -0.00007675    0.00000000
                                                     2        0.1200000        0.05352699    0.00000000
                                                     2        0.1400000       -0.25123645    0.00000000
                                                     2        0.1600000        0.32188106    0.00000000
                                                     2        0.2200000       -0.25206857    0.00000000
                                                     2        0.3000000        0.19290477    0.00000000
                                                     2        0.5000000       -0.10129770    0.00000000
                                                     2        0.9000000        0.00314995    0.00000000
                                                     2        1.5000000        0.18401192    0.00000000
                                      S - F
                                                     0        0.0000010        0.08065976    0.00000000
                                                     2        0.1200000       -0.09231673    0.00000000
                                                     2        0.1600000       -0.03278082    0.00000000
                                                     2        0.2800000        0.38423402    0.00000000
                                                     2        0.6000000       -1.09357590    0.00000000
                                                     2        1.1000000        1.53099489    0.00000000
                                                     2        3.0000000       -2.63300202    0.00000000
                                      P - F
                                                     0        0.0000010       -0.11638665    0.00000000
                                                     2        0.1200000        0.35468655    0.00000000
                                                     2        0.1600000       -0.59160923    0.00000000
                                                     2        0.3000000        0.49390547    0.00000000
                                                     2        0.6000000       -0.37949835    0.00000000
                                                     2        1.6000000        0.89304688    0.00000000
                                      D - F
                                                     0        0.0000010        0.05443663    0.00000000
                                                     2        0.1200000       -0.29679479    0.00000000
                                                     2        0.1400000        0.36849872    0.00000000
                                                     2        0.2400000        0.02793449    0.00000000
                                                     2        0.4000000       -0.46312857    0.00000000
                                                     2        0.7000000        0.97587598    0.00000000
                                                     2        1.5000000       -2.43431102    0.00000000
    8          1            1
                                      F and up 
                                                     0        0.0000010       -0.00007675    0.00000000
                                                     2        0.1200000        0.05352699    0.00000000
                                                     2        0.1400000       -0.25123645    0.00000000
                                                     2        0.1600000        0.32188106    0.00000000
                                                     2        0.2200000       -0.25206857    0.00000000
                                                     2        0.3000000        0.19290477    0.00000000
                                                     2        0.5000000       -0.10129770    0.00000000
                                                     2        0.9000000        0.00314995    0.00000000
                                                     2        1.5000000        0.18401192    0.00000000
                                      S - F
                                                     0        0.0000010        0.08065976    0.00000000
                                                     2        0.1200000       -0.09231673    0.00000000
                                                     2        0.1600000       -0.03278082    0.00000000
                                                     2        0.2800000        0.38423402    0.00000000
                                                     2        0.6000000       -1.09357590    0.00000000
                                                     2        1.1000000        1.53099489    0.00000000
                                                     2        3.0000000       -2.63300202    0.00000000
                                      P - F
                                                     0        0.0000010       -0.11638665    0.00000000
                                                     2        0.1200000        0.35468655    0.00000000
                                                     2        0.1600000       -0.59160923    0.00000000
                                                     2        0.3000000        0.49390547    0.00000000
                                                     2        0.6000000       -0.37949835    0.00000000
                                                     2        1.6000000        0.89304688    0.00000000
                                      D - F
                                                     0        0.0000010        0.05443663    0.00000000
                                                     2        0.1200000       -0.29679479    0.00000000
                                                     2        0.1400000        0.36849872    0.00000000
                                                     2        0.2400000        0.02793449    0.00000000
                                                     2        0.4000000       -0.46312857    0.00000000
                                                     2        0.7000000        0.97587598    0.00000000
                                                     2        1.5000000       -2.43431102    0.00000000
    9          1            1
                                      F and up 
                                                     0        0.0000010       -0.00007675    0.00000000
                                                     2        0.1200000        0.05352699    0.00000000
                                                     2        0.1400000       -0.25123645    0.00000000
                                                     2        0.1600000        0.32188106    0.00000000
                                                     2        0.2200000       -0.25206857    0.00000000
                                                     2        0.3000000        0.19290477    0.00000000
                                                     2        0.5000000       -0.10129770    0.00000000
                                                     2        0.9000000        0.00314995    0.00000000
                                                     2        1.5000000        0.18401192    0.00000000
                                      S - F
                                                     0        0.0000010        0.08065976    0.00000000
                                                     2        0.1200000       -0.09231673    0.00000000
                                                     2        0.1600000       -0.03278082    0.00000000
                                                     2        0.2800000        0.38423402    0.00000000
                                                     2        0.6000000       -1.09357590    0.00000000
                                                     2        1.1000000        1.53099489    0.00000000
                                                     2        3.0000000       -2.63300202    0.00000000
                                      P - F
                                                     0        0.0000010       -0.11638665    0.00000000
                                                     2        0.1200000        0.35468655    0.00000000
                                                     2        0.1600000       -0.59160923    0.00000000
                                                     2        0.3000000        0.49390547    0.00000000
                                                     2        0.6000000       -0.37949835    0.00000000
                                                     2        1.6000000        0.89304688    0.00000000
                                      D - F
                                                     0        0.0000010        0.05443663    0.00000000
                                                     2        0.1200000       -0.29679479    0.00000000
                                                     2        0.1400000        0.36849872    0.00000000
                                                     2        0.2400000        0.02793449    0.00000000
                                                     2        0.4000000       -0.46312857    0.00000000
                                                     2        0.7000000        0.97587598    0.00000000
                                                     2        1.5000000       -2.43431102    0.00000000
   10          6            6
                                      G and up 
                                                     0        0.0000010       -0.00007288    0.00000000
                                                     2        0.1200000        0.10466671    0.00000000
                                                     2        0.1400000       -0.65716157    0.00000000
                                                     2        0.1600000        1.18890794    0.00000000
                                                     2        0.2000000       -1.25772850    0.00000000
                                                     2        0.2600000        1.01188378    0.00000000
                                                     2        0.4000000       -1.09380874    0.00000000
                                                     2        0.5000000        0.96944888    0.00000000
                                                     2        1.0000000       -0.79256938    0.00000000
                                                     2        3.0000000        1.06443276    0.00000000
                                      S - G
                                                     0        0.0000010       -0.00635295    0.00000000
                                                     2        0.1200000        0.16918955    0.00000000
                                                     2        0.1600000       -0.38862576    0.00000000
                                                     2        0.2800000        0.25638263    0.00000000
                                                     2        0.5000000        0.29628419    0.00000000
                                                     2        0.9000000       -0.28791512    0.00000000
                                      P - G
                                                     0        0.0000010       -0.04756931    0.00000000
                                                     2        0.1200000        0.28430375    0.00000000
                                                     2        0.1600000       -0.69640032    0.00000000
                                                     2        0.2600000        1.13005668    0.00000000
                                                     2        0.4000000       -1.31433324    0.00000000
                                                     2        0.7000000        0.91526469    0.00000000
                                      D - G
                                                     0        0.0000010       -0.11496411    0.00000000
                                                     2        0.1200000        0.16620776    0.00000000
                                                     2        0.1800000       -0.30959819    0.00000000
                                                     2        0.3000000        0.16621458    0.00000000
                                                     2        0.6000000        0.27350556    0.00000000
                                      F - G
                                                     0        0.0000010        0.12037550    0.00000000
                                                     2        0.1200000       -0.48737077    0.00000000
                                                     2        0.1400000        0.58315350    0.00000000
                                                     2        0.3000000        0.00005188    0.00000000
                                                     2        0.5000000       -1.16063549    0.00000000
                                                     2        0.8000000        2.09053308    0.00000000
   11         17           17
                                      G and up 
                                                     0        0.0000010        0.00010715    0.00000000
                                                     2        0.1200000       -0.00076261    0.00000000
                                                     2        0.1600000        0.04395058    0.00000000
                                                     2        0.2000000       -0.10504698    0.00000000
                                                     2        0.2800000        0.13950130    0.00000000
                                                     2        0.4000000       -0.12623641    0.00000000
                                                     2        0.7000000       -0.42143984    0.00000000
                                      S - G
                                                     0        0.0000010       -0.00139392    0.00000000
                                                     2        0.1200000       -0.01887585    0.00000000
                                                     2        0.4000000        0.46511854    0.00000000
                                      P - G
                                                     0        0.0000010        0.03235088    0.00000000
                                                     2        0.1200000        0.42220750    0.00000000
                                                     2        0.1600000       -1.02263661    0.00000000
                                                     2        0.2600000        0.81322107    0.00000000
                                      D - G
                                                     0        0.0000010       -0.08073759    0.00000000
                                                     2        0.1200000       -0.02872770    0.00000000
                                                     2        0.2000000        0.11554000    0.00000000
                                      F - G
                                                     0        0.0000010        0.04269408    0.00000000
                                                     2        0.1200000       -0.09796467    0.00000000
                                                     2        0.2000000        0.26850099    0.00000000
   12          7            7
                                      G and up 
                                                     0        0.0000010       -0.00039818    0.00000000
                                                     2        0.1200000       -0.37616123    0.00000000
                                                     2        0.1400000        2.13837358    0.00000000
                                                     2        0.1600000       -3.36562035    0.00000000
                                                     2        0.2000000        2.53463289    0.00000000
                                                     2        0.3000000       -1.98118833    0.00000000
                                                     2        0.5000000        4.06642919    0.00000000
                                                     2        0.7000000       -6.15327959    0.00000000
                                                     2        1.2000000       10.22492851    0.00000000
                                                     2        2.0000000      -14.94707511    0.00000000
                                      S - G
                                                     0        0.0000010        0.02721443    0.00000000
                                                     2        0.1200000       -0.60186009    0.00000000
                                                     2        0.1600000        1.10088134    0.00000000
                                                     2        0.2600000       -0.59857981    0.00000000
                                                     2        0.6000000        0.21288222    0.00000000
                                                     2        3.0000000        5.09059205    0.00000000
                                      P - G
                                                     0        0.0000010        0.40558062    0.00000000
                                                     2        0.1200000        0.81809854    0.00000000
                                                     2        0.1600000       -2.44952728    0.00000000
                                                     2        0.2800000        4.16638749    0.00000000
                                                     2        0.5000000       -6.02944147    0.00000000
                                                     2        1.1000000        5.78262914    0.00000000
                                      D - G
                                                     0        0.0000010       -0.62770267    0.00000000
                                                     2        0.1600000        0.91438653    0.00000000
                                                     2        0.2600000       -2.00568466    0.00000000
                                                     2        0.5000000        3.30798839    0.00000000
                                                     2        1.1000000       -3.91526108    0.00000000
                                      F - G
                                                     0        0.0000010        0.29726344    0.00000000
                                                     2        0.1200000       -0.41591527    0.00000000
                                                     2        0.1600000        0.51444439    0.00000000
                                                     2        0.4000000       -0.69401726    0.00000000
                                                     2        0.7000000        0.51478123    0.00000000
   13          8            8
                                      G and up 
                                                     0        0.0000010        0.00049668    0.00000000
                                                     2        0.1200000       -0.01803391    0.00000000
                                                     2        0.1400000        0.04014195    0.00000000
                                                     2        0.2000000       -0.02692147    0.00000000
                                                     2        0.2800000       -0.04241843    0.00000000
                                                     2        0.4000000        0.15412145    0.00000000
                                                     2        0.7000000       -0.40587006    0.00000000
                                                     2        1.1000000        1.75666647    0.00000000
                                      S - G
                                                     0        0.0000010       -0.01088195    0.00000000
                                                     2        0.1200000        0.09867335    0.00000000
                                                     2        0.2400000       -0.08484177    0.00000000
                                                     2        0.6000000       -1.39011554    0.00000000
                                                     2        2.5000000        1.36225910    0.00000000
                                      P - G
                                                     0        0.0000010        0.05874028    0.00000000
                                                     2        0.1200000       -0.11700340    0.00000000
                                                     2        0.1600000        0.08847775    0.00000000
                                                     2        0.3000000        0.04709907    0.00000000
                                                     2        1.2000000       -1.80388338    0.00000000
                                      D - G
                                                     0        0.0000010       -0.00541262    0.00000000
                                                     2        0.1200000       -0.26547906    0.00000000
                                                     2        0.1600000        1.04289661    0.00000000
                                                     2        0.2400000       -1.92800913    0.00000000
                                                     2        0.4000000        2.26691633    0.00000000
                                                     2        0.7000000       -1.97391482    0.00000000
                                      F - G
                                                     0        0.0000010       -0.02604870    0.00000000
                                                     2        0.1200000        0.37362552    0.00000000
                                                     2        0.1600000       -1.43526367    0.00000000
                                                     2        0.2200000        1.76778079    0.00000000
                                                     2        0.5000000       -1.90846303    0.00000000
   14          8            8
                                      G and up 
                                                     0        0.0000010        0.00049668    0.00000000
                                                     2        0.1200000       -0.01803391    0.00000000
                                                     2        0.1400000        0.04014195    0.00000000
                                                     2        0.2000000       -0.02692147    0.00000000
                                                     2        0.2800000       -0.04241843    0.00000000
                                                     2        0.4000000        0.15412145    0.00000000
                                                     2        0.7000000       -0.40587006    0.00000000
                                                     2        1.1000000        1.75666647    0.00000000
                                      S - G
                                                     0        0.0000010       -0.01088195    0.00000000
                                                     2        0.1200000        0.09867335    0.00000000
                                                     2        0.2400000       -0.08484177    0.00000000
                                                     2        0.6000000       -1.39011554    0.00000000
                                                     2        2.5000000        1.36225910    0.00000000
                                      P - G
                                                     0        0.0000010        0.05874028    0.00000000
                                                     2        0.1200000       -0.11700340    0.00000000
                                                     2        0.1600000        0.08847775    0.00000000
                                                     2        0.3000000        0.04709907    0.00000000
                                                     2        1.2000000       -1.80388338    0.00000000
                                      D - G
                                                     0        0.0000010       -0.00541262    0.00000000
                                                     2        0.1200000       -0.26547906    0.00000000
                                                     2        0.1600000        1.04289661    0.00000000
[...]
                                                     2        2.0000000      -14.94707511    0.00000000
                                      S - G
                                                     0        0.0000010        0.02721443    0.00000000
                                                     2        0.1200000       -0.60186009    0.00000000
                                                     2        0.1600000        1.10088134    0.00000000
                                                     2        0.2600000       -0.59857981    0.00000000
                                                     2        0.6000000        0.21288222    0.00000000
                                                     2        3.0000000        5.09059205    0.00000000
                                      P - G
                                                     0        0.0000010        0.40558062    0.00000000
                                                     2        0.1200000        0.81809854    0.00000000
                                                     2        0.1600000       -2.44952728    0.00000000
                                                     2        0.2800000        4.16638749    0.00000000
                                                     2        0.5000000       -6.02944147    0.00000000
                                                     2        1.1000000        5.78262914    0.00000000
                                      D - G
                                                     0        0.0000010       -0.62770267    0.00000000
                                                     2        0.1600000        0.91438653    0.00000000
                                                     2        0.2600000       -2.00568466    0.00000000
                                                     2        0.5000000        3.30798839    0.00000000
                                                     2        1.1000000       -3.91526108    0.00000000
                                      F - G
                                                     0        0.0000010        0.29726344    0.00000000
                                                     2        0.1200000       -0.41591527    0.00000000
                                                     2        0.1600000        0.51444439    0.00000000
                                                     2        0.4000000       -0.69401726    0.00000000
                                                     2        0.7000000        0.51478123    0.00000000
   16          8            8
                                      G and up 
                                                     0        0.0000010        0.00049668    0.00000000
                                                     2        0.1200000       -0.01803391    0.00000000
                                                     2        0.1400000        0.04014195    0.00000000
                                                     2        0.2000000       -0.02692147    0.00000000
                                                     2        0.2800000       -0.04241843    0.00000000
                                                     2        0.4000000        0.15412145    0.00000000
                                                     2        0.7000000       -0.40587006    0.00000000
                                                     2        1.1000000        1.75666647    0.00000000
                                      S - G
                                                     0        0.0000010       -0.01088195    0.00000000
                                                     2        0.1200000        0.09867335    0.00000000
                                                     2        0.2400000       -0.08484177    0.00000000
                                                     2        0.6000000       -1.39011554    0.00000000
                                                     2        2.5000000        1.36225910    0.00000000
                                      P - G
                                                     0        0.0000010        0.05874028    0.00000000
                                                     2        0.1200000       -0.11700340    0.00000000
                                                     2        0.1600000        0.08847775    0.00000000
                                                     2        0.3000000        0.04709907    0.00000000
                                                     2        1.2000000       -1.80388338    0.00000000
                                      D - G
                                                     0        0.0000010       -0.00541262    0.00000000
                                                     2        0.1200000       -0.26547906    0.00000000
                                                     2        0.1600000        1.04289661    0.00000000
                                                     2        0.2400000       -1.92800913    0.00000000
                                                     2        0.4000000        2.26691633    0.00000000
                                                     2        0.7000000       -1.97391482    0.00000000
                                      F - G
                                                     0        0.0000010       -0.02604870    0.00000000
                                                     2        0.1200000        0.37362552    0.00000000
                                                     2        0.1600000       -1.43526367    0.00000000
                                                     2        0.2200000        1.76778079    0.00000000
                                                     2        0.5000000       -1.90846303    0.00000000
   17          8            8
                                      G and up 
                                                     0        0.0000010        0.00049668    0.00000000
                                                     2        0.1200000       -0.01803391    0.00000000
                                                     2        0.1400000        0.04014195    0.00000000
                                                     2        0.2000000       -0.02692147    0.00000000
                                                     2        0.2800000       -0.04241843    0.00000000
                                                     2        0.4000000        0.15412145    0.00000000
                                                     2        0.7000000       -0.40587006    0.00000000
                                                     2        1.1000000        1.75666647    0.00000000
                                      S - G
                                                     0        0.0000010       -0.01088195    0.00000000
                                                     2        0.1200000        0.09867335    0.00000000
                                                     2        0.2400000       -0.08484177    0.00000000
                                                     2        0.6000000       -1.39011554    0.00000000
                                                     2        2.5000000        1.36225910    0.00000000
                                      P - G
                                                     0        0.0000010        0.05874028    0.00000000
                                                     2        0.1200000       -0.11700340    0.00000000
                                                     2        0.1600000        0.08847775    0.00000000
                                                     2        0.3000000        0.04709907    0.00000000
                                                     2        1.2000000       -1.80388338    0.00000000
                                      D - G
                                                     0        0.0000010       -0.00541262    0.00000000
                                                     2        0.1200000       -0.26547906    0.00000000
                                                     2        0.1600000        1.04289661    0.00000000
                                                     2        0.2400000       -1.92800913    0.00000000
                                                     2        0.4000000        2.26691633    0.00000000
                                                     2        0.7000000       -1.97391482    0.00000000
                                      F - G
                                                     0        0.0000010       -0.02604870    0.00000000
                                                     2        0.1200000        0.37362552    0.00000000
                                                     2        0.1600000       -1.43526367    0.00000000
                                                     2        0.2200000        1.76778079    0.00000000
                                                     2        0.5000000       -1.90846303    0.00000000
 ======================================================================================================
   343 basis functions,   679 primitive gaussians,   369 cartesian basis functions
    58 alpha electrons       58 beta electrons
       nuclear repulsion energy      1116.5081984733 Hartrees.
 NAtoms=   17 NActive=   17 NUniq=   17 SFac= 1.00D+00 NAtFMM=   60 NAOKFM=F Big=F
   1 Symmetry operations used in ECPInt.
 ECPInt:  NShTT=   10011 NPrTT=   68279 LenC2=    9878 LenP2D=   42284.
 LDataN:  DoStor=T MaxTD1= 6 Len=  172
 Initial guess from the checkpoint file:  "BDE49_nonexpt_938_mol1.chk"
 B after Tr=     0.000000    0.000000   -0.000000
         Rot=    1.000000   -0.000000   -0.000000   -0.000000 Ang=  -0.00 deg.
 >>>>>>>>>> Convergence criterion not met.
 SCF Done:  E(RHF) =  -1552.68513539     A.U. after    2 cycles
            NFock=  1  Conv=0.45D-01     -V/T= 2.0034

 **********************************************************************

            Population analysis using the SCF Density.

 **********************************************************************

 Orbital symmetries:
       Occupied  (A) (A) (A) (A) (A) (A) (A) (A) (A) (A) (A) (A)
                 (A) (A) (A) (A) (A) (A) (A) (A) (A) (A) (A) (A)
                 (A) (A) (A) (A) (A) (A) (A) (A) (A) (A) (A) (A)
                 (A) (A) (A) (A) (A) (A) (A) (A) (A) (A) (A) (A)
                 (A) (A) (A) (A) (A) (A) (A) (A) (A) (A)
       Virtual   (A) (A) (A) (A) (A) (A) (A) (A) (A) (A) (A) (A)
                 (A) (A) (A) (A) (A) (A) (A) (A) (A) (A) (A) (A)
                 (A) (A) (A) (A) (A) (A) (A) (A) (A) (A) (A) (A)
                 (A) (A) (A) (A) (A) (A) (A) (A) (A) (A) (A) (A)
                 (A) (A) (A) (A) (A) (A) (A) (A) (A) (A) (A) (A)
                 (A) (A) (A) (A) (A) (A) (A) (A) (A) (A) (A) (A)
                 (A) (A) (A) (A) (A) (A) (A) (A) (A) (A) (A) (A)
                 (A) (A) (A) (A) (A) (A) (A) (A) (A) (A) (A) (A)
                 (A) (A) (A) (A) (A) (A) (A) (A) (A) (A) (A) (A)
                 (A) (A) (A) (A) (A) (A) (A) (A) (A) (A) (A) (A)
                 (A) (A) (A) (A) (A) (A) (A) (A) (A) (A) (A) (A)
                 (A) (A) (A) (A) (A) (A) (A) (A) (A) (A) (A) (A)
                 (A) (A) (A) (A) (A) (A) (A) (A) (A) (A) (A) (A)
                 (A) (A) (A) (A) (A) (A) (A) (A) (A) (A) (A) (A)
                 (A) (A) (A) (A) (A) (A) (A) (A) (A) (A) (A) (A)
                 (A) (A) (A) (A) (A) (A) (A) (A) (A) (A) (A) (A)
                 (A) (A) (A) (A) (A) (A) (A) (A) (A) (A) (A) (A)
                 (A) (A) (A) (A) (A) (A) (A) (A) (A) (A) (A) (A)
                 (A) (A) (A) (A) (A) (A) (A) (A) (A) (A) (A) (A)
                 (A) (A) (A) (A) (A) (A) (A) (A) (A) (A) (A) (A)
                 (A) (A) (A) (A) (A) (A) (A) (A) (A) (A) (A) (A)
                 (A) (A) (A) (A) (A) (A) (A) (A) (A) (A) (A) (A)
                 (A) (A) (A) (A) (A) (A) (A) (A) (A) (A) (A) (A)
                 (A) (A) (A) (A) (A) (A) (A) (A) (A)
 The electronic state is 1-A.
 Alpha  occ. eigenvalues -- -105.64356-105.60978 -20.64238 -20.64157 -20.63256
 Alpha  occ. eigenvalues --  -20.62921 -15.84524 -15.83899 -15.58551 -15.57606
 Alpha  occ. eigenvalues --  -11.49057 -11.40710 -11.31367 -10.69138 -10.65503
 Alpha  occ. eigenvalues --   -7.86111  -7.85648  -7.85632  -7.82450  -7.82008
 Alpha  occ. eigenvalues --   -7.81976  -1.72954  -1.71800  -1.56879  -1.56323
 Alpha  occ. eigenvalues --   -1.35286  -1.25008  -1.23835  -1.09934  -1.06776
 Alpha  occ. eigenvalues --   -1.02923  -1.00279  -0.93149  -0.87521  -0.85738
 Alpha  occ. eigenvalues --   -0.81360  -0.79916  -0.78669  -0.77661  -0.76663
 Alpha  occ. eigenvalues --   -0.75055  -0.71307  -0.68264  -0.65738  -0.61524
 Alpha  occ. eigenvalues --   -0.61094  -0.57505  -0.56952  -0.55314  -0.53721
 Alpha  occ. eigenvalues --   -0.52357  -0.52081  -0.50529  -0.50438  -0.49366
 Alpha  occ. eigenvalues --   -0.48122  -0.47193  -0.42782
 Alpha virt. eigenvalues --    0.01098   0.02466   0.03101   0.03961   0.04746
 Alpha virt. eigenvalues --    0.05222   0.06684   0.07226   0.08230   0.09586
 Alpha virt. eigenvalues --    0.10297   0.10866   0.11530   0.12757   0.13317
 Alpha virt. eigenvalues --    0.13647   0.14204   0.14652   0.15016   0.15521
 Alpha virt. eigenvalues --    0.15632   0.16179   0.16802   0.17382   0.17975
 Alpha virt. eigenvalues --    0.19081   0.19305   0.19751   0.20372   0.20861
 Alpha virt. eigenvalues --    0.21597   0.22427   0.22804   0.24229   0.24641
 Alpha virt. eigenvalues --    0.25524   0.26498   0.27456   0.27737   0.28289
 Alpha virt. eigenvalues --    0.29216   0.29316   0.29626   0.30116   0.31323
 Alpha virt. eigenvalues --    0.31871   0.32958   0.33221   0.33292   0.34309
 Alpha virt. eigenvalues --    0.35169   0.35726   0.36261   0.36509   0.37008
 Alpha virt. eigenvalues --    0.37549   0.38059   0.38622   0.39168   0.40077
 Alpha virt. eigenvalues --    0.40994   0.41741   0.42182   0.42682   0.43300
 Alpha virt. eigenvalues --    0.44723   0.44837   0.46060   0.46755   0.47640
 Alpha virt. eigenvalues --    0.47898   0.48486   0.48968   0.50101   0.50840
 Alpha virt. eigenvalues --    0.51478   0.51692   0.52118   0.53206   0.53605
 Alpha virt. eigenvalues --    0.54057   0.54457   0.55283   0.57550   0.57754
 Alpha virt. eigenvalues --    0.59081   0.59999   0.61262   0.62278   0.62620
 Alpha virt. eigenvalues --    0.64345   0.65558   0.66007   0.66356   0.67677
 Alpha virt. eigenvalues --    0.68592   0.69038   0.70339   0.71027   0.72527
 Alpha virt. eigenvalues --    0.73914   0.74937   0.75743   0.76446   0.77661
 Alpha virt. eigenvalues --    0.78744   0.79866   0.83180   0.83585   0.84449
 Alpha virt. eigenvalues --    0.85348   0.87055   0.87139   0.88462   0.89739
 Alpha virt. eigenvalues --    0.90554   0.92586   0.93576   0.93820   0.94923
 Alpha virt. eigenvalues --    0.96628   0.97793   0.98247   0.99830   1.00901
 Alpha virt. eigenvalues --    1.01631   1.02615   1.03910   1.04461   1.05918
 Alpha virt. eigenvalues --    1.07585   1.08744   1.10126   1.10796   1.12842
 Alpha virt. eigenvalues --    1.13928   1.14058   1.14705   1.16224   1.17612
 Alpha virt. eigenvalues --    1.19293   1.20579   1.21358   1.22351   1.23525
 Alpha virt. eigenvalues --    1.23823   1.24635   1.25315   1.26633   1.27410
 Alpha virt. eigenvalues --    1.28268   1.29098   1.29866   1.31435   1.32661
 Alpha virt. eigenvalues --    1.33656   1.34107   1.34870   1.35597   1.37149
 Alpha virt. eigenvalues --    1.37490   1.39007   1.39758   1.40336   1.40736
 Alpha virt. eigenvalues --    1.42469   1.43055   1.43896   1.45237   1.46341
 Alpha virt. eigenvalues --    1.47244   1.47653   1.49397   1.51333   1.52066
 Alpha virt. eigenvalues --    1.54261   1.55910   1.56821   1.58247   1.60792
 Alpha virt. eigenvalues --    1.62562   1.63093   1.64723   1.67005   1.68168
 Alpha virt. eigenvalues --    1.70943   1.72401   1.73255   1.75839   1.77771
 Alpha virt. eigenvalues --    1.78968   1.81113   1.83042   1.83618   1.84200
 Alpha virt. eigenvalues --    1.87319   1.88544   1.89890   1.91847   1.94415
 Alpha virt. eigenvalues --    1.94765   1.96856   1.97728   1.99300   2.00199
 Alpha virt. eigenvalues --    2.03613   2.04913   2.05987   2.06795   2.08617
 Alpha virt. eigenvalues --    2.10140   2.12331   2.12983   2.13563   2.16407
 Alpha virt. eigenvalues --    2.17420   2.17972   2.19361   2.20866   2.22823
 Alpha virt. eigenvalues --    2.23941   2.26022   2.27508   2.29352   2.29580
 Alpha virt. eigenvalues --    2.30693   2.33355   2.33798   2.35579   2.36552
 Alpha virt. eigenvalues --    2.38665   2.40246   2.41970   2.44252   2.44887
 Alpha virt. eigenvalues --    2.47785   2.50816   2.52020   2.53982   2.55901
 Alpha virt. eigenvalues --    2.58199   2.59606   2.60535   2.64299   2.66359
 Alpha virt. eigenvalues --    2.68132   2.72132   2.72345   2.76327   2.82010
 Alpha virt. eigenvalues --    2.88389   2.96019   3.01147   3.02359   3.11668
 Alpha virt. eigenvalues --    3.19837   3.22101   3.26314   3.34040   3.38321
 Alpha virt. eigenvalues --    3.61448   3.68772   3.77182   3.77519   3.78741
 Alpha virt. eigenvalues --    3.80378   3.81378   3.84382   3.85877   3.88303
 Alpha virt. eigenvalues --    3.89095   3.90879   3.94504   3.97609   4.00730
 Alpha virt. eigenvalues --    4.02345   4.04363   4.06406   4.08548   4.16643
 Alpha virt. eigenvalues --    4.17974   4.21226   4.24200   4.52317   4.69953
          Condensed to atoms (all electrons):
 Mulliken charges:
               1
     1  Cl   0.034604
     2  N    0.900521
     3  C   -2.097977
     4  N    1.089893
     5  H    0.244162
     6  C   -0.358853
     7  H   -0.001771
     8  H    0.158000
     9  H    0.205211
    10  C   -1.033996
    11  Cl   0.257909
    12  N    3.585942
    13  O   -1.534443
    14  O   -1.548981
    15  N    2.994292
    16  O   -1.477594
    17  O   -1.416920
 Sum of Mulliken charges =   0.00000
 Mulliken charges with hydrogens summed into heavy atoms:
               1
     1  Cl   0.034604
     2  N    0.900521
     3  C   -2.097977
     4  N    1.334055
     6  C    0.002587
    10  C   -1.033996
    11  Cl   0.257909
    12  N    3.585942
    13  O   -1.534443
    14  O   -1.548981
    15  N    2.994292
    16  O   -1.477594
    17  O   -1.416920
 Electronic spatial extent (au):  <R**2>=           2615.5870
 Charge=              0.0000 electrons
 Dipole moment (field-independent basis, Debye):
    X=              1.2325    Y=              5.4790    Z=              2.2088  Tot=              6.0346

 Test job not archived.
 1\1\GINC-SE459\SP\RHF\Aug-CC-pVDZ\C3H4Cl2N4O4\OHZDE\09-Apr-2025\0\\#t 
 hf aug-cc-pvdz iop(5/13=1,5/36=2,99/5=2) pseudo=read geom=check guess=
 (read,tcheck) scf=(maxcycle=1)\\title\\0,1\Cl,0,3.262031,-0.557365,-0.
 130702\N,0,1.536855,-0.839464,-0.064972\C,0,0.832656,0.229728,0.110268
 \N,0,1.258485,1.495331,0.323155\H,0,2.264347,1.576428,0.250015\C,0,0.5
 10245,2.742098,0.179032\H,0,1.060687,3.523031,0.703456\H,0,-0.470757,2
 .666442,0.645502\H,0,0.387704,3.027448,-0.868911\C,0,-0.656383,-0.0886
 6,0.187938\Cl,0,-1.369145,0.335016,1.731709\N,0,-1.450606,0.589649,-0.
 984666\O,0,-2.651308,0.640509,-0.867474\O,0,-0.77533,0.971662,-1.91750
 5\N,0,-0.881786,-1.646445,-0.081623\O,0,-1.008558,-1.943202,-1.245984\
 O,0,-0.912405,-2.357208,0.886731\\Version=ES64L-G16RevC.01\State=1-A\H
 F=-1552.6851354\RMSD=4.484e-02\Dipole=0.4848947,2.1555913,0.8690082\Qu
 adrupole=-0.2932951,2.2854782,-1.9921831,3.4551351,-2.5489951,1.495391
 2\PG=C01 [X(C3H4Cl2N4O4)]\\@


 WHEN ALL ELSE FAILS, TRY THE BOSS'S SUGGESTION.
 Job cpu time:       0 days  0 hours  2 minutes 53.6 seconds.
 Elapsed time:       0 days  0 hours  0 minutes 12.2 seconds.
 File lengths (MBytes):  RWF=     22 Int=      0 D2E=      0 Chk=     17 Scr=      1
 Normal termination of Gaussian 16 at Wed Apr  9 00:54:01 2025.
