 Entering Gaussian System, Link 0=g16
 Input=BDE49_expt_1722_mol1.gjf
 Output=BDE49_expt_1722_mol1.log
 Initial command:
 /arc/software/Gaussian/g16.c01/l1.exe "/tmp/slurm/4842236/Gau-232257.inp" -scrdir="/tmp/slurm/4842236/"
 Entering Link 1 = /arc/software/Gaussian/g16.c01/l1.exe PID=    232258.
  
 Copyright (c) 1988-2019, Gaussian, Inc.  All Rights Reserved.
  
 This is part of the Gaussian(R) 16 program.  It is based on
 the Gaussian(R) 09 system (copyright 2009, Gaussian, Inc.),
 the Gaussian(R) 03 system (copyright 2003, Gaussian, Inc.),
 the Gaussian(R) 98 system (copyright 1998, Gaussian, Inc.),
 the Gaussian(R) 94 system (copyright 1995, Gaussian, Inc.),
 the Gaussian 92(TM) system (copyright 1992, Gaussian, Inc.),
 the Gaussian 90(TM) system (copyright 1990, Gaussian, Inc.),
 the Gaussian 88(TM) system (copyright 1988, Gaussian, Inc.),
 the Gaussian 86(TM) system (copyright 1986, Carnegie Mellon
 University), and the Gaussian 82(TM) system (copyright 1983,
 Carnegie Mellon University). Gaussian is a federally registered
 trademark of Gaussian, Inc.
  
 This software contains proprietary and confidential information,
 including trade secrets, belonging to Gaussian, Inc.
  
 This software is provided under written license and may be
 used, copied, transmitted, or stored only in accord with that
 written license.
  
 The following legend is applicable only to US Government
 contracts under FAR:
  
                    RESTRICTED RIGHTS LEGEND
  
 Use, reproduction and disclosure by the US Government is
 subject to restrictions as set forth in subparagraphs (a)
 and (c) of the Commercial Computer Software - Restricted
 Rights clause in FAR 52.227-19.
  
 Gaussian, Inc.
 340 Quinnipiac St., Bldg. 40, Wallingford CT 06492
  
  
 ---------------------------------------------------------------
 Warning -- This program may not be used in any manner that
 competes with the business of Gaussian, Inc. or will provide
 assistance to any competitor of Gaussian, Inc.  The licensee
 of this program is prohibited from giving any competitor of
 Gaussian, Inc. access to this program.  By using this program,
 the user acknowledges that Gaussian, Inc. is engaged in the
 business of creating and licensing software in the field of
 computational chemistry and represents and warrants to the
 licensee that it is not a competitor of Gaussian, Inc. and that
 it will not use this program in any manner prohibited above.
 ---------------------------------------------------------------
  

 Cite this work as:
 Gaussian 16, Revision C.01,
 M. J. Frisch, G. W. Trucks, H. B. Schlegel, G. E. Scuseria, 
 M. A. Robb, J. R. Cheeseman, G. Scalmani, V. Barone, 
 G. A. Petersson, H. Nakatsuji, X. Li, M. Caricato, A. V. Marenich, 
 J. Bloino, B. G. Janesko, R. Gomperts, B. Mennucci, H. P. Hratchian, 
 J. V. Ortiz, A. F. Izmaylov, J. L. Sonnenberg, D. Williams-Young, 
 F. Ding, F. Lipparini, F. Egidi, J. Goings, B. Peng, A. Petrone, 
 T. Henderson, D. Ranasinghe, V. G. Zakrzewski, J. Gao, N. Rega, 
 G. Zheng, W. Liang, M. Hada, M. Ehara, K. Toyota, R. Fukuda, 
 J. Hasegawa, M. Ishida, T. Nakajima, Y. Honda, O. Kitao, H. Nakai, 
 T. Vreven, K. Throssell, J. A. Montgomery, Jr., J. E. Peralta, 
 F. Ogliaro, M. J. Bearpark, J. J. Heyd, E. N. Brothers, K. N. Kudin, 
 V. N. Staroverov, T. A. Keith, R. Kobayashi, J. Normand, 
 K. Raghavachari, A. P. Rendell, J. C. Burant, S. S. Iyengar, 
 J. Tomasi, M. Cossi, J. M. Millam, M. Klene, C. Adamo, R. Cammi, 
 J. W. Ochterski, R. L. Martin, K. Morokuma, O. Farkas, 
 J. B. Foresman, and D. J. Fox, Gaussian, Inc., Wallingford CT, 2019.
 
 ******************************************
 Gaussian 16:  ES64L-G16RevC.01  3-Jul-2019
                 8-Apr-2025 
 ******************************************
 %nprocs=16
 Will use up to   16 processors via shared memory.
 %mem=30GB
 %chk=BDE49_expt_1722_mol1.chk
 ----------------------------------------------------------------------
 #t hf aug-cc-pvdz symm=none int=(grid=ultrafine) guess=(read,tcheck) s
 table=(opt,rrhf)
 ----------------------------------------------------------------------
 -----
 title
 -----
 Symbolic Z-matrix:
 Charge =  0 Multiplicity = 1
 C                    -0.2287   -0.00007  -0.52896 
 C                     1.25766   0.00003  -0.11848 
 Cl                   -1.07301   1.4841    0.04419 
 Cl                   -1.07285  -1.4842    0.0445 
 H                    -0.27592  -0.00018  -1.61115 
 N                     1.50484   0.00039   1.21061 
 H                     0.76731   0.00069   1.89542 
 H                     2.4638    0.00049   1.51835 
 O                     2.10209  -0.00023  -0.98749 
 
                    Distance matrix (angstroms):
                    1          2          3          4          5
     1  C    0.000000
     2  C    1.541999   0.000000
     3  Cl   1.801145   2.767839   0.000000
     4  Cl   1.801127   2.767807   2.968301   0.000000
     5  H    1.083224   2.140077   2.361908   2.361901   0.000000
     6  N    2.455863   1.351876   3.194876   3.195045   3.336680
     7  H    2.621001   2.072736   3.002388   3.002829   3.658466
     8  H    3.382459   2.033218   4.108924   4.109065   4.159304
     9  O    2.375470   1.211715   3.653613   3.653406   2.458429
                    6          7          8          9
     6  N    0.000000
     7  H    1.006442   0.000000
     8  H    1.007127   1.737894   0.000000
     9  O    2.277796   3.176923   2.531810   0.000000
 Symmetry turned off by external request.
 Rotational constants (GHZ):           2.4997920           1.9632624           1.3908742
   173 basis functions,   367 primitive gaussians,   185 cartesian basis functions
    32 alpha electrons       32 beta electrons
       nuclear repulsion energy       353.2045670342 Hartrees.
 NAtoms=    9 NActive=    9 NUniq=    9 SFac= 1.00D+00 NAtFMM=   60 NAOKFM=F Big=F
 ExpMin= 2.97D-02 ExpMax= 1.28D+05 ExpMxC= 1.24D+03 IAcc=3 IRadAn=         5 AccDes= 0.00D+00
 Harris functional with IExCor=  205 and IRadAn=       5 diagonalized for initial guess.
 HarFok:  IExCor=  205 AccDes= 0.00D+00 IRadAn=         5 IDoV= 1 UseB2=F ITyADJ=14
 ICtDFT=  3500011 ScaDFX=  1.000000  1.000000  1.000000  1.000000
 FoFCou: FMM=F IPFlag=           0 FMFlag=      100000 FMFlg1=           0
         NFxFlg=           0 DoJE=T BraDBF=F KetDBF=T FulRan=T
         wScrn=  0.000000 ICntrl=       500 IOpCl=  0 I1Cent=   200000004 NGrid=           0
         NMat0=    1 NMatS0=      1 NMatT0=    0 NMatD0=    1 NMtDS0=    0 NMtDT0=    0
 Symmetry not used in FoFCou.
 SCF Done:  E(RHF) =  -1125.84570928     A.U. after   14 cycles
            NFock= 14  Conv=0.31D-08     -V/T= 2.0003

 **********************************************************************

            Population analysis using the SCF Density.

 **********************************************************************

 Alpha  occ. eigenvalues -- -104.86409-104.86409 -20.56516 -15.61697 -11.40015
 Alpha  occ. eigenvalues --  -11.39577 -10.58989 -10.58988  -8.05754  -8.05753
 Alpha  occ. eigenvalues --   -8.05408  -8.05408  -8.05405  -8.05405  -1.42315
 Alpha  occ. eigenvalues --   -1.24945  -1.19883  -1.11088  -0.95458  -0.82729
 Alpha  occ. eigenvalues --   -0.75973  -0.69191  -0.64514  -0.63215  -0.62395
 Alpha  occ. eigenvalues --   -0.56579  -0.51274  -0.48864  -0.47307  -0.46078
 Alpha  occ. eigenvalues --   -0.44148  -0.43694
 Alpha virt. eigenvalues --    0.03068   0.04895   0.05704   0.07830   0.08252
 Alpha virt. eigenvalues --    0.10230   0.11001   0.12274   0.13405   0.13794
 Alpha virt. eigenvalues --    0.14498   0.15833   0.16344   0.16892   0.17524
 Alpha virt. eigenvalues --    0.18001   0.18503   0.18991   0.19720   0.20424
 Alpha virt. eigenvalues --    0.21403   0.23147   0.25365   0.28201   0.30316
 Alpha virt. eigenvalues --    0.31100   0.31914   0.32917   0.34016   0.34984
 Alpha virt. eigenvalues --    0.36529   0.37985   0.38597   0.41350   0.43242
 Alpha virt. eigenvalues --    0.43722   0.43880   0.44430   0.46658   0.48197
 Alpha virt. eigenvalues --    0.49191   0.49791   0.53707   0.54115   0.56115
 Alpha virt. eigenvalues --    0.56756   0.58420   0.59217   0.60484   0.61102
 Alpha virt. eigenvalues --    0.64026   0.64415   0.64899   0.68599   0.69614
 Alpha virt. eigenvalues --    0.70710   0.75694   0.77368   0.77809   0.78330
 Alpha virt. eigenvalues --    0.81092   0.83376   0.85548   0.86845   0.87804
 Alpha virt. eigenvalues --    0.88620   0.92010   0.94407   0.95579   0.96095
 Alpha virt. eigenvalues --    0.99043   1.00426   1.03281   1.04637   1.06953
 Alpha virt. eigenvalues --    1.07362   1.09686   1.13513   1.14246   1.20717
 Alpha virt. eigenvalues --    1.25755   1.29332   1.29888   1.33678   1.35590
 Alpha virt. eigenvalues --    1.35693   1.37795   1.39792   1.41299   1.44070
 Alpha virt. eigenvalues --    1.44729   1.45614   1.47634   1.47849   1.49704
 Alpha virt. eigenvalues --    1.50522   1.53736   1.58598   1.58988   1.60615
 Alpha virt. eigenvalues --    1.69514   1.71393   1.77778   1.82378   1.82967
 Alpha virt. eigenvalues --    1.86514   1.89286   1.93655   1.97461   2.01625
 Alpha virt. eigenvalues --    2.06212   2.09912   2.10622   2.16070   2.21898
 Alpha virt. eigenvalues --    2.24472   2.25548   2.28943   2.30192   2.34861
 Alpha virt. eigenvalues --    2.37632   2.39870   2.43457   2.44678   2.55481
 Alpha virt. eigenvalues --    2.69462   2.77317   2.79564   2.81524   2.86553
 Alpha virt. eigenvalues --    2.91395   3.03968   3.21488   3.40388   3.57919
 Alpha virt. eigenvalues --    3.62950   3.74366   3.79365   3.85682   3.99603
 Alpha virt. eigenvalues --    4.15551
          Condensed to atoms (all electrons):
 Mulliken charges:
               1
     1  C   -0.391548
     2  C    1.062898
     3  Cl   0.020525
     4  Cl   0.020570
     5  H    0.154049
     6  N   -0.176860
     7  H    0.015739
     8  H   -0.018717
     9  O   -0.686655
 Sum of Mulliken charges =  -0.00000
 Mulliken charges with hydrogens summed into heavy atoms:
               1
     1  C   -0.237500
     2  C    1.062898
     3  Cl   0.020525
     4  Cl   0.020570
     6  N   -0.179839
     9  O   -0.686655
 Electronic spatial extent (au):  <R**2>=            861.2669
 Charge=             -0.0000 electrons
 Dipole moment (field-independent basis, Debye):
    X=             -0.4935    Y=              0.0011    Z=              2.5377  Tot=              2.5853
 NROrb=    173 NOA=    32 NOB=    32 NVA=   141 NVB=   141

 **** Warning!!: The largest alpha MO coefficient is  0.32080213D+02

    12 initial guesses have been made.
 Iteration     1 Dimension    12 NMult     0 NNew     12
 New state      1 was old state      2
 Iteration     2 Dimension    24 NMult    12 NNew     12
 Iteration     3 Dimension    27 NMult    24 NNew      3
 Iteration     4 Dimension    30 NMult    27 NNew      3
 Iteration     5 Dimension    33 NMult    30 NNew      3
 Iteration     6 Dimension    36 NMult    33 NNew      3
 Iteration     7 Dimension    39 NMult    36 NNew      3
 Iteration     8 Dimension    42 NMult    39 NNew      3
 ***********************************************************************
 Stability analysis using <AA,BB:AA,BB> singles matrix:
 ***********************************************************************
 Ground to excited state transition densities written to RWF  633

 Eigenvectors of the stability matrix:
 
 Excited state symmetry could not be determined.
 Eigenvector   1:      Singlet-?Sym  Eigenvalue= 0.2322578  <S**2>=0.000
      27 -> 39         0.12442
      27 -> 42        -0.16055
      27 -> 55        -0.10010
      31 -> 36        -0.21577
      31 -> 39         0.36802
      31 -> 42        -0.39107
      31 -> 52        -0.10271
 The wavefunction is stable under the perturbations considered.
 The wavefunction is already stable.

 **********************************************************************

            Population analysis using the SCF Density.

 **********************************************************************

 Alpha  occ. eigenvalues -- -104.86409-104.86409 -20.56516 -15.61697 -11.40015
 Alpha  occ. eigenvalues --  -11.39577 -10.58989 -10.58988  -8.05754  -8.05753
 Alpha  occ. eigenvalues --   -8.05408  -8.05408  -8.05405  -8.05405  -1.42315
 Alpha  occ. eigenvalues --   -1.24945  -1.19883  -1.11088  -0.95458  -0.82729
 Alpha  occ. eigenvalues --   -0.75973  -0.69191  -0.64514  -0.63215  -0.62395
 Alpha  occ. eigenvalues --   -0.56579  -0.51274  -0.48864  -0.47307  -0.46078
 Alpha  occ. eigenvalues --   -0.44148  -0.43694
 Alpha virt. eigenvalues --    0.03068   0.04895   0.05704   0.07830   0.08252
 Alpha virt. eigenvalues --    0.10230   0.11001   0.12274   0.13405   0.13794
 Alpha virt. eigenvalues --    0.14498   0.15833   0.16344   0.16892   0.17524
 Alpha virt. eigenvalues --    0.18001   0.18503   0.18991   0.19720   0.20424
 Alpha virt. eigenvalues --    0.21403   0.23147   0.25365   0.28201   0.30316
 Alpha virt. eigenvalues --    0.31100   0.31914   0.32917   0.34016   0.34984
 Alpha virt. eigenvalues --    0.36529   0.37985   0.38597   0.41350   0.43242
 Alpha virt. eigenvalues --    0.43722   0.43880   0.44430   0.46658   0.48197
 Alpha virt. eigenvalues --    0.49191   0.49791   0.53707   0.54115   0.56115
 Alpha virt. eigenvalues --    0.56756   0.58420   0.59217   0.60484   0.61102
 Alpha virt. eigenvalues --    0.64026   0.64415   0.64899   0.68599   0.69614
 Alpha virt. eigenvalues --    0.70710   0.75694   0.77368   0.77809   0.78330
 Alpha virt. eigenvalues --    0.81092   0.83376   0.85548   0.86845   0.87804
 Alpha virt. eigenvalues --    0.88620   0.92010   0.94407   0.95579   0.96095
 Alpha virt. eigenvalues --    0.99043   1.00426   1.03281   1.04637   1.06953
 Alpha virt. eigenvalues --    1.07362   1.09686   1.13513   1.14246   1.20717
 Alpha virt. eigenvalues --    1.25755   1.29332   1.29888   1.33678   1.35590
 Alpha virt. eigenvalues --    1.35693   1.37795   1.39792   1.41299   1.44070
 Alpha virt. eigenvalues --    1.44729   1.45614   1.47634   1.47849   1.49704
 Alpha virt. eigenvalues --    1.50522   1.53736   1.58598   1.58988   1.60615
 Alpha virt. eigenvalues --    1.69514   1.71393   1.77778   1.82378   1.82967
 Alpha virt. eigenvalues --    1.86514   1.89286   1.93655   1.97461   2.01625
 Alpha virt. eigenvalues --    2.06212   2.09912   2.10622   2.16070   2.21898
 Alpha virt. eigenvalues --    2.24472   2.25548   2.28943   2.30192   2.34861
 Alpha virt. eigenvalues --    2.37632   2.39870   2.43457   2.44678   2.55481
 Alpha virt. eigenvalues --    2.69462   2.77317   2.79564   2.81524   2.86553
 Alpha virt. eigenvalues --    2.91395   3.03968   3.21488   3.40388   3.57919
 Alpha virt. eigenvalues --    3.62950   3.74366   3.79365   3.85682   3.99603
 Alpha virt. eigenvalues --    4.15551
          Condensed to atoms (all electrons):
 Mulliken charges:
               1
     1  C   -0.391548
     2  C    1.062898
     3  Cl   0.020525
     4  Cl   0.020570
     5  H    0.154049
     6  N   -0.176860
     7  H    0.015739
     8  H   -0.018717
     9  O   -0.686655
 Sum of Mulliken charges =  -0.00000
 Mulliken charges with hydrogens summed into heavy atoms:
               1
     1  C   -0.237500
     2  C    1.062898
     3  Cl   0.020525
     4  Cl   0.020570
     6  N   -0.179839
     9  O   -0.686655
 Electronic spatial extent (au):  <R**2>=            861.2669
 Charge=             -0.0000 electrons
 Dipole moment (field-independent basis, Debye):
    X=             -0.4935    Y=              0.0011    Z=              2.5377  Tot=              2.5853
 Unable to Open any file for archive entry.
 1\1\GINC-SE082\Stability\RHF\Aug-CC-pVDZ\C2H3Cl2N1O1\OHZDE\08-Apr-2025
 \0\\#t hf aug-cc-pvdz symm=none int=(grid=ultrafine) guess=(read,tchec
 k) stable=(opt,rrhf)\\title\\0,1\C,0,-0.228703,-0.000072,-0.528957\C,0
 ,1.257658,0.000033,-0.118478\Cl,0,-1.073009,1.484102,0.044192\Cl,0,-1.
 072846,-1.484199,0.044495\H,0,-0.275917,-0.000179,-1.611152\N,0,1.5048
 42,0.000394,1.210608\H,0,0.767308,0.000687,1.895421\H,0,2.463801,0.000
 492,1.518346\O,0,2.102091,-0.000234,-0.987493\\Version=ES64L-G16RevC.0
 1\HF=-1125.8457093\RMSD=3.055e-09\Dipole=-0.1941406,0.0004301,0.998422
 1\Quadrupole=-2.5473251,-0.8781218,3.4254468,0.0018551,5.8619918,0.001
 1798\PG=Unknown\\@
 The archive entry for this job was punched.


  THE LARGE PRINT GIVETH,
  AND THE SMALL PRINT TAKETH AWAY.

                     -- TOM WAITS
 Job cpu time:       0 days  0 hours  1 minutes 18.1 seconds.
 Elapsed time:       0 days  0 hours  0 minutes  9.5 seconds.
 File lengths (MBytes):  RWF=    207 Int=      0 D2E=      0 Chk=      5 Scr=      1
 Normal termination of Gaussian 16 at Tue Apr  8 22:49:36 2025.
 Initial command:
 /arc/software/Gaussian/g16.c01/l1.exe "/tmp/slurm/4842236/Gau-232257.inp" -scrdir="/tmp/slurm/4842236/"
 Entering Link 1 = /arc/software/Gaussian/g16.c01/l1.exe PID=    232469.
  
 Copyright (c) 1988-2019, Gaussian, Inc.  All Rights Reserved.
  
 This is part of the Gaussian(R) 16 program.  It is based on
 the Gaussian(R) 09 system (copyright 2009, Gaussian, Inc.),
 the Gaussian(R) 03 system (copyright 2003, Gaussian, Inc.),
 the Gaussian(R) 98 system (copyright 1998, Gaussian, Inc.),
 the Gaussian(R) 94 system (copyright 1995, Gaussian, Inc.),
 the Gaussian 92(TM) system (copyright 1992, Gaussian, Inc.),
 the Gaussian 90(TM) system (copyright 1990, Gaussian, Inc.),
 the Gaussian 88(TM) system (copyright 1988, Gaussian, Inc.),
 the Gaussian 86(TM) system (copyright 1986, Carnegie Mellon
 University), and the Gaussian 82(TM) system (copyright 1983,
 Carnegie Mellon University). Gaussian is a federally registered
 trademark of Gaussian, Inc.
  
 This software contains proprietary and confidential information,
 including trade secrets, belonging to Gaussian, Inc.
  
 This software is provided under written license and may be
 used, copied, transmitted, or stored only in accord with that
 written license.
  
 The following legend is applicable only to US Government
 contracts under FAR:
  
                    RESTRICTED RIGHTS LEGEND
  
 Use, reproduction and disclosure by the US Government is
 subject to restrictions as set forth in subparagraphs (a)
 and (c) of the Commercial Computer Software - Restricted
 Rights clause in FAR 52.227-19.
  
 Gaussian, Inc.
 340 Quinnipiac St., Bldg. 40, Wallingford CT 06492
  
  
 ---------------------------------------------------------------
 Warning -- This program may not be used in any manner that
 competes with the business of Gaussian, Inc. or will provide
 assistance to any competitor of Gaussian, Inc.  The licensee
 of this program is prohibited from giving any competitor of
 Gaussian, Inc. access to this program.  By using this program,
 the user acknowledges that Gaussian, Inc. is engaged in the
 business of creating and licensing software in the field of
 computational chemistry and represents and warrants to the
 licensee that it is not a competitor of Gaussian, Inc. and that
 it will not use this program in any manner prohibited above.
 ---------------------------------------------------------------
  

 Cite this work as:
 Gaussian 16, Revision C.01,
 M. J. Frisch, G. W. Trucks, H. B. Schlegel, G. E. Scuseria, 
 M. A. Robb, J. R. Cheeseman, G. Scalmani, V. Barone, 
 G. A. Petersson, H. Nakatsuji, X. Li, M. Caricato, A. V. Marenich, 
 J. Bloino, B. G. Janesko, R. Gomperts, B. Mennucci, H. P. Hratchian, 
 J. V. Ortiz, A. F. Izmaylov, J. L. Sonnenberg, D. Williams-Young, 
 F. Ding, F. Lipparini, F. Egidi, J. Goings, B. Peng, A. Petrone, 
 T. Henderson, D. Ranasinghe, V. G. Zakrzewski, J. Gao, N. Rega, 
 G. Zheng, W. Liang, M. Hada, M. Ehara, K. Toyota, R. Fukuda, 
 J. Hasegawa, M. Ishida, T. Nakajima, Y. Honda, O. Kitao, H. Nakai, 
 T. Vreven, K. Throssell, J. A. Montgomery, Jr., J. E. Peralta, 
 F. Ogliaro, M. J. Bearpark, J. J. Heyd, E. N. Brothers, K. N. Kudin, 
 V. N. Staroverov, T. A. Keith, R. Kobayashi, J. Normand, 
 K. Raghavachari, A. P. Rendell, J. C. Burant, S. S. Iyengar, 
 J. Tomasi, M. Cossi, J. M. Millam, M. Klene, C. Adamo, R. Cammi, 
 J. W. Ochterski, R. L. Martin, K. Morokuma, O. Farkas, 
 J. B. Foresman, and D. J. Fox, Gaussian, Inc., Wallingford CT, 2019.
 
 ******************************************
 Gaussian 16:  ES64L-G16RevC.01  3-Jul-2019
                 8-Apr-2025 
 ******************************************
 %nprocs=16
 Will use up to   16 processors via shared memory.
 %mem=30GB
 %chk=BDE49_expt_1722_mol1.chk
 ----------------------------------------------------------------------
 #t hf aug-cc-pvdz iop(5/13=1,5/36=2,99/5=2) pseudo=read geom=check gue
 ss=(read,tcheck) scf=(maxcycle=1)
 ----------------------------------------------------------------------
 -----
 title
 -----
 Structure from the checkpoint file:  "BDE49_expt_1722_mol1.chk"
 Charge =  0 Multiplicity = 1
 Z-Matrix found in chk file.
 C,0,-0.228703,-0.000072,-0.528957
 C,0,1.257658,0.000033,-0.118478
 Cl,0,-1.073009,1.484102,0.044192
 Cl,0,-1.072846,-1.484199,0.044495
 H,0,-0.275917,-0.000179,-1.611152
 N,0,1.504842,0.000394,1.210608
 H,0,0.767308,0.000687,1.895421
 H,0,2.463801,0.000492,1.518346
 O,0,2.102091,-0.000234,-0.987493
 Recover connectivity data from disk.
                    Distance matrix (angstroms):
                    1          2          3          4          5
     1  C    0.000000
     2  C    1.541999   0.000000
     3  Cl   1.801145   2.767839   0.000000
     4  Cl   1.801127   2.767807   2.968301   0.000000
     5  H    1.083224   2.140077   2.361908   2.361901   0.000000
     6  N    2.455863   1.351876   3.194876   3.195045   3.336680
     7  H    2.621001   2.072736   3.002388   3.002829   3.658466
     8  H    3.382459   2.033218   4.108924   4.109065   4.159304
     9  O    2.375470   1.211715   3.653613   3.653406   2.458429
                    6          7          8          9
     6  N    0.000000
     7  H    1.006442   0.000000
     8  H    1.007127   1.737894   0.000000
     9  O    2.277796   3.176923   2.531810   0.000000
 Framework group  C1[X(C2H3Cl2NO)]
 Deg. of freedom    21
                         Standard orientation:                         
 ---------------------------------------------------------------------
 Center     Atomic      Atomic             Coordinates (Angstroms)
 Number     Number       Type             X           Y           Z
 ---------------------------------------------------------------------
      1          6           0        0.228703    0.000072   -0.528957
      2          6           0       -1.257658   -0.000033   -0.118478
      3         17           0        1.073009   -1.484102    0.044192
      4         17           0        1.072847    1.484199    0.044495
      5          1           0        0.275917    0.000179   -1.611152
      6          7           0       -1.504842   -0.000394    1.210608
      7          1           0       -0.767308   -0.000687    1.895421
      8          1           0       -2.463801   -0.000491    1.518346
      9          8           0       -2.102091    0.000235   -0.987493
 ---------------------------------------------------------------------
 Rotational constants (GHZ):           2.4997920           1.9632624           1.3908742
 ======================================================================================================
                                       Pseudopotential Parameters
 ======================================================================================================
  Center     Atomic      Valence      Angular      Power
  Number     Number     Electrons     Momentum     of R      Exponent        Coefficient   SO-Coeffient
 ======================================================================================================
    1          6            6
                                      G and up 
                                                     0        0.0000010       -0.00007288    0.00000000
                                                     2        0.1200000        0.10466671    0.00000000
                                                     2        0.1400000       -0.65716157    0.00000000
                                                     2        0.1600000        1.18890794    0.00000000
                                                     2        0.2000000       -1.25772850    0.00000000
                                                     2        0.2600000        1.01188378    0.00000000
                                                     2        0.4000000       -1.09380874    0.00000000
                                                     2        0.5000000        0.96944888    0.00000000
                                                     2        1.0000000       -0.79256938    0.00000000
                                                     2        3.0000000        1.06443276    0.00000000
                                      S - G
                                                     0        0.0000010       -0.00635295    0.00000000
                                                     2        0.1200000        0.16918955    0.00000000
                                                     2        0.1600000       -0.38862576    0.00000000
                                                     2        0.2800000        0.25638263    0.00000000
                                                     2        0.5000000        0.29628419    0.00000000
                                                     2        0.9000000       -0.28791512    0.00000000
                                      P - G
                                                     0        0.0000010       -0.04756931    0.00000000
                                                     2        0.1200000        0.28430375    0.00000000
                                                     2        0.1600000       -0.69640032    0.00000000
                                                     2        0.2600000        1.13005668    0.00000000
                                                     2        0.4000000       -1.31433324    0.00000000
                                                     2        0.7000000        0.91526469    0.00000000
                                      D - G
                                                     0        0.0000010       -0.11496411    0.00000000
                                                     2        0.1200000        0.16620776    0.00000000
                                                     2        0.1800000       -0.30959819    0.00000000
                                                     2        0.3000000        0.16621458    0.00000000
                                                     2        0.6000000        0.27350556    0.00000000
                                      F - G
                                                     0        0.0000010        0.12037550    0.00000000
                                                     2        0.1200000       -0.48737077    0.00000000
                                                     2        0.1400000        0.58315350    0.00000000
                                                     2        0.3000000        0.00005188    0.00000000
                                                     2        0.5000000       -1.16063549    0.00000000
                                                     2        0.8000000        2.09053308    0.00000000
    2          6            6
                                      G and up 
                                                     0        0.0000010       -0.00007288    0.00000000
                                                     2        0.1200000        0.10466671    0.00000000
                                                     2        0.1400000       -0.65716157    0.00000000
                                                     2        0.1600000        1.18890794    0.00000000
                                                     2        0.2000000       -1.25772850    0.00000000
                                                     2        0.2600000        1.01188378    0.00000000
                                                     2        0.4000000       -1.09380874    0.00000000
                                                     2        0.5000000        0.96944888    0.00000000
                                                     2        1.0000000       -0.79256938    0.00000000
                                                     2        3.0000000        1.06443276    0.00000000
                                      S - G
                                                     0        0.0000010       -0.00635295    0.00000000
                                                     2        0.1200000        0.16918955    0.00000000
                                                     2        0.1600000       -0.38862576    0.00000000
                                                     2        0.2800000        0.25638263    0.00000000
                                                     2        0.5000000        0.29628419    0.00000000
                                                     2        0.9000000       -0.28791512    0.00000000
                                      P - G
                                                     0        0.0000010       -0.04756931    0.00000000
                                                     2        0.1200000        0.28430375    0.00000000
                                                     2        0.1600000       -0.69640032    0.00000000
                                                     2        0.2600000        1.13005668    0.00000000
                                                     2        0.4000000       -1.31433324    0.00000000
                                                     2        0.7000000        0.91526469    0.00000000
                                      D - G
                                                     0        0.0000010       -0.11496411    0.00000000
                                                     2        0.1200000        0.16620776    0.00000000
                                                     2        0.1800000       -0.30959819    0.00000000
                                                     2        0.3000000        0.16621458    0.00000000
                                                     2        0.6000000        0.27350556    0.00000000
                                      F - G
                                                     0        0.0000010        0.12037550    0.00000000
                                                     2        0.1200000       -0.48737077    0.00000000
                                                     2        0.1400000        0.58315350    0.00000000
                                                     2        0.3000000        0.00005188    0.00000000
                                                     2        0.5000000       -1.16063549    0.00000000
                                                     2        0.8000000        2.09053308    0.00000000
    3         17           17
                                      G and up 
                                                     0        0.0000010        0.00010715    0.00000000
                                                     2        0.1200000       -0.00076261    0.00000000
                                                     2        0.1600000        0.04395058    0.00000000
                                                     2        0.2000000       -0.10504698    0.00000000
                                                     2        0.2800000        0.13950130    0.00000000
                                                     2        0.4000000       -0.12623641    0.00000000
                                                     2        0.7000000       -0.42143984    0.00000000
                                      S - G
                                                     0        0.0000010       -0.00139392    0.00000000
                                                     2        0.1200000       -0.01887585    0.00000000
                                                     2        0.4000000        0.46511854    0.00000000
                                      P - G
                                                     0        0.0000010        0.03235088    0.00000000
                                                     2        0.1200000        0.42220750    0.00000000
                                                     2        0.1600000       -1.02263661    0.00000000
                                                     2        0.2600000        0.81322107    0.00000000
                                      D - G
                                                     0        0.0000010       -0.08073759    0.00000000
                                                     2        0.1200000       -0.02872770    0.00000000
                                                     2        0.2000000        0.11554000    0.00000000
                                      F - G
                                                     0        0.0000010        0.04269408    0.00000000
                                                     2        0.1200000       -0.09796467    0.00000000
                                                     2        0.2000000        0.26850099    0.00000000
    4         17           17
                                      G and up 
                                                     0        0.0000010        0.00010715    0.00000000
                                                     2        0.1200000       -0.00076261    0.00000000
                                                     2        0.1600000        0.04395058    0.00000000
                                                     2        0.2000000       -0.10504698    0.00000000
                                                     2        0.2800000        0.13950130    0.00000000
                                                     2        0.4000000       -0.12623641    0.00000000
                                                     2        0.7000000       -0.42143984    0.00000000
                                      S - G
                                                     0        0.0000010       -0.00139392    0.00000000
                                                     2        0.1200000       -0.01887585    0.00000000
                                                     2        0.4000000        0.46511854    0.00000000
                                      P - G
                                                     0        0.0000010        0.03235088    0.00000000
                                                     2        0.1200000        0.42220750    0.00000000
                                                     2        0.1600000       -1.02263661    0.00000000
                                                     2        0.2600000        0.81322107    0.00000000
                                      D - G
                                                     0        0.0000010       -0.08073759    0.00000000
                                                     2        0.1200000       -0.02872770    0.00000000
                                                     2        0.2000000        0.11554000    0.00000000
                                      F - G
                                                     0        0.0000010        0.04269408    0.00000000
                                                     2        0.1200000       -0.09796467    0.00000000
                                                     2        0.2000000        0.26850099    0.00000000
    5          1            1
                                      F and up 
                                                     0        0.0000010       -0.00007675    0.00000000
                                                     2        0.1200000        0.05352699    0.00000000
                                                     2        0.1400000       -0.25123645    0.00000000
                                                     2        0.1600000        0.32188106    0.00000000
                                                     2        0.2200000       -0.25206857    0.00000000
                                                     2        0.3000000        0.19290477    0.00000000
                                                     2        0.5000000       -0.10129770    0.00000000
                                                     2        0.9000000        0.00314995    0.00000000
                                                     2        1.5000000        0.18401192    0.00000000
                                      S - F
                                                     0        0.0000010        0.08065976    0.00000000
                                                     2        0.1200000       -0.09231673    0.00000000
                                                     2        0.1600000       -0.03278082    0.00000000
                                                     2        0.2800000        0.38423402    0.00000000
                                                     2        0.6000000       -1.09357590    0.00000000
                                                     2        1.1000000        1.53099489    0.00000000
                                                     2        3.0000000       -2.63300202    0.00000000
                                      P - F
                                                     0        0.0000010       -0.11638665    0.00000000
                                                     2        0.1200000        0.35468655    0.00000000
                                                     2        0.1600000       -0.59160923    0.00000000
                                                     2        0.3000000        0.49390547    0.00000000
                                                     2        0.6000000       -0.37949835    0.00000000
                                                     2        1.6000000        0.89304688    0.00000000
                                      D - F
                                                     0        0.0000010        0.05443663    0.00000000
                                                     2        0.1200000       -0.29679479    0.00000000
                                                     2        0.1400000        0.36849872    0.00000000
                                                     2        0.2400000        0.02793449    0.00000000
                                                     2        0.4000000       -0.46312857    0.00000000
                                                     2        0.7000000        0.97587598    0.00000000
                                                     2        1.5000000       -2.43431102    0.00000000
    6          7            7
                                      G and up 
                                                     0        0.0000010       -0.00039818    0.00000000
                                                     2        0.1200000       -0.37616123    0.00000000
                                                     2        0.1400000        2.13837358    0.00000000
                                                     2        0.1600000       -3.36562035    0.00000000
                                                     2        0.2000000        2.53463289    0.00000000
                                                     2        0.3000000       -1.98118833    0.00000000
                                                     2        0.5000000        4.06642919    0.00000000
                                                     2        0.7000000       -6.15327959    0.00000000
                                                     2        1.2000000       10.22492851    0.00000000
                                                     2        2.0000000      -14.94707511    0.00000000
                                      S - G
                                                     0        0.0000010        0.02721443    0.00000000
                                                     2        0.1200000       -0.60186009    0.00000000
                                                     2        0.1600000        1.10088134    0.00000000
                                                     2        0.2600000       -0.59857981    0.00000000
                                                     2        0.6000000        0.21288222    0.00000000
                                                     2        3.0000000        5.09059205    0.00000000
                                      P - G
                                                     0        0.0000010        0.40558062    0.00000000
                                                     2        0.1200000        0.81809854    0.00000000
                                                     2        0.1600000       -2.44952728    0.00000000
                                                     2        0.2800000        4.16638749    0.00000000
                                                     2        0.5000000       -6.02944147    0.00000000
                                                     2        1.1000000        5.78262914    0.00000000
                                      D - G
                                                     0        0.0000010       -0.62770267    0.00000000
                                                     2        0.1600000        0.91438653    0.00000000
                                                     2        0.2600000       -2.00568466    0.00000000
                                                     2        0.5000000        3.30798839    0.00000000
                                                     2        1.1000000       -3.91526108    0.00000000
                                      F - G
                                                     0        0.0000010        0.29726344    0.00000000
                                                     2        0.1200000       -0.41591527    0.00000000
                                                     2        0.1600000        0.51444439    0.00000000
                                                     2        0.4000000       -0.69401726    0.00000000
                                                     2        0.7000000        0.51478123    0.00000000
    7          1            1
                                      F and up 
                                                     0        0.0000010       -0.00007675    0.00000000
                                                     2        0.1200000        0.05352699    0.00000000
                                                     2        0.1400000       -0.25123645    0.00000000
                                                     2        0.1600000        0.32188106    0.00000000
                                                     2        0.2200000       -0.25206857    0.00000000
                                                     2        0.3000000        0.19290477    0.00000000
                                                     2        0.5000000       -0.10129770    0.00000000
                                                     2        0.9000000        0.00314995    0.00000000
                                                     2        1.5000000        0.18401192    0.00000000
                                      S - F
                                                     0        0.0000010        0.08065976    0.00000000
                                                     2        0.1200000       -0.09231673    0.00000000
                                                     2        0.1600000       -0.03278082    0.00000000
                                                     2        0.2800000        0.38423402    0.00000000
                                                     2        0.6000000       -1.09357590    0.00000000
                                                     2        1.1000000        1.53099489    0.00000000
                                                     2        3.0000000       -2.63300202    0.00000000
                                      P - F
                                                     0        0.0000010       -0.11638665    0.00000000
                                                     2        0.1200000        0.35468655    0.00000000
                                                     2        0.1600000       -0.59160923    0.00000000
                                                     2        0.3000000        0.49390547    0.00000000
                                                     2        0.6000000       -0.37949835    0.00000000
                                                     2        1.6000000        0.89304688    0.00000000
                                      D - F
                                                     0        0.0000010        0.05443663    0.00000000
                                                     2        0.1200000       -0.29679479    0.00000000
                                                     2        0.1400000        0.36849872    0.00000000
                                                     2        0.2400000        0.02793449    0.00000000
                                                     2        0.4000000       -0.46312857    0.00000000
                                                     2        0.7000000        0.97587598    0.00000000
                                                     2        1.5000000       -2.43431102    0.00000000
    8          1            1
                                      F and up 
                                                     0        0.0000010       -0.00007675    0.00000000
                                                     2        0.1200000        0.05352699    0.00000000
                                                     2        0.1400000       -0.25123645    0.00000000
                                                     2        0.1600000        0.32188106    0.00000000
                                                     2        0.2200000       -0.25206857    0.00000000
                                                     2        0.3000000        0.19290477    0.00000000
                                                     2        0.5000000       -0.10129770    0.00000000
                                                     2        0.9000000        0.00314995    0.00000000
                                                     2        1.5000000        0.18401192    0.00000000
                                      S - F
                                                     0        0.0000010        0.08065976    0.00000000
                                                     2        0.1200000       -0.09231673    0.00000000
                                                     2        0.1600000       -0.03278082    0.00000000
                                                     2        0.2800000        0.38423402    0.00000000
                                                     2        0.6000000       -1.09357590    0.00000000
                                                     2        1.1000000        1.53099489    0.00000000
                                                     2        3.0000000       -2.63300202    0.00000000
                                      P - F
                                                     0        0.0000010       -0.11638665    0.00000000
                                                     2        0.1200000        0.35468655    0.00000000
                                                     2        0.1600000       -0.59160923    0.00000000
                                                     2        0.3000000        0.49390547    0.00000000
                                                     2        0.6000000       -0.37949835    0.00000000
                                                     2        1.6000000        0.89304688    0.00000000
                                      D - F
                                                     0        0.0000010        0.05443663    0.00000000
                                                     2        0.1200000       -0.29679479    0.00000000
                                                     2        0.1400000        0.36849872    0.00000000
                                                     2        0.2400000        0.02793449    0.00000000
                                                     2        0.4000000       -0.46312857    0.00000000
                                                     2        0.7000000        0.97587598    0.00000000
                                                     2        1.5000000       -2.43431102    0.00000000
    9          8            8
                                      G and up 
                                                     0        0.0000010        0.00049668    0.00000000
                                                     2        0.1200000       -0.01803391    0.00000000
                                                     2        0.1400000        0.04014195    0.00000000
                                                     2        0.2000000       -0.02692147    0.00000000
                                                     2        0.2800000       -0.04241843    0.00000000
                                                     2        0.4000000        0.15412145    0.00000000
                                                     2        0.7000000       -0.40587006    0.00000000
                                                     2        1.1000000        1.75666647    0.00000000
                                      S - G
                                                     0        0.0000010       -0.01088195    0.00000000
                                                     2        0.1200000        0.09867335    0.00000000
                                                     2        0.2400000       -0.08484177    0.00000000
                                                     2        0.6000000       -1.39011554    0.00000000
                                                     2        2.5000000        1.36225910    0.00000000
                                      P - G
                                                     0        0.0000010        0.05874028    0.00000000
                                                     2        0.1200000       -0.11700340    0.00000000
                                                     2        0.1600000        0.08847775    0.00000000
                                                     2        0.3000000        0.04709907    0.00000000
                                                     2        1.2000000       -1.80388338    0.00000000
                                      D - G
                                                     0        0.0000010       -0.00541262    0.00000000
                                                     2        0.1200000       -0.26547906    0.00000000
                                                     2        0.1600000        1.04289661    0.00000000
                                                     2        0.2400000       -1.92800913    0.00000000
                                                     2        0.4000000        2.26691633    0.00000000
                                                     2        0.7000000       -1.97391482    0.00000000
                                      F - G
                                                     0        0.0000010       -0.02604870    0.00000000
                                                     2        0.1200000        0.37362552    0.00000000
                                                     2        0.1600000       -1.43526367    0.00000000
                                                     2        0.2200000        1.76778079    0.00000000
                                                     2        0.5000000       -1.90846303    0.00000000
 ======================================================================================================
   173 basis functions,   367 primitive gaussians,   185 cartesian basis functions
    32 alpha electrons       32 beta electrons
       nuclear repulsion energy       353.2045670342 Hartrees.
 NAtoms=    9 NActive=    9 NUniq=    9 SFac= 1.00D+00 NAtFMM=   60 NAOKFM=F Big=F
   1 Symmetry operations used in ECPInt.
 ECPInt:  NShTT=    2701 NPrTT=   20333 LenC2=    2689 LenP2D=   14124.
 LDataN:  DoStor=T MaxTD1= 6 Len=  172
 Initial guess from the checkpoint file:  "BDE49_expt_1722_mol1.chk"
 B after Tr=     0.000000    0.000000    0.000000
         Rot=   -0.000000    0.000000    0.000000    1.000000 Ang= 180.00 deg.
 >>>>>>>>>> Convergence criterion not met.
 SCF Done:  E(RHF) =  -1126.20179670     A.U. after    2 cycles
            NFock=  1  Conv=0.12D-01     -V/T= 2.0025

 **********************************************************************

            Population analysis using the SCF Density.

 **********************************************************************

 Orbital symmetries:
       Occupied  (A) (A) (A) (A) (A) (A) (A) (A) (A) (A) (A) (A)
                 (A) (A) (A) (A) (A) (A) (A) (A) (A) (A) (A) (A)
                 (A) (A) (A) (A) (A) (A) (A) (A)
       Virtual   (A) (A) (A) (A) (A) (A) (A) (A) (A) (A) (A) (A)
                 (A) (A) (A) (A) (A) (A) (A) (A) (A) (A) (A) (A)
                 (A) (A) (A) (A) (A) (A) (A) (A) (A) (A) (A) (A)
                 (A) (A) (A) (A) (A) (A) (A) (A) (A) (A) (A) (A)
                 (A) (A) (A) (A) (A) (A) (A) (A) (A) (A) (A) (A)
                 (A) (A) (A) (A) (A) (A) (A) (A) (A) (A) (A) (A)
                 (A) (A) (A) (A) (A) (A) (A) (A) (A) (A) (A) (A)
                 (A) (A) (A) (A) (A) (A) (A) (A) (A) (A) (A) (A)
                 (A) (A) (A) (A) (A) (A) (A) (A) (A) (A) (A) (A)
                 (A) (A) (A) (A) (A) (A) (A) (A) (A) (A) (A) (A)
                 (A) (A) (A) (A) (A) (A) (A) (A) (A) (A) (A) (A)
                 (A) (A) (A) (A) (A) (A) (A) (A) (A)
 The electronic state is 1-A.
 Alpha  occ. eigenvalues -- -105.59700-105.59700 -20.54285 -15.55138 -11.39883
 Alpha  occ. eigenvalues --  -11.39829 -10.64493 -10.64490  -7.81436  -7.81435
 Alpha  occ. eigenvalues --   -7.81026  -7.81023  -7.81023  -7.81021  -1.49282
 Alpha  occ. eigenvalues --   -1.25567  -1.17388  -1.06632  -0.95083  -0.85408
 Alpha  occ. eigenvalues --   -0.79031  -0.70615  -0.66126  -0.64680  -0.63164
 Alpha  occ. eigenvalues --   -0.58203  -0.51924  -0.49809  -0.48143  -0.47067
 Alpha  occ. eigenvalues --   -0.46013  -0.44271
 Alpha virt. eigenvalues --    0.02983   0.05025   0.05791   0.07726   0.07884
 Alpha virt. eigenvalues --    0.09994   0.10833   0.11696   0.12883   0.13174
 Alpha virt. eigenvalues --    0.14306   0.15537   0.16058   0.16702   0.17370
 Alpha virt. eigenvalues --    0.17757   0.18505   0.18511   0.19785   0.20330
 Alpha virt. eigenvalues --    0.20941   0.22888   0.24451   0.27750   0.29904
 Alpha virt. eigenvalues --    0.30971   0.31495   0.32521   0.33899   0.34688
 Alpha virt. eigenvalues --    0.35584   0.37116   0.37803   0.40608   0.42454
 Alpha virt. eigenvalues --    0.42563   0.43170   0.43857   0.45402   0.46687
 Alpha virt. eigenvalues --    0.48430   0.48625   0.52607   0.52633   0.54811
 Alpha virt. eigenvalues --    0.55589   0.57626   0.58454   0.59405   0.59801
 Alpha virt. eigenvalues --    0.62565   0.63743   0.64054   0.67619   0.69252
 Alpha virt. eigenvalues --    0.69935   0.74226   0.76682   0.77397   0.78147
 Alpha virt. eigenvalues --    0.80032   0.83546   0.85000   0.86646   0.87616
 Alpha virt. eigenvalues --    0.88580   0.91695   0.94413   0.95643   0.96152
 Alpha virt. eigenvalues --    0.98688   1.00017   1.02665   1.05132   1.06319
 Alpha virt. eigenvalues --    1.07202   1.09818   1.12819   1.14192   1.19259
 Alpha virt. eigenvalues --    1.25157   1.27890   1.28363   1.31973   1.32322
 Alpha virt. eigenvalues --    1.33022   1.33455   1.33552   1.36364   1.37132
 Alpha virt. eigenvalues --    1.39974   1.41211   1.41476   1.42023   1.45494
 Alpha virt. eigenvalues --    1.48286   1.48834   1.55676   1.57095   1.59515
 Alpha virt. eigenvalues --    1.69801   1.70457   1.77213   1.79078   1.80528
 Alpha virt. eigenvalues --    1.87345   1.87461   1.93594   1.96026   1.98735
 Alpha virt. eigenvalues --    2.05882   2.06532   2.08097   2.09668   2.12185
 Alpha virt. eigenvalues --    2.13004   2.23055   2.23416   2.24236   2.29175
 Alpha virt. eigenvalues --    2.33736   2.37753   2.37776   2.40253   2.42595
 Alpha virt. eigenvalues --    2.45041   2.57574   2.67543   2.73816   2.87554
 Alpha virt. eigenvalues --    2.90798   2.95796   3.05890   3.28420   3.41084
 Alpha virt. eigenvalues --    3.56670   3.84783   3.89662   3.92441   4.06571
 Alpha virt. eigenvalues --    4.24781
          Condensed to atoms (all electrons):
 Mulliken charges:
               1
     1  C   -0.776759
     2  C    0.699857
     3  Cl   0.078748
     4  Cl   0.078800
     5  H    0.283614
     6  N    0.630496
     7  H    0.056747
     8  H    0.102031
     9  O   -1.153535
 Sum of Mulliken charges =   0.00000
 Mulliken charges with hydrogens summed into heavy atoms:
               1
     1  C   -0.493145
     2  C    0.699857
     3  Cl   0.078748
     4  Cl   0.078800
     6  N    0.789274
     9  O   -1.153535
 Electronic spatial extent (au):  <R**2>=            860.4413
 Charge=              0.0000 electrons
 Dipole moment (field-independent basis, Debye):
    X=              0.3911    Y=             -0.0010    Z=              2.2502  Tot=              2.2839

 Test job not archived.
 1\1\GINC-SE082\SP\RHF\Aug-CC-pVDZ\C2H3Cl2N1O1\OHZDE\08-Apr-2025\0\\#t 
 hf aug-cc-pvdz iop(5/13=1,5/36=2,99/5=2) pseudo=read geom=check guess=
 (read,tcheck) scf=(maxcycle=1)\\title\\0,1\C,0,-0.228703,-0.000072,-0.
 528957\C,0,1.257658,0.000033,-0.118478\Cl,0,-1.073009,1.484102,0.04419
 2\Cl,0,-1.072846,-1.484199,0.044495\H,0,-0.275917,-0.000179,-1.611152\
 N,0,1.504842,0.000394,1.210608\H,0,0.767308,0.000687,1.895421\H,0,2.46
 3801,0.000492,1.518346\O,0,2.102091,-0.000234,-0.987493\\Version=ES64L
 -G16RevC.01\State=1-A\HF=-1126.2017967\RMSD=1.220e-02\Dipole=-0.153880
 3,0.0003995,0.88529\Quadrupole=-2.2941596,-1.0717681,3.3659278,0.00174
 33,5.4669843,0.0012205\PG=C01 [X(C2H3Cl2N1O1)]\\@


 TERENCE, THIS IS STUPID STUFF:
 YOU EAT YOUR VICTUALS FAST ENOUGH;
 THERE CAN'T BE MUCH AMISS, 'TIS CLEAR
 TO SEE THE RATE YOU DRINK YOUR BEER.
 BUT OH, GOOD LORD, THE VERSE YOU MAKE,
 IT GIVES A CHAP THE BELLY-ACHE.
 THE COW, THE OLD COW, SHE IS DEAD;
 IT SLEEPS WELL, THE HORNED HEAD:
 WE POOR LADS, 'TIS OUR TURN NOW
 TO HEAR SUCH TUNES AS KILLED THE COW.
 PRETTY FRIENDSHIP 'TIS TO RHYME
 YOUR FRIENDS TO DEATH BEFORE THEIR TIME.
 MOPING, MELANCHOLY MAD:
 COME PIPE A TUNE TO DANCE TO, LAD.

     -- A. E. HOUSMAN
 Job cpu time:       0 days  0 hours  0 minutes 33.9 seconds.
 Elapsed time:       0 days  0 hours  0 minutes  3.1 seconds.
 File lengths (MBytes):  RWF=     10 Int=      0 D2E=      0 Chk=      5 Scr=      1
 Normal termination of Gaussian 16 at Tue Apr  8 22:49:39 2025.
