 Entering Gaussian System, Link 0=g16
 Input=BDE49_nonexpt_266_mol1.gjf
 Output=BDE49_nonexpt_266_mol1.log
 Initial command:
 /arc/software/Gaussian/g16.c01/l1.exe "/tmp/slurm/4853147/Gau-3256637.inp" -scrdir="/tmp/slurm/4853147/"
 Entering Link 1 = /arc/software/Gaussian/g16.c01/l1.exe PID=   3256638.
  
 Copyright (c) 1988-2019, Gaussian, Inc.  All Rights Reserved.
  
 This is part of the Gaussian(R) 16 program.  It is based on
 the Gaussian(R) 09 system (copyright 2009, Gaussian, Inc.),
 the Gaussian(R) 03 system (copyright 2003, Gaussian, Inc.),
 the Gaussian(R) 98 system (copyright 1998, Gaussian, Inc.),
 the Gaussian(R) 94 system (copyright 1995, Gaussian, Inc.),
 the Gaussian 92(TM) system (copyright 1992, Gaussian, Inc.),
 the Gaussian 90(TM) system (copyright 1990, Gaussian, Inc.),
 the Gaussian 88(TM) system (copyright 1988, Gaussian, Inc.),
 the Gaussian 86(TM) system (copyright 1986, Carnegie Mellon
 University), and the Gaussian 82(TM) system (copyright 1983,
 Carnegie Mellon University). Gaussian is a federally registered
 trademark of Gaussian, Inc.
  
 This software contains proprietary and confidential information,
 including trade secrets, belonging to Gaussian, Inc.
  
 This software is provided under written license and may be
 used, copied, transmitted, or stored only in accord with that
 written license.
  
 The following legend is applicable only to US Government
 contracts under FAR:
  
                    RESTRICTED RIGHTS LEGEND
  
 Use, reproduction and disclosure by the US Government is
 subject to restrictions as set forth in subparagraphs (a)
 and (c) of the Commercial Computer Software - Restricted
 Rights clause in FAR 52.227-19.
  
 Gaussian, Inc.
 340 Quinnipiac St., Bldg. 40, Wallingford CT 06492
  
  
 ---------------------------------------------------------------
 Warning -- This program may not be used in any manner that
 competes with the business of Gaussian, Inc. or will provide
 assistance to any competitor of Gaussian, Inc.  The licensee
 of this program is prohibited from giving any competitor of
 Gaussian, Inc. access to this program.  By using this program,
 the user acknowledges that Gaussian, Inc. is engaged in the
 business of creating and licensing software in the field of
 computational chemistry and represents and warrants to the
 licensee that it is not a competitor of Gaussian, Inc. and that
 it will not use this program in any manner prohibited above.
 ---------------------------------------------------------------
  

 Cite this work as:
 Gaussian 16, Revision C.01,
 M. J. Frisch, G. W. Trucks, H. B. Schlegel, G. E. Scuseria, 
 M. A. Robb, J. R. Cheeseman, G. Scalmani, V. Barone, 
 G. A. Petersson, H. Nakatsuji, X. Li, M. Caricato, A. V. Marenich, 
 J. Bloino, B. G. Janesko, R. Gomperts, B. Mennucci, H. P. Hratchian, 
 J. V. Ortiz, A. F. Izmaylov, J. L. Sonnenberg, D. Williams-Young, 
 F. Ding, F. Lipparini, F. Egidi, J. Goings, B. Peng, A. Petrone, 
 T. Henderson, D. Ranasinghe, V. G. Zakrzewski, J. Gao, N. Rega, 
 G. Zheng, W. Liang, M. Hada, M. Ehara, K. Toyota, R. Fukuda, 
 J. Hasegawa, M. Ishida, T. Nakajima, Y. Honda, O. Kitao, H. Nakai, 
 T. Vreven, K. Throssell, J. A. Montgomery, Jr., J. E. Peralta, 
 F. Ogliaro, M. J. Bearpark, J. J. Heyd, E. N. Brothers, K. N. Kudin, 
 V. N. Staroverov, T. A. Keith, R. Kobayashi, J. Normand, 
 K. Raghavachari, A. P. Rendell, J. C. Burant, S. S. Iyengar, 
 J. Tomasi, M. Cossi, J. M. Millam, M. Klene, C. Adamo, R. Cammi, 
 J. W. Ochterski, R. L. Martin, K. Morokuma, O. Farkas, 
 J. B. Foresman, and D. J. Fox, Gaussian, Inc., Wallingford CT, 2019.
 
 ******************************************
 Gaussian 16:  ES64L-G16RevC.01  3-Jul-2019
                 9-Apr-2025 
 ******************************************
 %nprocs=16
 Will use up to   16 processors via shared memory.
 %mem=30GB
 %chk=BDE49_nonexpt_266_mol1.chk
 ----------------------------------------------------------------------
 #t hf aug-cc-pvdz symm=none int=(grid=ultrafine) guess=(read,tcheck) s
 table=(opt,rrhf)
 ----------------------------------------------------------------------
 -----
 title
 -----
 Symbolic Z-matrix:
 Charge =  0 Multiplicity = 1
 C                    -1.16603   2.14618  -0.0003 
 C                     0.12805   2.59984  -0.00022 
 C                    -1.44619   0.75627  -0.00012 
 C                    -0.36219  -0.18552   0.00004 
 C                     0.99289   0.30437   0.00008 
 C                     1.19372   1.6777    0.00003 
 H                     0.33753   3.6638   -0.00034 
 B                     2.28991  -0.57956   0. 
 O                     2.22866  -1.95305  -0.00108 
 O                     3.49383   0.08608   0.00084 
 H                    -1.99706   2.8446   -0.00049 
 C                    -2.78671   0.28893  -0.00005 
 C                    -3.06719  -1.05391   0.0002 
 C                    -2.00786  -1.98716   0.00037 
 C                    -0.6981   -1.56838   0.00028 
 H                    -2.23043  -3.04878   0.00058 
 H                     0.09831  -2.29712   0.00036 
 H                    -3.58939   1.01945  -0.00018 
 H                    -4.09484  -1.39991   0.00027 
 H                     2.20965   2.05367   0.00016 
 H                     4.27322  -0.47508   0.00165 
 H                     3.08127  -2.39703  -0.00194 
 
                    Distance matrix (angstroms):
                    1          2          3          4          5
     1  C    0.000000
     2  C    1.371290   0.000000
     3  C    1.417864   2.424242   0.000000
     4  C    2.466374   2.828175   1.435974   0.000000
     5  C    2.837821   2.452990   2.480589   1.440917   0.000000
     6  C    2.405798   1.409252   2.796088   2.427435   1.387940
     7  H    2.136317   1.084387   3.411065   3.912403   3.422763
     8  B    4.401493   3.844762   3.967724   2.681211   1.569575
     9  O    5.322366   5.014114   4.565620   3.136343   2.573524
    10  O    5.094924   4.200884   4.985266   3.865572   2.510442
    11  H    1.085538   2.139155   2.159757   3.443021   3.923337
    12  C    2.464953   3.719691   1.419649   2.470499   3.779629
    13  C    3.722232   4.853805   2.429900   2.840969   4.281258
    14  C    4.218200   5.059907   2.800340   2.440105   3.775656
    15  C    3.743922   4.249304   2.442061   1.423072   2.523215
    16  H    5.302886   6.121220   3.885032   3.418855   4.651172
    17  H    4.619690   4.897054   3.421799   2.161234   2.751004
    18  H    2.672495   4.039431   2.159302   3.444816   4.637743
    19  H    4.599207   5.816422   3.415331   3.925225   5.365590
    20  H    3.376944   2.152060   3.879222   3.410035   2.130859
    21  H    6.037911   5.161154   5.850451   4.644443   3.371655
    22  H    6.219351   5.804329   5.517352   4.092456   3.414507
                    6          7          8          9         10
     6  C    0.000000
     7  H    2.162788   0.000000
     8  B    2.509350   4.670959   0.000000
     9  O    3.775371   5.926664   1.374856   0.000000
    10  O    2.797096   4.770981   1.375681   2.399732   0.000000
    11  H    3.397453   2.474148   5.486610   6.393281   6.144852
    12  C    4.215736   4.598980   5.150365   5.493661   6.283806
    13  C    5.061323   5.817982   5.378056   5.371632   6.659317
    14  C    4.866339   6.118350   4.522401   4.236650   5.879357
    15  C    3.757124   5.333690   3.147369   2.951922   4.506601
    16  H    5.836471   7.187014   5.150780   4.591743   6.526446
    17  H    4.123000   5.965723   2.784444   2.157953   4.148397
    18  H    4.828189   4.734273   6.092861   6.533406   7.144448
    19  H    6.118863   6.729566   6.437233   6.347643   7.732789
    20  H    1.083270   2.469281   2.634449   4.006762   2.349576
    21  H    3.757361   5.711384   1.986060   2.522823   0.960389
    22  H    4.490689   6.652953   1.982290   0.961284   2.517157
                   11         12         13         14         15
    11  H    0.000000
    12  C    2.674879   0.000000
    13  C    4.042712   1.371818   0.000000
    14  C    4.831768   2.405657   1.411787   0.000000
    15  C    4.600182   2.794976   2.424312   1.375082   0.000000
    16  H    5.897994   3.383746   2.163254   1.084701   2.130643
    17  H    5.552284   3.874402   3.400878   2.128853   1.079504
    18  H    2.422127   1.085339   2.138106   3.397195   3.880263
    19  H    4.734606   2.136208   1.084334   2.168033   3.400920
    20  H    4.280415   5.298855   6.123893   5.840860   4.644806
    21  H    7.094826   7.101140   7.363192   6.460516   5.090113
    22  H    7.298222   6.453486   6.293448   5.105601   3.869139
                   16         17         18         19         20
    16  H    0.000000
    17  H    2.447046   0.000000
    18  H    4.289198   4.959716   0.000000
    19  H    2.488934   4.288066   2.471588   0.000000
    20  H    6.763823   4.836026   5.890542   7.188447   0.000000
    21  H    6.994384   4.555183   8.003386   8.419007   3.263872
    22  H    5.351535   2.984629   7.494665   7.245051   4.535247
                   21         22
    21  H    0.000000
    22  H    2.261566   0.000000
 Symmetry turned off by external request.
 Rotational constants (GHZ):           1.3151783           0.6860274           0.4508524
   380 basis functions,   658 primitive gaussians,   406 cartesian basis functions
    45 alpha electrons       45 beta electrons
       nuclear repulsion energy       708.0771720775 Hartrees.
 NAtoms=   22 NActive=   22 NUniq=   22 SFac= 1.00D+00 NAtFMM=   60 NAOKFM=F Big=F
 ExpMin= 2.38D-02 ExpMax= 1.17D+04 ExpMxC= 4.01D+02 IAcc=3 IRadAn=         5 AccDes= 0.00D+00
 Harris functional with IExCor=  205 and IRadAn=       5 diagonalized for initial guess.
 HarFok:  IExCor=  205 AccDes= 0.00D+00 IRadAn=         5 IDoV= 1 UseB2=F ITyADJ=14
 ICtDFT=  3500011 ScaDFX=  1.000000  1.000000  1.000000  1.000000
 FoFCou: FMM=F IPFlag=           0 FMFlag=      100000 FMFlg1=           0
         NFxFlg=           0 DoJE=T BraDBF=F KetDBF=T FulRan=T
         wScrn=  0.000000 ICntrl=       500 IOpCl=  0 I1Cent=   200000004 NGrid=           0
         NMat0=    1 NMatS0=      1 NMatT0=    0 NMatD0=    1 NMtDS0=    0 NMtDT0=    0
 Symmetry not used in FoFCou.
 SCF Done:  E(RHF) =  -558.536281350     A.U. after   17 cycles
            NFock= 17  Conv=0.61D-08     -V/T= 2.0007

 **********************************************************************

            Population analysis using the SCF Density.

 **********************************************************************

 Alpha  occ. eigenvalues --  -20.58688 -20.58304 -11.24761 -11.24427 -11.24202
 Alpha  occ. eigenvalues --  -11.23969 -11.23681 -11.23475 -11.23450 -11.23371
 Alpha  occ. eigenvalues --  -11.22715 -11.21877  -7.65583  -1.39788  -1.35549
 Alpha  occ. eigenvalues --   -1.17006  -1.10554  -1.04488  -1.00401  -0.97784
 Alpha  occ. eigenvalues --   -0.85182  -0.83288  -0.81916  -0.76332  -0.74515
 Alpha  occ. eigenvalues --   -0.69850  -0.68461  -0.67073  -0.65080  -0.60633
 Alpha  occ. eigenvalues --   -0.59686  -0.58212  -0.57625  -0.56612  -0.55180
 Alpha  occ. eigenvalues --   -0.53386  -0.52292  -0.51153  -0.51053  -0.47872
 Alpha  occ. eigenvalues --   -0.45560  -0.44130  -0.37782  -0.31231  -0.28396
 Alpha virt. eigenvalues --    0.02384   0.03843   0.04028   0.05030   0.05191
 Alpha virt. eigenvalues --    0.05464   0.06718   0.06813   0.07144   0.07614
 Alpha virt. eigenvalues --    0.09022   0.09308   0.09770   0.10421   0.10795
 Alpha virt. eigenvalues --    0.11356   0.13272   0.13415   0.13615   0.13818
 Alpha virt. eigenvalues --    0.14667   0.15110   0.15377   0.15654   0.15771
 Alpha virt. eigenvalues --    0.16196   0.16964   0.17015   0.17313   0.17920
 Alpha virt. eigenvalues --    0.18774   0.18999   0.19724   0.19728   0.20753
 Alpha virt. eigenvalues --    0.20935   0.21140   0.21802   0.22031   0.22294
 Alpha virt. eigenvalues --    0.22508   0.23526   0.24249   0.24366   0.25586
 Alpha virt. eigenvalues --    0.25920   0.27067   0.27414   0.28285   0.29091
 Alpha virt. eigenvalues --    0.29576   0.29710   0.30536   0.30928   0.31182
 Alpha virt. eigenvalues --    0.32513   0.33298   0.33794   0.34110   0.35162
 Alpha virt. eigenvalues --    0.35441   0.36060   0.37091   0.37337   0.37340
 Alpha virt. eigenvalues --    0.38181   0.38200   0.39248   0.39695   0.39962
 Alpha virt. eigenvalues --    0.40274   0.40746   0.41398   0.42006   0.42931
 Alpha virt. eigenvalues --    0.43369   0.44285   0.44317   0.45279   0.46133
 Alpha virt. eigenvalues --    0.46473   0.46595   0.47285   0.48053   0.49110
 Alpha virt. eigenvalues --    0.50039   0.51557   0.51575   0.52442   0.52486
 Alpha virt. eigenvalues --    0.53823   0.54478   0.55077   0.55225   0.55388
 Alpha virt. eigenvalues --    0.56268   0.56988   0.58166   0.58600   0.59729
 Alpha virt. eigenvalues --    0.59975   0.60013   0.61187   0.61988   0.63245
 Alpha virt. eigenvalues --    0.63705   0.64286   0.65584   0.66131   0.66368
 Alpha virt. eigenvalues --    0.66608   0.67008   0.67561   0.67934   0.68149
 Alpha virt. eigenvalues --    0.69771   0.69967   0.70396   0.70774   0.71109
 Alpha virt. eigenvalues --    0.71477   0.71995   0.72639   0.72983   0.73504
 Alpha virt. eigenvalues --    0.74638   0.75013   0.75404   0.75502   0.76840
 Alpha virt. eigenvalues --    0.77063   0.77188   0.78432   0.79969   0.80030
 Alpha virt. eigenvalues --    0.80776   0.81568   0.83659   0.83977   0.85528
 Alpha virt. eigenvalues --    0.86101   0.87810   0.89552   0.89888   0.90396
 Alpha virt. eigenvalues --    0.90582   0.91389   0.92267   0.93437   0.93960
 Alpha virt. eigenvalues --    0.94880   0.95252   0.95311   0.96091   0.96924
 Alpha virt. eigenvalues --    0.97233   0.97795   0.98538   0.99468   0.99788
 Alpha virt. eigenvalues --    0.99951   1.01995   1.03009   1.03697   1.04100
 Alpha virt. eigenvalues --    1.05319   1.06271   1.08067   1.08761   1.10357
 Alpha virt. eigenvalues --    1.10542   1.11121   1.11828   1.13490   1.14627
 Alpha virt. eigenvalues --    1.14845   1.16734   1.18321   1.22687   1.24284
 Alpha virt. eigenvalues --    1.24406   1.25482   1.27485   1.28184   1.29186
 Alpha virt. eigenvalues --    1.29462   1.31648   1.35196   1.35519   1.37792
 Alpha virt. eigenvalues --    1.39544   1.41767   1.44912   1.47365   1.48702
 Alpha virt. eigenvalues --    1.49172   1.49616   1.51739   1.52631   1.53020
 Alpha virt. eigenvalues --    1.54663   1.55286   1.55838   1.56911   1.58082
 Alpha virt. eigenvalues --    1.58335   1.59547   1.60798   1.62391   1.63024
 Alpha virt. eigenvalues --    1.64301   1.65126   1.65558   1.67715   1.67828
 Alpha virt. eigenvalues --    1.70635   1.71943   1.72332   1.72643   1.73604
 Alpha virt. eigenvalues --    1.74208   1.75983   1.76415   1.77314   1.79598
 Alpha virt. eigenvalues --    1.80053   1.80663   1.81391   1.81709   1.85571
 Alpha virt. eigenvalues --    1.86263   1.87105   1.87998   1.88060   1.90424
 Alpha virt. eigenvalues --    1.91388   1.91909   1.92167   1.94165   1.96815
 Alpha virt. eigenvalues --    1.97185   1.97670   1.97954   1.99505   2.00244
 Alpha virt. eigenvalues --    2.02173   2.03096   2.04350   2.05550   2.06403
 Alpha virt. eigenvalues --    2.09482   2.11910   2.12112   2.12490   2.13240
 Alpha virt. eigenvalues --    2.14282   2.15791   2.17050   2.17852   2.20371
 Alpha virt. eigenvalues --    2.20685   2.21612   2.22574   2.23280   2.24716
 Alpha virt. eigenvalues --    2.25030   2.28079   2.28924   2.31100   2.32674
 Alpha virt. eigenvalues --    2.33175   2.34024   2.35316   2.35606   2.36506
 Alpha virt. eigenvalues --    2.38819   2.39450   2.40259   2.42062   2.42213
 Alpha virt. eigenvalues --    2.44125   2.47172   2.49797   2.51232   2.52195
 Alpha virt. eigenvalues --    2.54643   2.56870   2.58188   2.61634   2.62441
 Alpha virt. eigenvalues --    2.68624   2.70153   2.71704   2.74824   2.81183
 Alpha virt. eigenvalues --    2.83075   2.84223   2.85974   2.87661   2.92976
 Alpha virt. eigenvalues --    2.96971   2.97432   2.99709   3.04579   3.06786
 Alpha virt. eigenvalues --    3.11526   3.13596   3.16782   3.19593   3.22605
 Alpha virt. eigenvalues --    3.24843   3.28006   3.36298   3.44204   3.49650
 Alpha virt. eigenvalues --    3.56994   3.63053   3.65105   3.70110   3.70338
 Alpha virt. eigenvalues --    3.73271   3.74524   3.80476   3.82047   3.87771
 Alpha virt. eigenvalues --    3.92672   3.99313   4.01336   4.28672   4.43201
 Alpha virt. eigenvalues --    4.52008   4.91445   5.57974
          Condensed to atoms (all electrons):
 Mulliken charges:
               1
     1  C    0.318500
     2  C   -0.053036
     3  C    1.125840
     4  C    1.097759
     5  C   -0.160612
     6  C    0.211392
     7  H   -0.441342
     8  B    0.793388
     9  O   -0.671526
    10  O   -0.728903
    11  H   -0.610708
    12  C    0.922852
    13  C    0.174326
    14  C   -0.297090
    15  C    0.881266
    16  H   -0.497706
    17  H   -0.676167
    18  H   -0.590701
    19  H   -0.444486
    20  H   -0.718904
    21  H    0.157038
    22  H    0.208821
 Sum of Mulliken charges =  -0.00000
 Mulliken charges with hydrogens summed into heavy atoms:
               1
     1  C   -0.292208
     2  C   -0.494378
     3  C    1.125840
     4  C    1.097759
     5  C   -0.160612
     6  C   -0.507512
     8  B    0.793388
     9  O   -0.462705
    10  O   -0.571865
    12  C    0.332151
    13  C   -0.270160
    14  C   -0.794796
    15  C    0.205099
 Electronic spatial extent (au):  <R**2>=           2358.5682
 Charge=             -0.0000 electrons
 Dipole moment (field-independent basis, Debye):
    X=              2.0675    Y=             -1.0051    Z=              0.0001  Tot=              2.2989
 NROrb=    378 NOA=    45 NOB=    45 NVA=   333 NVB=   333

 **** Warning!!: The largest alpha MO coefficient is  0.99869927D+02

    12 initial guesses have been made.
 Iteration     1 Dimension    12 NMult     0 NNew     12
 New state      1 was old state      2
 Iteration     2 Dimension    24 NMult    12 NNew     12
 Iteration     3 Dimension    27 NMult    24 NNew      3
 New state      1 was old state      2
 Iteration     4 Dimension    30 NMult    27 NNew      3
 Iteration     5 Dimension    33 NMult    30 NNew      3
 Iteration     6 Dimension    36 NMult    33 NNew      3
 Iteration     7 Dimension    39 NMult    36 NNew      3
 Iteration     8 Dimension    42 NMult    39 NNew      3
 ***********************************************************************
 Stability analysis using <AA,BB:AA,BB> singles matrix:
 ***********************************************************************
 Ground to excited state transition densities written to RWF  633

 Eigenvectors of the stability matrix:
 
 Excited state symmetry could not be determined.
 Eigenvector   1:      Singlet-?Sym  Eigenvalue= 0.1367077  <S**2>=0.000
      44 -> 54        -0.30029
      44 -> 59        -0.21713
      44 -> 61         0.20246
      45 -> 54         0.40286
      45 -> 59        -0.13678
      45 -> 61         0.24386
 The wavefunction is stable under the perturbations considered.
 The wavefunction is already stable.

 **********************************************************************

            Population analysis using the SCF Density.

 **********************************************************************

 Alpha  occ. eigenvalues --  -20.58688 -20.58304 -11.24761 -11.24427 -11.24202
 Alpha  occ. eigenvalues --  -11.23969 -11.23681 -11.23475 -11.23450 -11.23371
 Alpha  occ. eigenvalues --  -11.22715 -11.21877  -7.65583  -1.39788  -1.35549
 Alpha  occ. eigenvalues --   -1.17006  -1.10554  -1.04488  -1.00401  -0.97784
 Alpha  occ. eigenvalues --   -0.85182  -0.83288  -0.81916  -0.76332  -0.74515
 Alpha  occ. eigenvalues --   -0.69850  -0.68461  -0.67073  -0.65080  -0.60633
 Alpha  occ. eigenvalues --   -0.59686  -0.58212  -0.57625  -0.56612  -0.55180
 Alpha  occ. eigenvalues --   -0.53386  -0.52292  -0.51153  -0.51053  -0.47872
 Alpha  occ. eigenvalues --   -0.45560  -0.44130  -0.37782  -0.31231  -0.28396
 Alpha virt. eigenvalues --    0.02384   0.03843   0.04028   0.05030   0.05191
 Alpha virt. eigenvalues --    0.05464   0.06718   0.06813   0.07144   0.07614
 Alpha virt. eigenvalues --    0.09022   0.09308   0.09770   0.10421   0.10795
 Alpha virt. eigenvalues --    0.11356   0.13272   0.13415   0.13615   0.13818
 Alpha virt. eigenvalues --    0.14667   0.15110   0.15377   0.15654   0.15771
 Alpha virt. eigenvalues --    0.16196   0.16964   0.17015   0.17313   0.17920
 Alpha virt. eigenvalues --    0.18774   0.18999   0.19724   0.19728   0.20753
 Alpha virt. eigenvalues --    0.20935   0.21140   0.21802   0.22031   0.22294
 Alpha virt. eigenvalues --    0.22508   0.23526   0.24249   0.24366   0.25586
 Alpha virt. eigenvalues --    0.25920   0.27067   0.27414   0.28285   0.29091
 Alpha virt. eigenvalues --    0.29576   0.29710   0.30536   0.30928   0.31182
 Alpha virt. eigenvalues --    0.32513   0.33298   0.33794   0.34110   0.35162
 Alpha virt. eigenvalues --    0.35441   0.36060   0.37091   0.37337   0.37340
 Alpha virt. eigenvalues --    0.38181   0.38200   0.39248   0.39695   0.39962
 Alpha virt. eigenvalues --    0.40274   0.40746   0.41398   0.42006   0.42931
 Alpha virt. eigenvalues --    0.43369   0.44285   0.44317   0.45279   0.46133
 Alpha virt. eigenvalues --    0.46473   0.46595   0.47285   0.48053   0.49110
 Alpha virt. eigenvalues --    0.50039   0.51557   0.51575   0.52442   0.52486
 Alpha virt. eigenvalues --    0.53823   0.54478   0.55077   0.55225   0.55388
 Alpha virt. eigenvalues --    0.56268   0.56988   0.58166   0.58600   0.59729
 Alpha virt. eigenvalues --    0.59975   0.60013   0.61187   0.61988   0.63245
 Alpha virt. eigenvalues --    0.63705   0.64286   0.65584   0.66131   0.66368
 Alpha virt. eigenvalues --    0.66608   0.67008   0.67561   0.67934   0.68149
 Alpha virt. eigenvalues --    0.69771   0.69967   0.70396   0.70774   0.71109
 Alpha virt. eigenvalues --    0.71477   0.71995   0.72639   0.72983   0.73504
 Alpha virt. eigenvalues --    0.74638   0.75013   0.75404   0.75502   0.76840
 Alpha virt. eigenvalues --    0.77063   0.77188   0.78432   0.79969   0.80030
 Alpha virt. eigenvalues --    0.80776   0.81568   0.83659   0.83977   0.85528
 Alpha virt. eigenvalues --    0.86101   0.87810   0.89552   0.89888   0.90396
 Alpha virt. eigenvalues --    0.90582   0.91389   0.92267   0.93437   0.93960
 Alpha virt. eigenvalues --    0.94880   0.95252   0.95311   0.96091   0.96924
 Alpha virt. eigenvalues --    0.97233   0.97795   0.98538   0.99468   0.99788
 Alpha virt. eigenvalues --    0.99951   1.01995   1.03009   1.03697   1.04100
 Alpha virt. eigenvalues --    1.05319   1.06271   1.08067   1.08761   1.10357
 Alpha virt. eigenvalues --    1.10542   1.11121   1.11828   1.13490   1.14627
 Alpha virt. eigenvalues --    1.14845   1.16734   1.18321   1.22687   1.24284
 Alpha virt. eigenvalues --    1.24406   1.25482   1.27485   1.28184   1.29186
 Alpha virt. eigenvalues --    1.29462   1.31648   1.35196   1.35519   1.37792
 Alpha virt. eigenvalues --    1.39544   1.41767   1.44912   1.47365   1.48702
 Alpha virt. eigenvalues --    1.49172   1.49616   1.51739   1.52631   1.53020
 Alpha virt. eigenvalues --    1.54663   1.55286   1.55838   1.56911   1.58082
 Alpha virt. eigenvalues --    1.58335   1.59547   1.60798   1.62391   1.63024
 Alpha virt. eigenvalues --    1.64301   1.65126   1.65558   1.67715   1.67828
 Alpha virt. eigenvalues --    1.70635   1.71943   1.72332   1.72643   1.73604
 Alpha virt. eigenvalues --    1.74208   1.75983   1.76415   1.77314   1.79598
 Alpha virt. eigenvalues --    1.80053   1.80663   1.81391   1.81709   1.85571
 Alpha virt. eigenvalues --    1.86263   1.87105   1.87998   1.88060   1.90424
 Alpha virt. eigenvalues --    1.91388   1.91909   1.92167   1.94165   1.96815
 Alpha virt. eigenvalues --    1.97185   1.97670   1.97954   1.99505   2.00244
 Alpha virt. eigenvalues --    2.02173   2.03096   2.04350   2.05550   2.06403
 Alpha virt. eigenvalues --    2.09482   2.11910   2.12112   2.12490   2.13240
 Alpha virt. eigenvalues --    2.14282   2.15791   2.17050   2.17852   2.20371
 Alpha virt. eigenvalues --    2.20685   2.21612   2.22574   2.23280   2.24716
 Alpha virt. eigenvalues --    2.25030   2.28079   2.28924   2.31100   2.32674
 Alpha virt. eigenvalues --    2.33175   2.34024   2.35316   2.35606   2.36506
 Alpha virt. eigenvalues --    2.38819   2.39450   2.40259   2.42062   2.42213
 Alpha virt. eigenvalues --    2.44125   2.47172   2.49797   2.51232   2.52195
 Alpha virt. eigenvalues --    2.54643   2.56870   2.58188   2.61634   2.62441
 Alpha virt. eigenvalues --    2.68624   2.70153   2.71704   2.74824   2.81183
 Alpha virt. eigenvalues --    2.83075   2.84223   2.85974   2.87661   2.92976
 Alpha virt. eigenvalues --    2.96971   2.97432   2.99709   3.04579   3.06786
 Alpha virt. eigenvalues --    3.11526   3.13596   3.16782   3.19593   3.22605
 Alpha virt. eigenvalues --    3.24843   3.28006   3.36298   3.44204   3.49650
 Alpha virt. eigenvalues --    3.56994   3.63053   3.65105   3.70110   3.70338
 Alpha virt. eigenvalues --    3.73271   3.74524   3.80476   3.82047   3.87771
 Alpha virt. eigenvalues --    3.92672   3.99313   4.01336   4.28672   4.43201
 Alpha virt. eigenvalues --    4.52008   4.91445   5.57974
          Condensed to atoms (all electrons):
 Mulliken charges:
               1
     1  C    0.318500
     2  C   -0.053036
     3  C    1.125840
     4  C    1.097759
     5  C   -0.160612
     6  C    0.211392
     7  H   -0.441342
     8  B    0.793388
     9  O   -0.671526
    10  O   -0.728903
    11  H   -0.610708
    12  C    0.922852
    13  C    0.174326
    14  C   -0.297090
    15  C    0.881266
    16  H   -0.497706
    17  H   -0.676167
    18  H   -0.590701
    19  H   -0.444486
    20  H   -0.718904
    21  H    0.157038
    22  H    0.208821
 Sum of Mulliken charges =  -0.00000
 Mulliken charges with hydrogens summed into heavy atoms:
               1
     1  C   -0.292208
     2  C   -0.494378
     3  C    1.125840
     4  C    1.097759
     5  C   -0.160612
     6  C   -0.507512
     8  B    0.793388
     9  O   -0.462705
    10  O   -0.571865
    12  C    0.332151
    13  C   -0.270160
    14  C   -0.794796
    15  C    0.205099
 Electronic spatial extent (au):  <R**2>=           2358.5682
 Charge=             -0.0000 electrons
 Dipole moment (field-independent basis, Debye):
    X=              2.0675    Y=             -1.0051    Z=              0.0001  Tot=              2.2989
 Unable to Open any file for archive entry.
 1\1\GINC-SE362\Stability\RHF\Aug-CC-pVDZ\C10H9B1O2\OHZDE\09-Apr-2025\0
 \\#t hf aug-cc-pvdz symm=none int=(grid=ultrafine) guess=(read,tcheck)
  stable=(opt,rrhf)\\title\\0,1\C,0,-1.166028,2.146184,-0.0003\C,0,0.12
 8048,2.59984,-0.000216\C,0,-1.446187,0.756274,-0.000117\C,0,-0.362193,
 -0.185521,0.000039\C,0,0.992891,0.304365,0.00008\C,0,1.193715,1.677699
 ,0.000025\H,0,0.337531,3.663801,-0.000338\B,0,2.289906,-0.579557,0.000
 002\O,0,2.228655,-1.953048,-0.001075\O,0,3.493825,0.086083,0.000837\H,
 0,-1.997059,2.844596,-0.000489\C,0,-2.786706,0.288929,-0.000052\C,0,-3
 .06719,-1.053909,0.000196\C,0,-2.007857,-1.98716,0.000367\C,0,-0.69809
 6,-1.568381,0.000283\H,0,-2.230434,-3.048779,0.000576\H,0,0.09831,-2.2
 97124,0.000361\H,0,-3.589392,1.019446,-0.000178\H,0,-4.094841,-1.39990
 7,0.00027\H,0,2.209648,2.053669,0.000163\H,0,4.273215,-0.475075,0.0016
 49\H,0,3.081265,-2.397033,-0.001937\\Version=ES64L-G16RevC.01\HF=-558.
 5362813\RMSD=6.141e-09\Dipole=0.8134301,-0.3954524,0.0000198\Quadrupol
 e=9.2537338,0.9121758,-10.1659096,-6.6713661,0.0004744,-0.0009653\PG=U
 nknown\\@
 The archive entry for this job was punched.


 Everywhere is walking distance if you have the time.
                                    -- Steven Wright
 Job cpu time:       0 days  0 hours 57 minutes  7.1 seconds.
 Elapsed time:       0 days  0 hours  3 minutes 42.8 seconds.
 File lengths (MBytes):  RWF=    618 Int=      0 D2E=      0 Chk=     19 Scr=      1
 Normal termination of Gaussian 16 at Wed Apr  9 00:26:16 2025.
 Initial command:
 /arc/software/Gaussian/g16.c01/l1.exe "/tmp/slurm/4853147/Gau-3256637.inp" -scrdir="/tmp/slurm/4853147/"
 Entering Link 1 = /arc/software/Gaussian/g16.c01/l1.exe PID=   3256906.
  
 Copyright (c) 1988-2019, Gaussian, Inc.  All Rights Reserved.
  
 This is part of the Gaussian(R) 16 program.  It is based on
 the Gaussian(R) 09 system (copyright 2009, Gaussian, Inc.),
 the Gaussian(R) 03 system (copyright 2003, Gaussian, Inc.),
 the Gaussian(R) 98 system (copyright 1998, Gaussian, Inc.),
 the Gaussian(R) 94 system (copyright 1995, Gaussian, Inc.),
 the Gaussian 92(TM) system (copyright 1992, Gaussian, Inc.),
 the Gaussian 90(TM) system (copyright 1990, Gaussian, Inc.),
 the Gaussian 88(TM) system (copyright 1988, Gaussian, Inc.),
 the Gaussian 86(TM) system (copyright 1986, Carnegie Mellon
 University), and the Gaussian 82(TM) system (copyright 1983,
 Carnegie Mellon University). Gaussian is a federally registered
 trademark of Gaussian, Inc.
  
 This software contains proprietary and confidential information,
 including trade secrets, belonging to Gaussian, Inc.
  
 This software is provided under written license and may be
 used, copied, transmitted, or stored only in accord with that
 written license.
  
 The following legend is applicable only to US Government
 contracts under FAR:
  
                    RESTRICTED RIGHTS LEGEND
  
 Use, reproduction and disclosure by the US Government is
 subject to restrictions as set forth in subparagraphs (a)
 and (c) of the Commercial Computer Software - Restricted
 Rights clause in FAR 52.227-19.
  
 Gaussian, Inc.
 340 Quinnipiac St., Bldg. 40, Wallingford CT 06492
  
  
 ---------------------------------------------------------------
 Warning -- This program may not be used in any manner that
 competes with the business of Gaussian, Inc. or will provide
 assistance to any competitor of Gaussian, Inc.  The licensee
 of this program is prohibited from giving any competitor of
 Gaussian, Inc. access to this program.  By using this program,
 the user acknowledges that Gaussian, Inc. is engaged in the
 business of creating and licensing software in the field of
 computational chemistry and represents and warrants to the
 licensee that it is not a competitor of Gaussian, Inc. and that
 it will not use this program in any manner prohibited above.
 ---------------------------------------------------------------
  

 Cite this work as:
 Gaussian 16, Revision C.01,
 M. J. Frisch, G. W. Trucks, H. B. Schlegel, G. E. Scuseria, 
 M. A. Robb, J. R. Cheeseman, G. Scalmani, V. Barone, 
 G. A. Petersson, H. Nakatsuji, X. Li, M. Caricato, A. V. Marenich, 
 J. Bloino, B. G. Janesko, R. Gomperts, B. Mennucci, H. P. Hratchian, 
 J. V. Ortiz, A. F. Izmaylov, J. L. Sonnenberg, D. Williams-Young, 
 F. Ding, F. Lipparini, F. Egidi, J. Goings, B. Peng, A. Petrone, 
 T. Henderson, D. Ranasinghe, V. G. Zakrzewski, J. Gao, N. Rega, 
 G. Zheng, W. Liang, M. Hada, M. Ehara, K. Toyota, R. Fukuda, 
 J. Hasegawa, M. Ishida, T. Nakajima, Y. Honda, O. Kitao, H. Nakai, 
 T. Vreven, K. Throssell, J. A. Montgomery, Jr., J. E. Peralta, 
 F. Ogliaro, M. J. Bearpark, J. J. Heyd, E. N. Brothers, K. N. Kudin, 
 V. N. Staroverov, T. A. Keith, R. Kobayashi, J. Normand, 
 K. Raghavachari, A. P. Rendell, J. C. Burant, S. S. Iyengar, 
 J. Tomasi, M. Cossi, J. M. Millam, M. Klene, C. Adamo, R. Cammi, 
 J. W. Ochterski, R. L. Martin, K. Morokuma, O. Farkas, 
 J. B. Foresman, and D. J. Fox, Gaussian, Inc., Wallingford CT, 2019.
 
 ******************************************
 Gaussian 16:  ES64L-G16RevC.01  3-Jul-2019
                 9-Apr-2025 
 ******************************************
 %nprocs=16
 Will use up to   16 processors via shared memory.
 %mem=30GB
 %chk=BDE49_nonexpt_266_mol1.chk
 ----------------------------------------------------------------------
 #t hf aug-cc-pvdz iop(5/13=1,5/36=2,99/5=2) pseudo=read geom=check gue
 ss=(read,tcheck) scf=(maxcycle=1)
 ----------------------------------------------------------------------
 -----
 title
 -----
 Structure from the checkpoint file:  "BDE49_nonexpt_266_mol1.chk"
 Charge =  0 Multiplicity = 1
 Z-Matrix found in chk file.
 C,0,-1.166028,2.146184,-0.0003
 C,0,0.128048,2.59984,-0.000216
 C,0,-1.446187,0.756274,-0.000117
 C,0,-0.362193,-0.185521,0.000039
 C,0,0.992891,0.304365,0.00008
 C,0,1.193715,1.677699,0.000025
 H,0,0.337531,3.663801,-0.000338
 B,0,2.289906,-0.579557,0.000002
 O,0,2.228655,-1.953048,-0.001075
 O,0,3.493825,0.086083,0.000837
 H,0,-1.997059,2.844596,-0.000489
 C,0,-2.786706,0.288929,-0.000052
 C,0,-3.06719,-1.053909,0.000196
 C,0,-2.007857,-1.98716,0.000367
 C,0,-0.698096,-1.568381,0.000283
 H,0,-2.230434,-3.048779,0.000576
 H,0,0.09831,-2.297124,0.000361
 H,0,-3.589392,1.019446,-0.000178
 H,0,-4.094841,-1.399907,0.00027
 H,0,2.209648,2.053669,0.000163
 H,0,4.273215,-0.475075,0.001649
 H,0,3.081265,-2.397033,-0.001937
 Recover connectivity data from disk.
                    Distance matrix (angstroms):
                    1          2          3          4          5
     1  C    0.000000
     2  C    1.371290   0.000000
     3  C    1.417864   2.424242   0.000000
     4  C    2.466374   2.828175   1.435974   0.000000
     5  C    2.837821   2.452990   2.480589   1.440917   0.000000
     6  C    2.405798   1.409252   2.796088   2.427435   1.387940
     7  H    2.136317   1.084387   3.411065   3.912403   3.422763
     8  B    4.401493   3.844762   3.967724   2.681211   1.569575
     9  O    5.322366   5.014114   4.565620   3.136343   2.573524
    10  O    5.094924   4.200884   4.985266   3.865572   2.510442
    11  H    1.085538   2.139155   2.159757   3.443021   3.923337
    12  C    2.464953   3.719691   1.419649   2.470499   3.779629
    13  C    3.722232   4.853805   2.429900   2.840969   4.281258
    14  C    4.218200   5.059907   2.800340   2.440105   3.775656
    15  C    3.743922   4.249304   2.442061   1.423072   2.523215
    16  H    5.302886   6.121220   3.885032   3.418855   4.651172
    17  H    4.619690   4.897054   3.421799   2.161234   2.751004
    18  H    2.672495   4.039431   2.159302   3.444816   4.637743
    19  H    4.599207   5.816422   3.415331   3.925225   5.365590
    20  H    3.376944   2.152060   3.879222   3.410035   2.130859
    21  H    6.037911   5.161154   5.850451   4.644443   3.371655
    22  H    6.219351   5.804329   5.517352   4.092456   3.414507
                    6          7          8          9         10
     6  C    0.000000
     7  H    2.162788   0.000000
     8  B    2.509350   4.670959   0.000000
     9  O    3.775371   5.926664   1.374856   0.000000
    10  O    2.797096   4.770981   1.375681   2.399732   0.000000
    11  H    3.397453   2.474148   5.486610   6.393281   6.144852
    12  C    4.215736   4.598980   5.150365   5.493661   6.283806
    13  C    5.061323   5.817982   5.378056   5.371632   6.659317
    14  C    4.866339   6.118350   4.522401   4.236650   5.879357
    15  C    3.757124   5.333690   3.147369   2.951922   4.506601
    16  H    5.836471   7.187014   5.150780   4.591743   6.526446
    17  H    4.123000   5.965723   2.784444   2.157953   4.148397
    18  H    4.828189   4.734273   6.092861   6.533406   7.144448
    19  H    6.118863   6.729566   6.437233   6.347643   7.732789
    20  H    1.083270   2.469281   2.634449   4.006762   2.349576
    21  H    3.757361   5.711384   1.986060   2.522823   0.960389
    22  H    4.490689   6.652953   1.982290   0.961284   2.517157
                   11         12         13         14         15
    11  H    0.000000
    12  C    2.674879   0.000000
    13  C    4.042712   1.371818   0.000000
    14  C    4.831768   2.405657   1.411787   0.000000
    15  C    4.600182   2.794976   2.424312   1.375082   0.000000
    16  H    5.897994   3.383746   2.163254   1.084701   2.130643
    17  H    5.552284   3.874402   3.400878   2.128853   1.079504
    18  H    2.422127   1.085339   2.138106   3.397195   3.880263
    19  H    4.734606   2.136208   1.084334   2.168033   3.400920
    20  H    4.280415   5.298855   6.123893   5.840860   4.644806
    21  H    7.094826   7.101140   7.363192   6.460516   5.090113
    22  H    7.298222   6.453486   6.293448   5.105601   3.869139
                   16         17         18         19         20
    16  H    0.000000
    17  H    2.447046   0.000000
    18  H    4.289198   4.959716   0.000000
    19  H    2.488934   4.288066   2.471588   0.000000
    20  H    6.763823   4.836026   5.890542   7.188447   0.000000
    21  H    6.994384   4.555183   8.003386   8.419007   3.263872
    22  H    5.351535   2.984629   7.494665   7.245051   4.535247
                   21         22
    21  H    0.000000
    22  H    2.261566   0.000000
 Framework group  C1[X(C10H9BO2)]
 Deg. of freedom    60
                         Standard orientation:                         
 ---------------------------------------------------------------------
 Center     Atomic      Atomic             Coordinates (Angstroms)
 Number     Number       Type             X           Y           Z
 ---------------------------------------------------------------------
      1          6           0        1.166028    2.146184    0.000300
      2          6           0       -0.128048    2.599840    0.000216
      3          6           0        1.446187    0.756274    0.000117
      4          6           0        0.362193   -0.185521   -0.000039
      5          6           0       -0.992891    0.304365   -0.000080
      6          6           0       -1.193715    1.677699   -0.000025
      7          1           0       -0.337531    3.663801    0.000338
      8          5           0       -2.289906   -0.579557   -0.000002
      9          8           0       -2.228655   -1.953048    0.001075
     10          8           0       -3.493825    0.086082   -0.000837
     11          1           0        1.997059    2.844596    0.000489
     12          6           0        2.786706    0.288929    0.000052
     13          6           0        3.067190   -1.053909   -0.000196
     14          6           0        2.007857   -1.987160   -0.000367
     15          6           0        0.698096   -1.568381   -0.000283
     16          1           0        2.230434   -3.048779   -0.000576
     17          1           0       -0.098310   -2.297124   -0.000361
     18          1           0        3.589392    1.019446    0.000178
     19          1           0        4.094841   -1.399907   -0.000270
     20          1           0       -2.209648    2.053669   -0.000163
     21          1           0       -4.273215   -0.475076   -0.001649
     22          1           0       -3.081265   -2.397033    0.001937
 ---------------------------------------------------------------------
 Rotational constants (GHZ):           1.3151783           0.6860274           0.4508524
 ======================================================================================================
                                       Pseudopotential Parameters
 ======================================================================================================
  Center     Atomic      Valence      Angular      Power
  Number     Number     Electrons     Momentum     of R      Exponent        Coefficient   SO-Coeffient
 ======================================================================================================
    1          6            6
                                      G and up 
                                                     0        0.0000010       -0.00007288    0.00000000
                                                     2        0.1200000        0.10466671    0.00000000
                                                     2        0.1400000       -0.65716157    0.00000000
                                                     2        0.1600000        1.18890794    0.00000000
                                                     2        0.2000000       -1.25772850    0.00000000
                                                     2        0.2600000        1.01188378    0.00000000
                                                     2        0.4000000       -1.09380874    0.00000000
                                                     2        0.5000000        0.96944888    0.00000000
                                                     2        1.0000000       -0.79256938    0.00000000
                                                     2        3.0000000        1.06443276    0.00000000
                                      S - G
                                                     0        0.0000010       -0.00635295    0.00000000
                                                     2        0.1200000        0.16918955    0.00000000
                                                     2        0.1600000       -0.38862576    0.00000000
                                                     2        0.2800000        0.25638263    0.00000000
                                                     2        0.5000000        0.29628419    0.00000000
                                                     2        0.9000000       -0.28791512    0.00000000
                                      P - G
                                                     0        0.0000010       -0.04756931    0.00000000
                                                     2        0.1200000        0.28430375    0.00000000
                                                     2        0.1600000       -0.69640032    0.00000000
                                                     2        0.2600000        1.13005668    0.00000000
                                                     2        0.4000000       -1.31433324    0.00000000
                                                     2        0.7000000        0.91526469    0.00000000
                                      D - G
                                                     0        0.0000010       -0.11496411    0.00000000
                                                     2        0.1200000        0.16620776    0.00000000
                                                     2        0.1800000       -0.30959819    0.00000000
                                                     2        0.3000000        0.16621458    0.00000000
                                                     2        0.6000000        0.27350556    0.00000000
                                      F - G
                                                     0        0.0000010        0.12037550    0.00000000
                                                     2        0.1200000       -0.48737077    0.00000000
                                                     2        0.1400000        0.58315350    0.00000000
                                                     2        0.3000000        0.00005188    0.00000000
                                                     2        0.5000000       -1.16063549    0.00000000
                                                     2        0.8000000        2.09053308    0.00000000
    2          6            6
                                      G and up 
                                                     0        0.0000010       -0.00007288    0.00000000
                                                     2        0.1200000        0.10466671    0.00000000
                                                     2        0.1400000       -0.65716157    0.00000000
                                                     2        0.1600000        1.18890794    0.00000000
                                                     2        0.2000000       -1.25772850    0.00000000
                                                     2        0.2600000        1.01188378    0.00000000
                                                     2        0.4000000       -1.09380874    0.00000000
                                                     2        0.5000000        0.96944888    0.00000000
                                                     2        1.0000000       -0.79256938    0.00000000
                                                     2        3.0000000        1.06443276    0.00000000
                                      S - G
                                                     0        0.0000010       -0.00635295    0.00000000
                                                     2        0.1200000        0.16918955    0.00000000
                                                     2        0.1600000       -0.38862576    0.00000000
                                                     2        0.2800000        0.25638263    0.00000000
                                                     2        0.5000000        0.29628419    0.00000000
                                                     2        0.9000000       -0.28791512    0.00000000
                                      P - G
                                                     0        0.0000010       -0.04756931    0.00000000
                                                     2        0.1200000        0.28430375    0.00000000
                                                     2        0.1600000       -0.69640032    0.00000000
                                                     2        0.2600000        1.13005668    0.00000000
                                                     2        0.4000000       -1.31433324    0.00000000
                                                     2        0.7000000        0.91526469    0.00000000
                                      D - G
                                                     0        0.0000010       -0.11496411    0.00000000
                                                     2        0.1200000        0.16620776    0.00000000
                                                     2        0.1800000       -0.30959819    0.00000000
                                                     2        0.3000000        0.16621458    0.00000000
                                                     2        0.6000000        0.27350556    0.00000000
                                      F - G
                                                     0        0.0000010        0.12037550    0.00000000
                                                     2        0.1200000       -0.48737077    0.00000000
                                                     2        0.1400000        0.58315350    0.00000000
                                                     2        0.3000000        0.00005188    0.00000000
                                                     2        0.5000000       -1.16063549    0.00000000
                                                     2        0.8000000        2.09053308    0.00000000
    3          6            6
                                      G and up 
                                                     0        0.0000010       -0.00007288    0.00000000
                                                     2        0.1200000        0.10466671    0.00000000
                                                     2        0.1400000       -0.65716157    0.00000000
                                                     2        0.1600000        1.18890794    0.00000000
                                                     2        0.2000000       -1.25772850    0.00000000
                                                     2        0.2600000        1.01188378    0.00000000
                                                     2        0.4000000       -1.09380874    0.00000000
                                                     2        0.5000000        0.96944888    0.00000000
                                                     2        1.0000000       -0.79256938    0.00000000
                                                     2        3.0000000        1.06443276    0.00000000
                                      S - G
                                                     0        0.0000010       -0.00635295    0.00000000
                                                     2        0.1200000        0.16918955    0.00000000
                                                     2        0.1600000       -0.38862576    0.00000000
                                                     2        0.2800000        0.25638263    0.00000000
                                                     2        0.5000000        0.29628419    0.00000000
                                                     2        0.9000000       -0.28791512    0.00000000
                                      P - G
                                                     0        0.0000010       -0.04756931    0.00000000
                                                     2        0.1200000        0.28430375    0.00000000
                                                     2        0.1600000       -0.69640032    0.00000000
                                                     2        0.2600000        1.13005668    0.00000000
                                                     2        0.4000000       -1.31433324    0.00000000
                                                     2        0.7000000        0.91526469    0.00000000
                                      D - G
                                                     0        0.0000010       -0.11496411    0.00000000
                                                     2        0.1200000        0.16620776    0.00000000
                                                     2        0.1800000       -0.30959819    0.00000000
                                                     2        0.3000000        0.16621458    0.00000000
                                                     2        0.6000000        0.27350556    0.00000000
                                      F - G
                                                     0        0.0000010        0.12037550    0.00000000
                                                     2        0.1200000       -0.48737077    0.00000000
                                                     2        0.1400000        0.58315350    0.00000000
                                                     2        0.3000000        0.00005188    0.00000000
                                                     2        0.5000000       -1.16063549    0.00000000
                                                     2        0.8000000        2.09053308    0.00000000
    4          6            6
                                      G and up 
                                                     0        0.0000010       -0.00007288    0.00000000
                                                     2        0.1200000        0.10466671    0.00000000
                                                     2        0.1400000       -0.65716157    0.00000000
                                                     2        0.1600000        1.18890794    0.00000000
                                                     2        0.2000000       -1.25772850    0.00000000
                                                     2        0.2600000        1.01188378    0.00000000
                                                     2        0.4000000       -1.09380874    0.00000000
                                                     2        0.5000000        0.96944888    0.00000000
                                                     2        1.0000000       -0.79256938    0.00000000
                                                     2        3.0000000        1.06443276    0.00000000
                                      S - G
                                                     0        0.0000010       -0.00635295    0.00000000
                                                     2        0.1200000        0.16918955    0.00000000
                                                     2        0.1600000       -0.38862576    0.00000000
                                                     2        0.2800000        0.25638263    0.00000000
                                                     2        0.5000000        0.29628419    0.00000000
                                                     2        0.9000000       -0.28791512    0.00000000
                                      P - G
                                                     0        0.0000010       -0.04756931    0.00000000
                                                     2        0.1200000        0.28430375    0.00000000
                                                     2        0.1600000       -0.69640032    0.00000000
                                                     2        0.2600000        1.13005668    0.00000000
                                                     2        0.4000000       -1.31433324    0.00000000
                                                     2        0.7000000        0.91526469    0.00000000
                                      D - G
                                                     0        0.0000010       -0.11496411    0.00000000
                                                     2        0.1200000        0.16620776    0.00000000
                                                     2        0.1800000       -0.30959819    0.00000000
                                                     2        0.3000000        0.16621458    0.00000000
                                                     2        0.6000000        0.27350556    0.00000000
                                      F - G
                                                     0        0.0000010        0.12037550    0.00000000
                                                     2        0.1200000       -0.48737077    0.00000000
                                                     2        0.1400000        0.58315350    0.00000000
                                                     2        0.3000000        0.00005188    0.00000000
                                                     2        0.5000000       -1.16063549    0.00000000
                                                     2        0.8000000        2.09053308    0.00000000
    5          6            6
                                      G and up 
                                                     0        0.0000010       -0.00007288    0.00000000
                                                     2        0.1200000        0.10466671    0.00000000
                                                     2        0.1400000       -0.65716157    0.00000000
                                                     2        0.1600000        1.18890794    0.00000000
                                                     2        0.2000000       -1.25772850    0.00000000
                                                     2        0.2600000        1.01188378    0.00000000
                                                     2        0.4000000       -1.09380874    0.00000000
                                                     2        0.5000000        0.96944888    0.00000000
                                                     2        1.0000000       -0.79256938    0.00000000
                                                     2        3.0000000        1.06443276    0.00000000
                                      S - G
                                                     0        0.0000010       -0.00635295    0.00000000
                                                     2        0.1200000        0.16918955    0.00000000
                                                     2        0.1600000       -0.38862576    0.00000000
                                                     2        0.2800000        0.25638263    0.00000000
                                                     2        0.5000000        0.29628419    0.00000000
                                                     2        0.9000000       -0.28791512    0.00000000
                                      P - G
                                                     0        0.0000010       -0.04756931    0.00000000
                                                     2        0.1200000        0.28430375    0.00000000
                                                     2        0.1600000       -0.69640032    0.00000000
                                                     2        0.2600000        1.13005668    0.00000000
                                                     2        0.4000000       -1.31433324    0.00000000
                                                     2        0.7000000        0.91526469    0.00000000
                                      D - G
                                                     0        0.0000010       -0.11496411    0.00000000
                                                     2        0.1200000        0.16620776    0.00000000
                                                     2        0.1800000       -0.30959819    0.00000000
                                                     2        0.3000000        0.16621458    0.00000000
                                                     2        0.6000000        0.27350556    0.00000000
                                      F - G
                                                     0        0.0000010        0.12037550    0.00000000
                                                     2        0.1200000       -0.48737077    0.00000000
                                                     2        0.1400000        0.58315350    0.00000000
                                                     2        0.3000000        0.00005188    0.00000000
                                                     2        0.5000000       -1.16063549    0.00000000
                                                     2        0.8000000        2.09053308    0.00000000
    6          6            6
                                      G and up 
                                                     0        0.0000010       -0.00007288    0.00000000
                                                     2        0.1200000        0.10466671    0.00000000
                                                     2        0.1400000       -0.65716157    0.00000000
                                                     2        0.1600000        1.18890794    0.00000000
                                                     2        0.2000000       -1.25772850    0.00000000
                                                     2        0.2600000        1.01188378    0.00000000
                                                     2        0.4000000       -1.09380874    0.00000000
                                                     2        0.5000000        0.96944888    0.00000000
                                                     2        1.0000000       -0.79256938    0.00000000
                                                     2        3.0000000        1.06443276    0.00000000
                                      S - G
                                                     0        0.0000010       -0.00635295    0.00000000
                                                     2        0.1200000        0.16918955    0.00000000
                                                     2        0.1600000       -0.38862576    0.00000000
                                                     2        0.2800000        0.25638263    0.00000000
                                                     2        0.5000000        0.29628419    0.00000000
                                                     2        0.9000000       -0.28791512    0.00000000
                                      P - G
                                                     0        0.0000010       -0.04756931    0.00000000
                                                     2        0.1200000        0.28430375    0.00000000
                                                     2        0.1600000       -0.69640032    0.00000000
                                                     2        0.2600000        1.13005668    0.00000000
                                                     2        0.4000000       -1.31433324    0.00000000
                                                     2        0.7000000        0.91526469    0.00000000
                                      D - G
                                                     0        0.0000010       -0.11496411    0.00000000
                                                     2        0.1200000        0.16620776    0.00000000
                                                     2        0.1800000       -0.30959819    0.00000000
                                                     2        0.3000000        0.16621458    0.00000000
                                                     2        0.6000000        0.27350556    0.00000000
                                      F - G
                                                     0        0.0000010        0.12037550    0.00000000
                                                     2        0.1200000       -0.48737077    0.00000000
                                                     2        0.1400000        0.58315350    0.00000000
                                                     2        0.3000000        0.00005188    0.00000000
                                                     2        0.5000000       -1.16063549    0.00000000
                                                     2        0.8000000        2.09053308    0.00000000
    7          1            1
                                      F and up 
                                                     0        0.0000010       -0.00007675    0.00000000
                                                     2        0.1200000        0.05352699    0.00000000
                                                     2        0.1400000       -0.25123645    0.00000000
                                                     2        0.1600000        0.32188106    0.00000000
                                                     2        0.2200000       -0.25206857    0.00000000
                                                     2        0.3000000        0.19290477    0.00000000
                                                     2        0.5000000       -0.10129770    0.00000000
                                                     2        0.9000000        0.00314995    0.00000000
                                                     2        1.5000000        0.18401192    0.00000000
                                      S - F
                                                     0        0.0000010        0.08065976    0.00000000
                                                     2        0.1200000       -0.09231673    0.00000000
                                                     2        0.1600000       -0.03278082    0.00000000
                                                     2        0.2800000        0.38423402    0.00000000
                                                     2        0.6000000       -1.09357590    0.00000000
                                                     2        1.1000000        1.53099489    0.00000000
                                                     2        3.0000000       -2.63300202    0.00000000
                                      P - F
                                                     0        0.0000010       -0.11638665    0.00000000
                                                     2        0.1200000        0.35468655    0.00000000
                                                     2        0.1600000       -0.59160923    0.00000000
                                                     2        0.3000000        0.49390547    0.00000000
                                                     2        0.6000000       -0.37949835    0.00000000
                                                     2        1.6000000        0.89304688    0.00000000
                                      D - F
                                                     0        0.0000010        0.05443663    0.00000000
                                                     2        0.1200000       -0.29679479    0.00000000
                                                     2        0.1400000        0.36849872    0.00000000
                                                     2        0.2400000        0.02793449    0.00000000
                                                     2        0.4000000       -0.46312857    0.00000000
                                                     2        0.7000000        0.97587598    0.00000000
                                                     2        1.5000000       -2.43431102    0.00000000
    8          5            5
                                      G and up 
                                                     0        0.0000010        0.00020763    0.00000000
                                                     2        0.1200000        0.03067755    0.00000000
                                                     2        0.1400000       -0.06903562    0.00000000
                                                     2        0.2200000        0.20686977    0.00000000
                                                     2        0.2800000       -0.28012699    0.00000000
                                                     2        0.4000000        0.15289287    0.00000000
                                                     2        0.9000000        0.23777548    0.00000000
                                      S - G
                                                     0        0.0000010       -0.01460145    0.00000000
                                                     2        0.1200000        0.61520407    0.00000000
                                                     2        0.1600000       -1.40324983    0.00000000
                                                     2        0.2600000        1.13743336    0.00000000
                                                     2        0.7000000       -0.82121849    0.00000000
                                                     2        3.0000000        1.14340087    0.00000000
                                      P - G
                                                     0        0.0000010       -0.15206468    0.00000000
                                                     2        0.1200000        0.05342385    0.00000000
                                                     2        0.1800000       -0.02150831    0.00000000
                                                     2        0.4000000       -0.11023892    0.00000000
                                                     2        1.0000000        0.38415171    0.00000000
                                      D - G
                                                     0        0.0000010        0.03877889    0.00000000
                                                     2        0.1200000        0.15497678    0.00000000
                                                     2        0.2000000       -0.61843740    0.00000000
                                                     2        0.4000000        1.25619759    0.00000000
                                                     2        0.8000000       -1.68748014    0.00000000
                                      F - G
                                                     0        0.0000010        0.04196027    0.00000000
                                                     2        0.1200000       -0.20480821    0.00000000
                                                     2        0.1600000        0.27131339    0.00000000
                                                     2        0.2400000        0.24945984    0.00000000
                                                     2        0.5000000       -1.37105438    0.00000000
    9          8            8
                                      G and up 
                                                     0        0.0000010        0.00049668    0.00000000
                                                     2        0.1200000       -0.01803391    0.00000000
                                                     2        0.1400000        0.04014195    0.00000000
                                                     2        0.2000000       -0.02692147    0.00000000
                                                     2        0.2800000       -0.04241843    0.00000000
                                                     2        0.4000000        0.15412145    0.00000000
                                                     2        0.7000000       -0.40587006    0.00000000
                                                     2        1.1000000        1.75666647    0.00000000
                                      S - G
                                                     0        0.0000010       -0.01088195    0.00000000
                                                     2        0.1200000        0.09867335    0.00000000
                                                     2        0.2400000       -0.08484177    0.00000000
                                                     2        0.6000000       -1.39011554    0.00000000
                                                     2        2.5000000        1.36225910    0.00000000
                                      P - G
                                                     0        0.0000010        0.05874028    0.00000000
                                                     2        0.1200000       -0.11700340    0.00000000
                                                     2        0.1600000        0.08847775    0.00000000
                                                     2        0.3000000        0.04709907    0.00000000
                                                     2        1.2000000       -1.80388338    0.00000000
                                      D - G
                                                     0        0.0000010       -0.00541262    0.00000000
                                                     2        0.1200000       -0.26547906    0.00000000
                                                     2        0.1600000        1.04289661    0.00000000
                                                     2        0.2400000       -1.92800913    0.00000000
                                                     2        0.4000000        2.26691633    0.00000000
                                                     2        0.7000000       -1.97391482    0.00000000
                                      F - G
                                                     0        0.0000010       -0.02604870    0.00000000
                                                     2        0.1200000        0.37362552    0.00000000
                                                     2        0.1600000       -1.43526367    0.00000000
                                                     2        0.2200000        1.76778079    0.00000000
                                                     2        0.5000000       -1.90846303    0.00000000
   10          8            8
                                      G and up 
                                                     0        0.0000010        0.00049668    0.00000000
                                                     2        0.1200000       -0.01803391    0.00000000
                                                     2        0.1400000        0.04014195    0.00000000
                                                     2        0.2000000       -0.02692147    0.00000000
                                                     2        0.2800000       -0.04241843    0.00000000
                                                     2        0.4000000        0.15412145    0.00000000
                                                     2        0.7000000       -0.40587006    0.00000000
                                                     2        1.1000000        1.75666647    0.00000000
                                      S - G
                                                     0        0.0000010       -0.01088195    0.00000000
                                                     2        0.1200000        0.09867335    0.00000000
                                                     2        0.2400000       -0.08484177    0.00000000
                                                     2        0.6000000       -1.39011554    0.00000000
                                                     2        2.5000000        1.36225910    0.00000000
                                      P - G
                                                     0        0.0000010        0.05874028    0.00000000
                                                     2        0.1200000       -0.11700340    0.00000000
                                                     2        0.1600000        0.08847775    0.00000000
                                                     2        0.3000000        0.04709907    0.00000000
                                                     2        1.2000000       -1.80388338    0.00000000
                                      D - G
                                                     0        0.0000010       -0.00541262    0.00000000
                                                     2        0.1200000       -0.26547906    0.00000000
                                                     2        0.1600000        1.04289661    0.00000000
                                                     2        0.2400000       -1.92800913    0.00000000
                                                     2        0.4000000        2.26691633    0.00000000
                                                     2        0.7000000       -1.97391482    0.00000000
                                      F - G
                                                     0        0.0000010       -0.02604870    0.00000000
                                                     2        0.1200000        0.37362552    0.00000000
                                                     2        0.1600000       -1.43526367    0.00000000
                                                     2        0.2200000        1.76778079    0.00000000
                                                     2        0.5000000       -1.90846303    0.00000000
   11          1            1
                                      F and up 
                                                     0        0.0000010       -0.00007675    0.00000000
                                                     2        0.1200000        0.05352699    0.00000000
                                                     2        0.1400000       -0.25123645    0.00000000
                                                     2        0.1600000        0.32188106    0.00000000
                                                     2        0.2200000       -0.25206857    0.00000000
                                                     2        0.3000000        0.19290477    0.00000000
                                                     2        0.5000000       -0.10129770    0.00000000
                                                     2        0.9000000        0.00314995    0.00000000
                                                     2        1.5000000        0.18401192    0.00000000
                                      S - F
                                                     0        0.0000010        0.08065976    0.00000000
                                                     2        0.1200000       -0.09231673    0.00000000
                                                     2        0.1600000       -0.03278082    0.00000000
                                                     2        0.2800000        0.38423402    0.00000000
                                                     2        0.6000000       -1.09357590    0.00000000
                                                     2        1.1000000        1.53099489    0.00000000
                                                     2        3.0000000       -2.63300202    0.00000000
                                      P - F
                                                     0        0.0000010       -0.11638665    0.00000000
                                                     2        0.1200000        0.35468655    0.00000000
                                                     2        0.1600000       -0.59160923    0.00000000
                                                     2        0.3000000        0.49390547    0.00000000
                                                     2        0.6000000       -0.37949835    0.00000000
                                                     2        1.6000000        0.89304688    0.00000000
                                      D - F
                                                     0        0.0000010        0.05443663    0.00000000
                                                     2        0.1200000       -0.29679479    0.00000000
                                                     2        0.1400000        0.36849872    0.00000000
                                                     2        0.2400000        0.02793449    0.00000000
                                                     2        0.4000000       -0.46312857    0.00000000
                                                     2        0.7000000        0.97587598    0.00000000
                                                     2        1.5000000       -2.43431102    0.00000000
   12          6            6
                                      G and up 
                                                     0        0.0000010       -0.00007288    0.00000000
                                                     2        0.1200000        0.10466671    0.00000000
                                                     2        0.1400000       -0.65716157    0.00000000
                                                     2        0.1600000        1.18890794    0.00000000
                                                     2        0.2000000       -1.25772850    0.00000000
                                                     2        0.2600000        1.01188378    0.00000000
                                                     2        0.4000000       -1.09380874    0.00000000
                                                     2        0.5000000        0.96944888    0.00000000
                                                     2        1.0000000       -0.79256938    0.00000000
                                                     2        3.0000000        1.06443276    0.00000000
                                      S - G
                                                     0        0.0000010       -0.00635295    0.00000000
                                                     2        0.1200000        0.16918955    0.00000000
                                                     2        0.1600000       -0.38862576    0.00000000
                                                     2        0.2800000        0.25638263    0.00000000
                                                     2        0.5000000        0.29628419    0.00000000
                                                     2        0.9000000       -0.28791512    0.00000000
                                      P - G
                                                     0        0.0000010       -0.04756931    0.00000000
                                                     2        0.1200000        0.28430375    0.00000000
                                                     2        0.1600000       -0.69640032    0.00000000
[...]
                                                     2        3.0000000       -2.63300202    0.00000000
                                      P - F
                                                     0        0.0000010       -0.11638665    0.00000000
                                                     2        0.1200000        0.35468655    0.00000000
                                                     2        0.1600000       -0.59160923    0.00000000
                                                     2        0.3000000        0.49390547    0.00000000
                                                     2        0.6000000       -0.37949835    0.00000000
                                                     2        1.6000000        0.89304688    0.00000000
                                      D - F
                                                     0        0.0000010        0.05443663    0.00000000
                                                     2        0.1200000       -0.29679479    0.00000000
                                                     2        0.1400000        0.36849872    0.00000000
                                                     2        0.2400000        0.02793449    0.00000000
                                                     2        0.4000000       -0.46312857    0.00000000
                                                     2        0.7000000        0.97587598    0.00000000
                                                     2        1.5000000       -2.43431102    0.00000000
   21          1            1
                                      F and up 
                                                     0        0.0000010       -0.00007675    0.00000000
                                                     2        0.1200000        0.05352699    0.00000000
                                                     2        0.1400000       -0.25123645    0.00000000
                                                     2        0.1600000        0.32188106    0.00000000
                                                     2        0.2200000       -0.25206857    0.00000000
                                                     2        0.3000000        0.19290477    0.00000000
                                                     2        0.5000000       -0.10129770    0.00000000
                                                     2        0.9000000        0.00314995    0.00000000
                                                     2        1.5000000        0.18401192    0.00000000
                                      S - F
                                                     0        0.0000010        0.08065976    0.00000000
                                                     2        0.1200000       -0.09231673    0.00000000
                                                     2        0.1600000       -0.03278082    0.00000000
                                                     2        0.2800000        0.38423402    0.00000000
                                                     2        0.6000000       -1.09357590    0.00000000
                                                     2        1.1000000        1.53099489    0.00000000
                                                     2        3.0000000       -2.63300202    0.00000000
                                      P - F
                                                     0        0.0000010       -0.11638665    0.00000000
                                                     2        0.1200000        0.35468655    0.00000000
                                                     2        0.1600000       -0.59160923    0.00000000
                                                     2        0.3000000        0.49390547    0.00000000
                                                     2        0.6000000       -0.37949835    0.00000000
                                                     2        1.6000000        0.89304688    0.00000000
                                      D - F
                                                     0        0.0000010        0.05443663    0.00000000
                                                     2        0.1200000       -0.29679479    0.00000000
                                                     2        0.1400000        0.36849872    0.00000000
                                                     2        0.2400000        0.02793449    0.00000000
                                                     2        0.4000000       -0.46312857    0.00000000
                                                     2        0.7000000        0.97587598    0.00000000
                                                     2        1.5000000       -2.43431102    0.00000000
   22          1            1
                                      F and up 
                                                     0        0.0000010       -0.00007675    0.00000000
                                                     2        0.1200000        0.05352699    0.00000000
                                                     2        0.1400000       -0.25123645    0.00000000
                                                     2        0.1600000        0.32188106    0.00000000
                                                     2        0.2200000       -0.25206857    0.00000000
                                                     2        0.3000000        0.19290477    0.00000000
                                                     2        0.5000000       -0.10129770    0.00000000
                                                     2        0.9000000        0.00314995    0.00000000
                                                     2        1.5000000        0.18401192    0.00000000
                                      S - F
                                                     0        0.0000010        0.08065976    0.00000000
                                                     2        0.1200000       -0.09231673    0.00000000
                                                     2        0.1600000       -0.03278082    0.00000000
                                                     2        0.2800000        0.38423402    0.00000000
                                                     2        0.6000000       -1.09357590    0.00000000
                                                     2        1.1000000        1.53099489    0.00000000
                                                     2        3.0000000       -2.63300202    0.00000000
                                      P - F
                                                     0        0.0000010       -0.11638665    0.00000000
                                                     2        0.1200000        0.35468655    0.00000000
                                                     2        0.1600000       -0.59160923    0.00000000
                                                     2        0.3000000        0.49390547    0.00000000
                                                     2        0.6000000       -0.37949835    0.00000000
                                                     2        1.6000000        0.89304688    0.00000000
                                      D - F
                                                     0        0.0000010        0.05443663    0.00000000
                                                     2        0.1200000       -0.29679479    0.00000000
                                                     2        0.1400000        0.36849872    0.00000000
                                                     2        0.2400000        0.02793449    0.00000000
                                                     2        0.4000000       -0.46312857    0.00000000
                                                     2        0.7000000        0.97587598    0.00000000
                                                     2        1.5000000       -2.43431102    0.00000000
 ======================================================================================================
   380 basis functions,   658 primitive gaussians,   406 cartesian basis functions
    45 alpha electrons       45 beta electrons
       nuclear repulsion energy       708.0771720775 Hartrees.
 NAtoms=   22 NActive=   22 NUniq=   22 SFac= 1.00D+00 NAtFMM=   60 NAOKFM=F Big=F
   1 Symmetry operations used in ECPInt.
 ECPInt:  NShTT=   13203 NPrTT=   66315 LenC2=   13042 LenP2D=   46257.
 LDataN:  DoStor=T MaxTD1= 6 Len=  172
 Initial guess from the checkpoint file:  "BDE49_nonexpt_266_mol1.chk"
 B after Tr=    -0.000000   -0.000000    0.000000
         Rot=    0.000000   -0.000000    1.000000    0.000000 Ang=-180.00 deg.
 >>>>>>>>>> Convergence criterion not met.
 SCF Done:  E(RHF) =  -559.099252105     A.U. after    2 cycles
            NFock=  1  Conv=0.13D+00     -V/T= 2.0008

 **********************************************************************

            Population analysis using the SCF Density.

 **********************************************************************

 Orbital symmetries:
       Occupied  (A) (A) (A) (A) (A) (A) (A) (A) (A) (A) (A) (A)
                 (A) (A) (A) (A) (A) (A) (A) (A) (A) (A) (A) (A)
                 (A) (A) (A) (A) (A) (A) (A) (A) (A) (A) (A) (A)
                 (A) (A) (A) (A) (A) (A) (A) (A) (A)
       Virtual   (A) (A) (A) (A) (A) (A) (A) (A) (A) (A) (A) (A)
                 (A) (A) (A) (A) (A) (A) (A) (A) (A) (A) (A) (A)
                 (A) (A) (A) (A) (A) (A) (A) (A) (A) (A) (A) (A)
                 (A) (A) (A) (A) (A) (A) (A) (A) (A) (A) (A) (A)
                 (A) (A) (A) (A) (A) (A) (A) (A) (A) (A) (A) (A)
                 (A) (A) (A) (A) (A) (A) (A) (A) (A) (A) (A) (A)
                 (A) (A) (A) (A) (A) (A) (A) (A) (A) (A) (A) (A)
                 (A) (A) (A) (A) (A) (A) (A) (A) (A) (A) (A) (A)
                 (A) (A) (A) (A) (A) (A) (A) (A) (A) (A) (A) (A)
                 (A) (A) (A) (A) (A) (A) (A) (A) (A) (A) (A) (A)
                 (A) (A) (A) (A) (A) (A) (A) (A) (A) (A) (A) (A)
                 (A) (A) (A) (A) (A) (A) (A) (A) (A) (A) (A) (A)
                 (A) (A) (A) (A) (A) (A) (A) (A) (A) (A) (A) (A)
                 (A) (A) (A) (A) (A) (A) (A) (A) (A) (A) (A) (A)
                 (A) (A) (A) (A) (A) (A) (A) (A) (A) (A) (A) (A)
                 (A) (A) (A) (A) (A) (A) (A) (A) (A) (A) (A) (A)
                 (A) (A) (A) (A) (A) (A) (A) (A) (A) (A) (A) (A)
                 (A) (A) (A) (A) (A) (A) (A) (A) (A) (A) (A) (A)
                 (A) (A) (A) (A) (A) (A) (A) (A) (A) (A) (A) (A)
                 (A) (A) (A) (A) (A) (A) (A) (A) (A) (A) (A) (A)
                 (A) (A) (A) (A) (A) (A) (A) (A) (A) (A) (A) (A)
                 (A) (A) (A) (A) (A) (A) (A) (A) (A) (A) (A) (A)
                 (A) (A) (A) (A) (A) (A) (A) (A) (A) (A) (A) (A)
                 (A) (A) (A) (A) (A) (A) (A) (A) (A) (A) (A) (A)
                 (A) (A) (A) (A) (A) (A) (A) (A) (A) (A) (A) (A)
                 (A) (A) (A) (A) (A) (A) (A) (A) (A) (A) (A) (A)
                 (A) (A) (A) (A) (A) (A) (A) (A) (A) (A) (A) (A)
                 (A) (A) (A) (A) (A) (A) (A) (A) (A)
 The electronic state is 1-A.
 Alpha  occ. eigenvalues --  -20.56606 -20.56222 -11.24796 -11.24563 -11.24234
 Alpha  occ. eigenvalues --  -11.24114 -11.23820 -11.23619 -11.23612 -11.23549
 Alpha  occ. eigenvalues --  -11.22866 -11.21946  -7.64972  -1.48861  -1.44500
 Alpha  occ. eigenvalues --   -1.16930  -1.10465  -1.04384  -1.00273  -0.97806
 Alpha  occ. eigenvalues --   -0.85796  -0.84058  -0.82667  -0.76752  -0.74385
 Alpha  occ. eigenvalues --   -0.70595  -0.69548  -0.68388  -0.65264  -0.61994
 Alpha  occ. eigenvalues --   -0.60378  -0.59123  -0.57847  -0.57617  -0.56129
 Alpha  occ. eigenvalues --   -0.53079  -0.52978  -0.52025  -0.50151  -0.49078
 Alpha  occ. eigenvalues --   -0.46607  -0.44969  -0.38679  -0.32186  -0.29291
 Alpha virt. eigenvalues --    0.02217   0.03582   0.03665   0.04476   0.04631
 Alpha virt. eigenvalues --    0.04801   0.06473   0.06629   0.06764   0.07466
 Alpha virt. eigenvalues --    0.09147   0.09417   0.09948   0.09970   0.10966
 Alpha virt. eigenvalues --    0.11001   0.13098   0.13204   0.13311   0.13616
 Alpha virt. eigenvalues --    0.14421   0.15276   0.15287   0.15569   0.15719
 Alpha virt. eigenvalues --    0.16080   0.17043   0.17067   0.17254   0.17869
 Alpha virt. eigenvalues --    0.18807   0.18809   0.19831   0.19845   0.20839
 Alpha virt. eigenvalues --    0.20966   0.21159   0.21819   0.22136   0.22314
 Alpha virt. eigenvalues --    0.22431   0.23540   0.24310   0.24464   0.25602
 Alpha virt. eigenvalues --    0.26006   0.27035   0.27248   0.28220   0.29137
 Alpha virt. eigenvalues --    0.29535   0.29665   0.30201   0.30799   0.31204
 Alpha virt. eigenvalues --    0.32356   0.33113   0.33715   0.33933   0.34978
 Alpha virt. eigenvalues --    0.35195   0.35914   0.37010   0.37075   0.37210
 Alpha virt. eigenvalues --    0.38048   0.38146   0.39045   0.39482   0.39840
 Alpha virt. eigenvalues --    0.40191   0.40649   0.41226   0.41904   0.42726
 Alpha virt. eigenvalues --    0.43221   0.44176   0.44184   0.45121   0.45940
 Alpha virt. eigenvalues --    0.46404   0.46451   0.47081   0.47943   0.48984
 Alpha virt. eigenvalues --    0.49985   0.51444   0.51468   0.52384   0.52405
 Alpha virt. eigenvalues --    0.53583   0.54236   0.54873   0.54935   0.55487
 Alpha virt. eigenvalues --    0.55956   0.57078   0.58106   0.58514   0.59578
 Alpha virt. eigenvalues --    0.59990   0.59993   0.61060   0.61875   0.63245
 Alpha virt. eigenvalues --    0.63666   0.64277   0.65419   0.66027   0.66566
 Alpha virt. eigenvalues --    0.66592   0.67124   0.67366   0.67710   0.68092
 Alpha virt. eigenvalues --    0.69698   0.69842   0.70370   0.70701   0.71085
 Alpha virt. eigenvalues --    0.71421   0.72045   0.72581   0.73181   0.73419
 Alpha virt. eigenvalues --    0.74619   0.74964   0.75446   0.75829   0.77035
 Alpha virt. eigenvalues --    0.77112   0.77263   0.78450   0.80010   0.80243
 Alpha virt. eigenvalues --    0.80738   0.81576   0.83833   0.84230   0.85499
 Alpha virt. eigenvalues --    0.86318   0.88625   0.89632   0.89962   0.90567
 Alpha virt. eigenvalues --    0.90630   0.91480   0.92727   0.93600   0.94251
 Alpha virt. eigenvalues --    0.95279   0.95297   0.95687   0.96075   0.97579
 Alpha virt. eigenvalues --    0.97688   0.98503   0.98755   0.99584   1.00097
 Alpha virt. eigenvalues --    1.00641   1.02533   1.02983   1.04379   1.04508
 Alpha virt. eigenvalues --    1.05758   1.06994   1.08577   1.09195   1.10844
 Alpha virt. eigenvalues --    1.11341   1.11928   1.11932   1.13914   1.15162
 Alpha virt. eigenvalues --    1.15559   1.17315   1.18876   1.23345   1.24640
 Alpha virt. eigenvalues --    1.24904   1.26511   1.27994   1.28848   1.29835
 Alpha virt. eigenvalues --    1.30016   1.32307   1.35825   1.35918   1.38445
 Alpha virt. eigenvalues --    1.40285   1.42653   1.45385   1.48401   1.49191
 Alpha virt. eigenvalues --    1.49929   1.50296   1.52657   1.53075   1.54204
 Alpha virt. eigenvalues --    1.55470   1.56293   1.57048   1.58591   1.58737
 Alpha virt. eigenvalues --    1.59734   1.60780   1.62211   1.63911   1.64421
 Alpha virt. eigenvalues --    1.65291   1.65372   1.66620   1.67991   1.69393
 Alpha virt. eigenvalues --    1.72182   1.72367   1.72626   1.74147   1.74326
 Alpha virt. eigenvalues --    1.75015   1.76618   1.77252   1.77388   1.79779
 Alpha virt. eigenvalues --    1.80029   1.81975   1.82002   1.82780   1.86755
 Alpha virt. eigenvalues --    1.86772   1.88094   1.88971   1.89591   1.90487
 Alpha virt. eigenvalues --    1.92880   1.93247   1.93274   1.95029   1.98162
 Alpha virt. eigenvalues --    1.98459   1.99245   1.99637   2.00837   2.01432
 Alpha virt. eigenvalues --    2.04135   2.04158   2.06264   2.08482   2.09288
 Alpha virt. eigenvalues --    2.11454   2.12841   2.14588   2.15120   2.16491
 Alpha virt. eigenvalues --    2.16902   2.17562   2.19360   2.20850   2.21268
 Alpha virt. eigenvalues --    2.23446   2.23711   2.23977   2.24231   2.25466
 Alpha virt. eigenvalues --    2.27169   2.28993   2.32088   2.33014   2.34884
 Alpha virt. eigenvalues --    2.35425   2.36719   2.36953   2.38089   2.38315
 Alpha virt. eigenvalues --    2.41459   2.41645   2.42678   2.43494   2.44665
 Alpha virt. eigenvalues --    2.46965   2.50128   2.52144   2.52681   2.53184
 Alpha virt. eigenvalues --    2.55058   2.60107   2.60833   2.64749   2.65806
 Alpha virt. eigenvalues --    2.69829   2.71492   2.71581   2.77162   2.83644
 Alpha virt. eigenvalues --    2.86371   2.87490   2.89680   2.92114   2.95240
 Alpha virt. eigenvalues --    3.00538   3.01122   3.02412   3.06929   3.09097
 Alpha virt. eigenvalues --    3.13671   3.16495   3.21007   3.22530   3.23389
 Alpha virt. eigenvalues --    3.30010   3.31865   3.37629   3.46467   3.52426
 Alpha virt. eigenvalues --    3.59058   3.63313   3.72375   3.75535   3.80639
 Alpha virt. eigenvalues --    3.82964   3.84212   3.86044   3.88818   3.90737
 Alpha virt. eigenvalues --    4.01441   4.06444   4.08890   4.37145   4.51745
 Alpha virt. eigenvalues --    4.53718   4.89885   5.44556
          Condensed to atoms (all electrons):
 Mulliken charges:
               1
     1  C   -0.072787
     2  C   -0.511242
     3  C    1.751057
     4  C    1.671069
     5  C   -0.059573
     6  C   -0.381935
     7  H   -0.228554
     8  B    1.306640
     9  O   -1.358232
    10  O   -1.408152
    11  H   -0.312241
    12  C    0.334674
    13  C   -0.147480
    14  C   -0.417048
    15  C    0.397205
    16  H   -0.270165
    17  H   -0.298886
    18  H   -0.304597
    19  H   -0.230823
    20  H   -0.391967
    21  H    0.424128
    22  H    0.508907
 Sum of Mulliken charges =   0.00000
 Mulliken charges with hydrogens summed into heavy atoms:
               1
     1  C   -0.385028
     2  C   -0.739796
     3  C    1.751057
     4  C    1.671069
     5  C   -0.059573
     6  C   -0.773902
     8  B    1.306640
     9  O   -0.849325
    10  O   -0.984024
    12  C    0.030078
    13  C   -0.378303
    14  C   -0.687213
    15  C    0.098319
 Electronic spatial extent (au):  <R**2>=           2357.9221
 Charge=              0.0000 electrons
 Dipole moment (field-independent basis, Debye):
    X=             -2.0570    Y=             -0.9929    Z=             -0.0000  Tot=              2.2841

 Test job not archived.
 1\1\GINC-SE362\SP\RHF\Aug-CC-pVDZ\C10H9B1O2\OHZDE\09-Apr-2025\0\\#t hf
  aug-cc-pvdz iop(5/13=1,5/36=2,99/5=2) pseudo=read geom=check guess=(r
 ead,tcheck) scf=(maxcycle=1)\\title\\0,1\C,0,-1.166028,2.146184,-0.000
 3\C,0,0.128048,2.59984,-0.000216\C,0,-1.446187,0.756274,-0.000117\C,0,
 -0.362193,-0.185521,0.000039\C,0,0.992891,0.304365,0.00008\C,0,1.19371
 5,1.677699,0.000025\H,0,0.337531,3.663801,-0.000338\B,0,2.289906,-0.57
 9557,0.000002\O,0,2.228655,-1.953048,-0.001075\O,0,3.493825,0.086083,0
 .000837\H,0,-1.997059,2.844596,-0.000489\C,0,-2.786706,0.288929,-0.000
 052\C,0,-3.06719,-1.053909,0.000196\C,0,-2.007857,-1.98716,0.000367\C,
 0,-0.698096,-1.568381,0.000283\H,0,-2.230434,-3.048779,0.000576\H,0,0.
 09831,-2.297124,0.000361\H,0,-3.589392,1.019446,-0.000178\H,0,-4.09484
 1,-1.399907,0.00027\H,0,2.209648,2.053669,0.000163\H,0,4.273215,-0.475
 075,0.001649\H,0,3.081265,-2.397033,-0.001937\\Version=ES64L-G16RevC.0
 1\State=1-A\HF=-559.0992521\RMSD=1.283e-01\Dipole=0.8092877,-0.3906483
 ,0.0000115\Quadrupole=9.4636037,1.2048761,-10.6684797,-6.5515427,0.000
 489,-0.0009642\PG=C01 [X(C10H9B1O2)]\\@


 Just remember, when you're over the hill, you begin to pick up speed.
 -- Charles Schulz
 Job cpu time:       0 days  0 hours  3 minutes 35.1 seconds.
 Elapsed time:       0 days  0 hours  0 minutes 14.9 seconds.
 File lengths (MBytes):  RWF=     24 Int=      0 D2E=      0 Chk=     19 Scr=      1
 Normal termination of Gaussian 16 at Wed Apr  9 00:26:31 2025.
