 Entering Gaussian System, Link 0=g16
 Input=BDE49_nonexpt_1647_mol2.gjf
 Output=BDE49_nonexpt_1647_mol2.log
 Initial command:
 /arc/software/Gaussian/g16.c01/l1.exe "/tmp/slurm/4846578/Gau-1492812.inp" -scrdir="/tmp/slurm/4846578/"
 Entering Link 1 = /arc/software/Gaussian/g16.c01/l1.exe PID=   1492813.
  
 Copyright (c) 1988-2019, Gaussian, Inc.  All Rights Reserved.
  
 This is part of the Gaussian(R) 16 program.  It is based on
 the Gaussian(R) 09 system (copyright 2009, Gaussian, Inc.),
 the Gaussian(R) 03 system (copyright 2003, Gaussian, Inc.),
 the Gaussian(R) 98 system (copyright 1998, Gaussian, Inc.),
 the Gaussian(R) 94 system (copyright 1995, Gaussian, Inc.),
 the Gaussian 92(TM) system (copyright 1992, Gaussian, Inc.),
 the Gaussian 90(TM) system (copyright 1990, Gaussian, Inc.),
 the Gaussian 88(TM) system (copyright 1988, Gaussian, Inc.),
 the Gaussian 86(TM) system (copyright 1986, Carnegie Mellon
 University), and the Gaussian 82(TM) system (copyright 1983,
 Carnegie Mellon University). Gaussian is a federally registered
 trademark of Gaussian, Inc.
  
 This software contains proprietary and confidential information,
 including trade secrets, belonging to Gaussian, Inc.
  
 This software is provided under written license and may be
 used, copied, transmitted, or stored only in accord with that
 written license.
  
 The following legend is applicable only to US Government
 contracts under FAR:
  
                    RESTRICTED RIGHTS LEGEND
  
 Use, reproduction and disclosure by the US Government is
 subject to restrictions as set forth in subparagraphs (a)
 and (c) of the Commercial Computer Software - Restricted
 Rights clause in FAR 52.227-19.
  
 Gaussian, Inc.
 340 Quinnipiac St., Bldg. 40, Wallingford CT 06492
  
  
 ---------------------------------------------------------------
 Warning -- This program may not be used in any manner that
 competes with the business of Gaussian, Inc. or will provide
 assistance to any competitor of Gaussian, Inc.  The licensee
 of this program is prohibited from giving any competitor of
 Gaussian, Inc. access to this program.  By using this program,
 the user acknowledges that Gaussian, Inc. is engaged in the
 business of creating and licensing software in the field of
 computational chemistry and represents and warrants to the
 licensee that it is not a competitor of Gaussian, Inc. and that
 it will not use this program in any manner prohibited above.
 ---------------------------------------------------------------
  

 Cite this work as:
 Gaussian 16, Revision C.01,
 M. J. Frisch, G. W. Trucks, H. B. Schlegel, G. E. Scuseria, 
 M. A. Robb, J. R. Cheeseman, G. Scalmani, V. Barone, 
 G. A. Petersson, H. Nakatsuji, X. Li, M. Caricato, A. V. Marenich, 
 J. Bloino, B. G. Janesko, R. Gomperts, B. Mennucci, H. P. Hratchian, 
 J. V. Ortiz, A. F. Izmaylov, J. L. Sonnenberg, D. Williams-Young, 
 F. Ding, F. Lipparini, F. Egidi, J. Goings, B. Peng, A. Petrone, 
 T. Henderson, D. Ranasinghe, V. G. Zakrzewski, J. Gao, N. Rega, 
 G. Zheng, W. Liang, M. Hada, M. Ehara, K. Toyota, R. Fukuda, 
 J. Hasegawa, M. Ishida, T. Nakajima, Y. Honda, O. Kitao, H. Nakai, 
 T. Vreven, K. Throssell, J. A. Montgomery, Jr., J. E. Peralta, 
 F. Ogliaro, M. J. Bearpark, J. J. Heyd, E. N. Brothers, K. N. Kudin, 
 V. N. Staroverov, T. A. Keith, R. Kobayashi, J. Normand, 
 K. Raghavachari, A. P. Rendell, J. C. Burant, S. S. Iyengar, 
 J. Tomasi, M. Cossi, J. M. Millam, M. Klene, C. Adamo, R. Cammi, 
 J. W. Ochterski, R. L. Martin, K. Morokuma, O. Farkas, 
 J. B. Foresman, and D. J. Fox, Gaussian, Inc., Wallingford CT, 2019.
 
 ******************************************
 Gaussian 16:  ES64L-G16RevC.01  3-Jul-2019
                 8-Apr-2025 
 ******************************************
 %nprocs=16
 Will use up to   16 processors via shared memory.
 %mem=30GB
 %chk=BDE49_nonexpt_1647_mol2.chk
 ----------------------------------------------------------------------
 #t hf aug-cc-pvdz symm=none int=(grid=ultrafine) guess=(read,tcheck) s
 table=opt
 ----------------------------------------------------------------------
 -----
 title
 -----
 Symbolic Z-matrix:
 Charge =  0 Multiplicity = 2
 C                     0.34225   0.       -0.00281 
 C                     0.69079  0.         1.50232 
 H                     0.29867  -0.88464   2.01247 
 H                     0.29867   0.88464   2.01247 
 C                     0.92912   1.26069  -0.66712 
 H                     0.53119   2.17806  -0.22263 
 H                     0.71787   1.28935  -1.74014 
 H                     2.01904   1.28115  -0.54334 
 H                     1.78145  0.         1.63338 
 C                     0.92912  -1.26069  -0.66713 
 H                     2.01904  -1.28115  -0.54334 
 H                     0.71787  -1.28934  -1.74014 
 H                     0.53119  -2.17806  -0.22263 
 Si                   -1.5671    0.       -0.18092 
 H                    -2.16163   1.21278   0.44758 
 H                    -2.16163  -1.21278   0.44758 
 
                    Distance matrix (angstroms):
                    1          2          3          4          5
     1  C    0.000000
     2  C    1.544957   0.000000
     3  H    2.201322   1.093890   0.000000
     4  H    2.201322   1.093890   1.769286   0.000000
     5  C    1.541131   2.520444   3.490005   2.778324   0.000000
     6  H    2.197267   2.782965   3.798670   2.592810   1.094303
     7  H    2.195865   3.489512   4.357063   3.797573   1.093990
     8  H    2.178337   2.755052   3.765960   3.106284   1.097111
     9  H    2.179083   1.098504   1.767743   1.767743   2.758280
    10  C    1.541131   2.520443   2.778324   3.490004   2.521383
    11  H    2.178337   2.755051   3.106283   3.765959   2.768431
    12  H    2.195865   3.489511   3.797572   4.357063   2.774648
    13  H    2.197268   2.782965   2.592810   3.798671   3.490124
    14  Si   1.917635   2.816263   3.012411   3.012411   2.838464
    15  H    2.818347   3.274082   3.591819   2.934218   3.285972
    16  H    2.818347   3.274081   2.934218   3.591818   4.112590
                    6          7          8          9         10
     6  H    0.000000
     7  H    1.768475   0.000000
     8  H    1.766635   1.767894   0.000000
     9  H    3.122801   3.764869   2.536906   0.000000
    10  C    3.490124   2.774649   2.768431   2.758280   0.000000
    11  H    3.779251   3.119750   2.562307   2.536905   1.097111
    12  H    3.789538   2.578688   3.119750   3.764868   1.093990
    13  H    4.356128   3.789539   3.779251   3.122800   1.094304
    14  Si   3.024650   3.051994   3.825321   3.808467   2.838464
    15  H    2.938060   3.617108   4.297040   4.292413   4.112590
    16  H    4.381584   4.397528   4.967857   4.292413   3.285972
                   11         12         13         14         15
    11  H    0.000000
    12  H    1.767894   0.000000
    13  H    1.766635   1.768475   0.000000
    14  Si   3.825321   3.051994   3.024651   0.000000
    15  H    4.967857   4.397528   4.381585   1.489736   0.000000
    16  H    4.297040   3.617108   2.938061   1.489736   2.425568
                   16
    16  H    0.000000
 Symmetry turned off by external request.
 Rotational constants (GHZ):           4.3754209           2.8771780           2.8398079
   218 basis functions,   374 primitive gaussians,   228 cartesian basis functions
    25 alpha electrons       24 beta electrons
       nuclear repulsion energy       236.1685773099 Hartrees.
 NAtoms=   16 NActive=   16 NUniq=   16 SFac= 1.00D+00 NAtFMM=   60 NAOKFM=F Big=F
 ExpMin= 2.50D-02 ExpMax= 7.89D+04 ExpMxC= 2.69D+03 IAcc=3 IRadAn=         5 AccDes= 0.00D+00
 Harris functional with IExCor=  205 and IRadAn=       5 diagonalized for initial guess.
 HarFok:  IExCor=  205 AccDes= 0.00D+00 IRadAn=         5 IDoV= 1 UseB2=F ITyADJ=14
 ICtDFT=  3500011 ScaDFX=  1.000000  1.000000  1.000000  1.000000
 FoFCou: FMM=F IPFlag=           0 FMFlag=      100000 FMFlg1=           0
         NFxFlg=           0 DoJE=T BraDBF=F KetDBF=T FulRan=T
         wScrn=  0.000000 ICntrl=       500 IOpCl=  0 I1Cent=   200000004 NGrid=           0
         NMat0=    1 NMatS0=      1 NMatT0=    0 NMatD0=    1 NMtDS0=    0 NMtDT0=    0
 Symmetry not used in FoFCou.
 Initial guess <Sx>= 0.0000 <Sy>= 0.0000 <Sz>= 0.5000 <S**2>= 0.7500 S= 0.5000
 SCF Done:  E(UHF) =  -446.781407177     A.U. after   15 cycles
            NFock= 15  Conv=0.95D-08     -V/T= 2.0006
 <Sx>= 0.0000 <Sy>= 0.0000 <Sz>= 0.5000 <S**2>= 0.7541 S= 0.5020
 <L.S>=  0.00000000000    
 Annihilation of the first spin contaminant:
 S**2 before annihilation     0.7541,   after     0.7500

 **********************************************************************

            Population analysis using the SCF Density.

 **********************************************************************

 Alpha  occ. eigenvalues --  -68.77917 -11.23760 -11.22747 -11.22650 -11.22648
 Alpha  occ. eigenvalues --   -6.12790  -4.23979  -4.23075  -4.23030  -1.08583
 Alpha  occ. eigenvalues --   -0.93566  -0.93512  -0.77819  -0.68972  -0.60123
 Alpha  occ. eigenvalues --   -0.59974  -0.59634  -0.54323  -0.54241  -0.51822
 Alpha  occ. eigenvalues --   -0.47816  -0.47021  -0.46462  -0.40797  -0.31713
 Alpha virt. eigenvalues --    0.03390   0.04824   0.04890   0.05058   0.06272
 Alpha virt. eigenvalues --    0.06757   0.06852   0.06911   0.07047   0.09356
 Alpha virt. eigenvalues --    0.09797   0.09877   0.09973   0.11035   0.13064
 Alpha virt. eigenvalues --    0.13950   0.15513   0.16200   0.16321   0.17319
 Alpha virt. eigenvalues --    0.17755   0.17773   0.18142   0.18844   0.20043
 Alpha virt. eigenvalues --    0.20187   0.20607   0.20854   0.21253   0.22035
 Alpha virt. eigenvalues --    0.22693   0.24353   0.25324   0.26440   0.26841
 Alpha virt. eigenvalues --    0.29093   0.32648   0.33232   0.33569   0.34983
 Alpha virt. eigenvalues --    0.35028   0.35373   0.36772   0.38376   0.39430
 Alpha virt. eigenvalues --    0.40252   0.42510   0.42968   0.43891   0.45895
 Alpha virt. eigenvalues --    0.46002   0.46205   0.46256   0.47212   0.47726
 Alpha virt. eigenvalues --    0.48576   0.48748   0.49008   0.49895   0.50852
 Alpha virt. eigenvalues --    0.52295   0.52872   0.53839   0.53971   0.54772
 Alpha virt. eigenvalues --    0.55966   0.56983   0.57621   0.58530   0.60339
 Alpha virt. eigenvalues --    0.61113   0.61495   0.62496   0.63708   0.64428
 Alpha virt. eigenvalues --    0.65035   0.65480   0.66449   0.67712   0.68313
 Alpha virt. eigenvalues --    0.69083   0.69636   0.71953   0.71976   0.72240
 Alpha virt. eigenvalues --    0.74066   0.75510   0.76543   0.77312   0.78971
 Alpha virt. eigenvalues --    0.81672   0.82177   0.82430   0.83490   0.84610
 Alpha virt. eigenvalues --    0.85470   0.85884   0.87797   0.88320   0.89065
 Alpha virt. eigenvalues --    0.91028   0.92597   0.92609   0.93079   0.93750
 Alpha virt. eigenvalues --    0.98217   1.00085   1.00466   1.05758   1.07533
 Alpha virt. eigenvalues --    1.10054   1.13083   1.13553   1.18446   1.19776
 Alpha virt. eigenvalues --    1.20810   1.24401   1.26411   1.28517   1.29221
 Alpha virt. eigenvalues --    1.30246   1.37517   1.37655   1.39605   1.40807
 Alpha virt. eigenvalues --    1.41459   1.49145   1.55567   1.58989   1.61814
 Alpha virt. eigenvalues --    1.62990   1.64991   1.68674   1.73690   1.77878
 Alpha virt. eigenvalues --    1.78048   1.80653   1.80766   1.85064   1.86017
 Alpha virt. eigenvalues --    1.90277   1.90874   1.94083   1.94704   1.95334
 Alpha virt. eigenvalues --    1.97685   1.98711   2.02677   2.04833   2.05555
 Alpha virt. eigenvalues --    2.07716   2.09972   2.12513   2.13424   2.13531
 Alpha virt. eigenvalues --    2.21865   2.23706   2.24342   2.25548   2.29596
 Alpha virt. eigenvalues --    2.30112   2.31050   2.31752   2.32534   2.33947
 Alpha virt. eigenvalues --    2.34577   2.35870   2.36105   2.45093   2.52571
 Alpha virt. eigenvalues --    2.53024   2.53980   2.56085   2.59786   2.60639
 Alpha virt. eigenvalues --    2.65828   2.66625   2.68985   2.79418   2.79852
 Alpha virt. eigenvalues --    2.81508   2.87658   2.89766   2.90240   2.95730
 Alpha virt. eigenvalues --    2.96282   3.02520   3.08373   3.16498   3.17362
 Alpha virt. eigenvalues --    3.20869   3.41935   3.44275
  Beta  occ. eigenvalues --  -68.77366 -11.23700 -11.22690 -11.22650 -11.22647
  Beta  occ. eigenvalues --   -6.11962  -4.22702  -4.22661  -4.21825  -1.08339
  Beta  occ. eigenvalues --   -0.93501  -0.93400  -0.76626  -0.66563  -0.59881
  Beta  occ. eigenvalues --   -0.59835  -0.58476  -0.54271  -0.53851  -0.51791
  Beta  occ. eigenvalues --   -0.47377  -0.46798  -0.46009  -0.39694
  Beta virt. eigenvalues --    0.03237   0.03698   0.04838   0.05004   0.06046
  Beta virt. eigenvalues --    0.06381   0.06859   0.06897   0.06929   0.08229
  Beta virt. eigenvalues --    0.09362   0.09915   0.10019   0.10579   0.11315
  Beta virt. eigenvalues --    0.13149   0.14588   0.15876   0.16268   0.16779
  Beta virt. eigenvalues --    0.17614   0.17818   0.17907   0.18997   0.19684
  Beta virt. eigenvalues --    0.20500   0.20616   0.21093   0.21326   0.22042
  Beta virt. eigenvalues --    0.22064   0.23632   0.25620   0.26629   0.28050
  Beta virt. eigenvalues --    0.28255   0.29291   0.33436   0.33438   0.34077
  Beta virt. eigenvalues --    0.35149   0.35392   0.35569   0.37864   0.38493
  Beta virt. eigenvalues --    0.40077   0.41064   0.42583   0.43475   0.44513
  Beta virt. eigenvalues --    0.46214   0.46295   0.46366   0.46525   0.47411
  Beta virt. eigenvalues --    0.47970   0.48715   0.48933   0.49211   0.50429
  Beta virt. eigenvalues --    0.52125   0.52759   0.53180   0.54140   0.54163
  Beta virt. eigenvalues --    0.54953   0.57388   0.57689   0.58697   0.59346
  Beta virt. eigenvalues --    0.60547   0.61334   0.61756   0.62750   0.63845
  Beta virt. eigenvalues --    0.64633   0.65517   0.65599   0.67106   0.68022
  Beta virt. eigenvalues --    0.68836   0.69212   0.69824   0.72010   0.72098
  Beta virt. eigenvalues --    0.72763   0.74495   0.76379   0.76813   0.78086
  Beta virt. eigenvalues --    0.79490   0.82505   0.82559   0.82993   0.83738
  Beta virt. eigenvalues --    0.84780   0.85743   0.86277   0.88156   0.88500
  Beta virt. eigenvalues --    0.89658   0.91310   0.92873   0.93051   0.93853
  Beta virt. eigenvalues --    0.93971   0.99136   1.00583   1.01060   1.07065
  Beta virt. eigenvalues --    1.08221   1.10461   1.13238   1.13811   1.19433
  Beta virt. eigenvalues --    1.20629   1.21123   1.24632   1.26878   1.28724
  Beta virt. eigenvalues --    1.29308   1.30549   1.37679   1.37847   1.39987
  Beta virt. eigenvalues --    1.40886   1.41674   1.49415   1.55816   1.59200
  Beta virt. eigenvalues --    1.61837   1.63365   1.65134   1.68900   1.73879
  Beta virt. eigenvalues --    1.77921   1.78157   1.80721   1.80925   1.85203
  Beta virt. eigenvalues --    1.86188   1.90372   1.90954   1.94337   1.94799
  Beta virt. eigenvalues --    1.95552   1.97753   1.98938   2.02966   2.04920
  Beta virt. eigenvalues --    2.05604   2.07965   2.10277   2.12627   2.13465
  Beta virt. eigenvalues --    2.13813   2.21956   2.23743   2.24421   2.25935
  Beta virt. eigenvalues --    2.29690   2.30129   2.31095   2.31843   2.32623
  Beta virt. eigenvalues --    2.34020   2.34599   2.35993   2.36209   2.45393
  Beta virt. eigenvalues --    2.52645   2.53050   2.54062   2.56111   2.59974
  Beta virt. eigenvalues --    2.60676   2.65872   2.66657   2.69128   2.79437
  Beta virt. eigenvalues --    2.79896   2.81555   2.87678   2.89810   2.90247
  Beta virt. eigenvalues --    2.95773   2.96309   3.02580   3.08387   3.16602
  Beta virt. eigenvalues --    3.17399   3.21019   3.42006   3.44318
          Condensed to atoms (all electrons):
          Atomic-Atomic Spin Densities.
 Mulliken charges and spin densities:
               1          2
     1  C   -2.394603  -0.071001
     2  C    1.026769  -0.019440
     3  H   -0.094997  -0.007840
     4  H   -0.094995  -0.007840
     5  C    0.937766   0.032187
     6  H   -0.083974  -0.002293
     7  H   -0.091548  -0.003066
     8  H   -0.026135  -0.001569
     9  H   -0.041924   0.012044
    10  C    0.937767   0.032187
    11  H   -0.026135  -0.001569
    12  H   -0.091548  -0.003066
    13  H   -0.083975  -0.002293
    14  Si  -0.160834   1.017488
    15  H    0.144183   0.013037
    16  H    0.144183   0.013037
 Sum of Mulliken charges =  -0.00000   1.00000
 Mulliken charges and spin densities with hydrogens summed into heavy atoms:
               1          2
     1  C   -2.394603  -0.071001
     2  C    0.794853  -0.023077
     5  C    0.736109   0.025258
    10  C    0.736109   0.025258
    14  Si   0.127531   1.043561
 Electronic spatial extent (au):  <R**2>=            625.3154
 Charge=             -0.0000 electrons
 Dipole moment (field-independent basis, Debye):
    X=              0.8816    Y=             -0.0000    Z=              0.0934  Tot=              0.8866
                          Isotropic Fermi Contact Couplings
        Atom                 a.u.       MegaHertz       Gauss      10(-4) cm-1
     1  C(13)              0.01008      11.33583       4.04491       3.78123
     2  C(13)              0.01729      19.44110       6.93707       6.48485
     3  H(1)               0.00024       1.07314       0.38292       0.35796
     4  H(1)               0.00024       1.07314       0.38292       0.35796
     5  C(13)             -0.00019      -0.20986      -0.07488      -0.07000
     6  H(1)              -0.00008      -0.37707      -0.13455      -0.12578
     7  H(1)              -0.00020      -0.89114      -0.31798      -0.29725
     8  H(1)              -0.00057      -2.54008      -0.90636      -0.84728
     9  H(1)               0.00460      20.54205       7.32991       6.85209
    10  C(13)             -0.00019      -0.20986      -0.07488      -0.07000
    11  H(1)              -0.00057      -2.54008      -0.90636      -0.84728
    12  H(1)              -0.00020      -0.89115      -0.31798      -0.29725
    13  H(1)              -0.00008      -0.37707      -0.13455      -0.12578
    14  Si(29)             0.55697    -494.99394    -176.62615    -165.11221
    15  H(1)               0.00312      13.94709       4.97667       4.65225
    16  H(1)               0.00312      13.94710       4.97667       4.65225
 --------------------------------------------------------
       Center         ----  Spin Dipole Couplings  ----
                      3XX-RR        3YY-RR        3ZZ-RR
 --------------------------------------------------------
     1   Atom        0.031688     -0.018747     -0.012941
     2   Atom       -0.001578     -0.008354      0.009932
     3   Atom       -0.000262     -0.002221      0.002482
     4   Atom       -0.000262     -0.002221      0.002482
     5   Atom        0.007160     -0.003959     -0.003202
     6   Atom        0.001601      0.001331     -0.002932
     7   Atom        0.006353     -0.002641     -0.003713
     8   Atom        0.003470     -0.001721     -0.001748
     9   Atom        0.002368     -0.002292     -0.000076
    10   Atom        0.007160     -0.003959     -0.003202
    11   Atom        0.003470     -0.001721     -0.001748
    12   Atom        0.006353     -0.002641     -0.003713
    13   Atom        0.001601      0.001331     -0.002932
    14   Atom       -0.532170     -0.663169      1.195340
    15   Atom       -0.012016      0.003492      0.008524
    16   Atom       -0.012016      0.003492      0.008524
 --------------------------------------------------------
                        XY            XZ            YZ
 --------------------------------------------------------
     1   Atom       -0.000000      0.021349     -0.000000
     2   Atom       -0.000000      0.013728     -0.000000
     3   Atom       -0.001206      0.003742     -0.003762
     4   Atom        0.001206      0.003742      0.003762
     5   Atom        0.005311      0.002121      0.001904
     6   Atom        0.005321      0.001503      0.000972
     7   Atom        0.005771     -0.002964     -0.001897
     8   Atom        0.002158      0.000140     -0.000114
     9   Atom       -0.000000      0.001888     -0.000000
    10   Atom       -0.005311      0.002121     -0.001904
    11   Atom       -0.002158      0.000140      0.000114
    12   Atom       -0.005771     -0.002964      0.001897
    13   Atom       -0.005321      0.001503     -0.000972
    14   Atom       -0.000000      0.502671     -0.000001
    15   Atom       -0.009957     -0.000036      0.010348
    16   Atom        0.009957     -0.000036     -0.010348
 --------------------------------------------------------


 ---------------------------------------------------------------------------------
              Anisotropic Spin Dipole Couplings in Principal Axis System
 ---------------------------------------------------------------------------------

       Atom             a.u.   MegaHertz   Gauss  10(-4) cm-1        Axes

              Baa    -0.0215    -2.886    -1.030    -0.963 -0.3725 -0.0000  0.9281
     1 C(13)  Bbb    -0.0187    -2.516    -0.898    -0.839  0.0000  1.0000  0.0000
              Bcc     0.0403     5.402     1.928     1.802  0.9281 -0.0000  0.3725
 
              Baa    -0.0107    -1.437    -0.513    -0.479  0.8326  0.0000 -0.5538
     2 C(13)  Bbb    -0.0084    -1.121    -0.400    -0.374 -0.0000  1.0000  0.0000
              Bcc     0.0191     2.558     0.913     0.853  0.5538 -0.0000  0.8326
 
              Baa    -0.0045    -2.414    -0.861    -0.805 -0.2755  0.7779  0.5648
     3 H(1)   Bbb    -0.0022    -1.169    -0.417    -0.390  0.8292  0.4896 -0.2698
              Bcc     0.0067     3.583     1.279     1.195  0.4864 -0.3940  0.7799
 
              Baa    -0.0045    -2.414    -0.861    -0.805  0.2755  0.7779 -0.5648
     4 H(1)   Bbb    -0.0022    -1.169    -0.417    -0.390  0.8292 -0.4896 -0.2698
              Bcc     0.0067     3.583     1.279     1.195  0.4864  0.3939  0.7799
 
              Baa    -0.0064    -0.863    -0.308    -0.288 -0.2979  0.8951 -0.3319
     5 C(13)  Bbb    -0.0034    -0.457    -0.163    -0.153 -0.3055  0.2400  0.9215
              Bcc     0.0098     1.321     0.471     0.441  0.9044  0.3759  0.2019
 
              Baa    -0.0040    -2.141    -0.764    -0.714  0.6838 -0.6072 -0.4047
     6 H(1)   Bbb    -0.0031    -1.645    -0.587    -0.549  0.1719 -0.4050  0.8980
              Bcc     0.0071     3.786     1.351     1.263  0.7092  0.6836  0.1725
 
              Baa    -0.0056    -2.994    -1.068    -0.999 -0.3350  0.8745  0.3507
     7 H(1)   Bbb    -0.0044    -2.374    -0.847    -0.792  0.3665 -0.2219  0.9036
              Bcc     0.0101     5.368     1.915     1.791  0.8680  0.4312 -0.2462
 
              Baa    -0.0025    -1.351    -0.482    -0.451 -0.3360  0.9216  0.1943
     8 H(1)   Bbb    -0.0017    -0.917    -0.327    -0.306  0.0517 -0.1879  0.9808
              Bcc     0.0043     2.268     0.809     0.757  0.9405  0.3395  0.0155
 
              Baa    -0.0023    -1.223    -0.436    -0.408 -0.0000  1.0000  0.0000
     9 H(1)   Bbb    -0.0011    -0.589    -0.210    -0.196 -0.4778 -0.0000  0.8785
              Bcc     0.0034     1.812     0.646     0.604  0.8785 -0.0000  0.4778
 
              Baa    -0.0064    -0.863    -0.308    -0.288  0.2979  0.8951  0.3319
    10 C(13)  Bbb    -0.0034    -0.457    -0.163    -0.153 -0.3055 -0.2400  0.9215
              Bcc     0.0098     1.321     0.471     0.441  0.9044 -0.3759  0.2019
 
              Baa    -0.0025    -1.351    -0.482    -0.451  0.3359  0.9216 -0.1943
    11 H(1)   Bbb    -0.0017    -0.917    -0.327    -0.306  0.0517  0.1879  0.9808
              Bcc     0.0043     2.268     0.809     0.757  0.9405 -0.3395  0.0155
 
              Baa    -0.0056    -2.994    -1.068    -0.999  0.3350  0.8745 -0.3507
    12 H(1)   Bbb    -0.0044    -2.374    -0.847    -0.792  0.3665  0.2219  0.9036
              Bcc     0.0101     5.368     1.915     1.791  0.8680 -0.4312 -0.2462
 
              Baa    -0.0040    -2.141    -0.764    -0.714  0.6838  0.6072 -0.4047
    13 H(1)   Bbb    -0.0031    -1.645    -0.587    -0.549  0.1719  0.4050  0.8980
              Bcc     0.0071     3.786     1.351     1.263  0.7092 -0.6836  0.1725
 
              Baa    -0.6678    70.842    25.278    23.630  0.9655  0.0000 -0.2605
    14 Si(29) Bbb    -0.6632    70.352    25.103    23.467 -0.0000  1.0000  0.0000
              Bcc     1.3310  -141.194   -50.381   -47.097  0.2605 -0.0000  0.9655
 
              Baa    -0.0178    -9.480    -3.383    -3.162  0.8495  0.4914 -0.1922
    15 H(1)   Bbb    -0.0003    -0.152    -0.054    -0.051  0.4798 -0.5677  0.6689
              Bcc     0.0181     9.632     3.437     3.213 -0.2196  0.6605  0.7181
 
              Baa    -0.0178    -9.480    -3.383    -3.162  0.8495 -0.4914 -0.1922
    16 H(1)   Bbb    -0.0003    -0.152    -0.054    -0.051  0.4798  0.5677  0.6689
              Bcc     0.0181     9.632     3.437     3.213 -0.2196 -0.6605  0.7181
 

 ---------------------------------------------------------------------------------

 NROrb=    218 NOA=    25 NOB=    24 NVA=   193 NVB=   194

 **** Warning!!: The largest alpha MO coefficient is  0.65919008D+02


 **** Warning!!: The largest beta MO coefficient is  0.61665571D+02

    12 initial guesses have been made.
 Iteration     1 Dimension    12 NMult     0 NNew     12
 New state      1 was old state      2
 Iteration     2 Dimension    24 NMult    12 NNew     12
 New state      1 was old state      2
 Iteration     3 Dimension    27 NMult    24 NNew      3
 Iteration     4 Dimension    30 NMult    27 NNew      3
 Iteration     5 Dimension    33 NMult    30 NNew      3
 Iteration     6 Dimension    36 NMult    33 NNew      3
 Iteration     7 Dimension    39 NMult    36 NNew      3
 Iteration     8 Dimension    42 NMult    39 NNew      3
 Iteration     9 Dimension    45 NMult    42 NNew      3
 ***********************************************************************
 Stability analysis using <AA,BB:AA,BB> singles matrix:
 ***********************************************************************
 Ground to excited state transition densities written to RWF  633

 Eigenvectors of the stability matrix:
 
 Excited state symmetry could not be determined.
 Eigenvector   1:  2.299-?Sym  Eigenvalue= 0.1817186  <S**2>=1.072
     24A -> 42A       -0.11846
     24A -> 44A        0.10891
     25A -> 30A       -0.12290
     25A -> 38A       -0.11092
     25A -> 44A        0.10255
     24B -> 25B        0.40706
     24B -> 26B       -0.39811
     24B -> 29B        0.31132
     24B -> 34B       -0.37741
     24B -> 38B       -0.24694
     24B -> 41B       -0.12089
     24B -> 55B        0.10422
 The wavefunction is stable under the perturbations considered.
 The wavefunction is already stable.

 **********************************************************************

            Population analysis using the SCF Density.

 **********************************************************************

 Alpha  occ. eigenvalues --  -68.77917 -11.23760 -11.22747 -11.22650 -11.22648
 Alpha  occ. eigenvalues --   -6.12790  -4.23979  -4.23075  -4.23030  -1.08583
 Alpha  occ. eigenvalues --   -0.93566  -0.93512  -0.77819  -0.68972  -0.60123
 Alpha  occ. eigenvalues --   -0.59974  -0.59634  -0.54323  -0.54241  -0.51822
 Alpha  occ. eigenvalues --   -0.47816  -0.47021  -0.46462  -0.40797  -0.31713
 Alpha virt. eigenvalues --    0.03390   0.04824   0.04890   0.05058   0.06272
 Alpha virt. eigenvalues --    0.06757   0.06852   0.06911   0.07047   0.09356
 Alpha virt. eigenvalues --    0.09797   0.09877   0.09973   0.11035   0.13064
 Alpha virt. eigenvalues --    0.13950   0.15513   0.16200   0.16321   0.17319
 Alpha virt. eigenvalues --    0.17755   0.17773   0.18142   0.18844   0.20043
 Alpha virt. eigenvalues --    0.20187   0.20607   0.20854   0.21253   0.22035
 Alpha virt. eigenvalues --    0.22693   0.24353   0.25324   0.26440   0.26841
 Alpha virt. eigenvalues --    0.29093   0.32648   0.33232   0.33569   0.34983
 Alpha virt. eigenvalues --    0.35028   0.35373   0.36772   0.38376   0.39430
 Alpha virt. eigenvalues --    0.40252   0.42510   0.42968   0.43891   0.45895
 Alpha virt. eigenvalues --    0.46002   0.46205   0.46256   0.47212   0.47726
 Alpha virt. eigenvalues --    0.48576   0.48748   0.49008   0.49895   0.50852
 Alpha virt. eigenvalues --    0.52295   0.52872   0.53839   0.53971   0.54772
 Alpha virt. eigenvalues --    0.55966   0.56983   0.57621   0.58530   0.60339
 Alpha virt. eigenvalues --    0.61113   0.61495   0.62496   0.63708   0.64428
 Alpha virt. eigenvalues --    0.65035   0.65480   0.66449   0.67712   0.68313
 Alpha virt. eigenvalues --    0.69083   0.69636   0.71953   0.71976   0.72240
 Alpha virt. eigenvalues --    0.74066   0.75510   0.76543   0.77312   0.78971
 Alpha virt. eigenvalues --    0.81672   0.82177   0.82430   0.83490   0.84610
 Alpha virt. eigenvalues --    0.85470   0.85884   0.87797   0.88320   0.89065
 Alpha virt. eigenvalues --    0.91028   0.92597   0.92609   0.93079   0.93750
 Alpha virt. eigenvalues --    0.98217   1.00085   1.00466   1.05758   1.07533
 Alpha virt. eigenvalues --    1.10054   1.13083   1.13553   1.18446   1.19776
 Alpha virt. eigenvalues --    1.20810   1.24401   1.26411   1.28517   1.29221
 Alpha virt. eigenvalues --    1.30246   1.37517   1.37655   1.39605   1.40807
 Alpha virt. eigenvalues --    1.41459   1.49145   1.55567   1.58989   1.61814
 Alpha virt. eigenvalues --    1.62990   1.64991   1.68674   1.73690   1.77878
 Alpha virt. eigenvalues --    1.78048   1.80653   1.80766   1.85064   1.86017
 Alpha virt. eigenvalues --    1.90277   1.90874   1.94083   1.94704   1.95334
 Alpha virt. eigenvalues --    1.97685   1.98711   2.02677   2.04833   2.05555
 Alpha virt. eigenvalues --    2.07716   2.09972   2.12513   2.13424   2.13531
 Alpha virt. eigenvalues --    2.21865   2.23706   2.24342   2.25548   2.29596
 Alpha virt. eigenvalues --    2.30112   2.31050   2.31752   2.32534   2.33947
 Alpha virt. eigenvalues --    2.34577   2.35870   2.36105   2.45093   2.52571
 Alpha virt. eigenvalues --    2.53024   2.53980   2.56085   2.59786   2.60639
 Alpha virt. eigenvalues --    2.65828   2.66625   2.68985   2.79418   2.79852
 Alpha virt. eigenvalues --    2.81508   2.87658   2.89766   2.90240   2.95730
 Alpha virt. eigenvalues --    2.96282   3.02520   3.08373   3.16498   3.17362
 Alpha virt. eigenvalues --    3.20869   3.41935   3.44275
  Beta  occ. eigenvalues --  -68.77366 -11.23700 -11.22690 -11.22650 -11.22647
  Beta  occ. eigenvalues --   -6.11962  -4.22702  -4.22661  -4.21825  -1.08339
  Beta  occ. eigenvalues --   -0.93501  -0.93400  -0.76626  -0.66563  -0.59881
  Beta  occ. eigenvalues --   -0.59835  -0.58476  -0.54271  -0.53851  -0.51791
  Beta  occ. eigenvalues --   -0.47377  -0.46798  -0.46009  -0.39694
  Beta virt. eigenvalues --    0.03237   0.03698   0.04838   0.05004   0.06046
  Beta virt. eigenvalues --    0.06381   0.06859   0.06897   0.06929   0.08229
  Beta virt. eigenvalues --    0.09362   0.09915   0.10019   0.10579   0.11315
  Beta virt. eigenvalues --    0.13149   0.14588   0.15876   0.16268   0.16779
  Beta virt. eigenvalues --    0.17614   0.17818   0.17907   0.18997   0.19684
  Beta virt. eigenvalues --    0.20500   0.20616   0.21093   0.21326   0.22042
  Beta virt. eigenvalues --    0.22064   0.23632   0.25620   0.26629   0.28050
  Beta virt. eigenvalues --    0.28255   0.29291   0.33436   0.33438   0.34077
  Beta virt. eigenvalues --    0.35149   0.35392   0.35569   0.37864   0.38493
  Beta virt. eigenvalues --    0.40077   0.41064   0.42583   0.43475   0.44513
  Beta virt. eigenvalues --    0.46214   0.46295   0.46366   0.46525   0.47411
  Beta virt. eigenvalues --    0.47970   0.48715   0.48933   0.49211   0.50429
  Beta virt. eigenvalues --    0.52125   0.52759   0.53180   0.54140   0.54163
  Beta virt. eigenvalues --    0.54953   0.57388   0.57689   0.58697   0.59346
  Beta virt. eigenvalues --    0.60547   0.61334   0.61756   0.62750   0.63845
  Beta virt. eigenvalues --    0.64633   0.65517   0.65599   0.67106   0.68022
  Beta virt. eigenvalues --    0.68836   0.69212   0.69824   0.72010   0.72098
  Beta virt. eigenvalues --    0.72763   0.74495   0.76379   0.76813   0.78086
  Beta virt. eigenvalues --    0.79490   0.82505   0.82559   0.82993   0.83738
  Beta virt. eigenvalues --    0.84780   0.85743   0.86277   0.88156   0.88500
  Beta virt. eigenvalues --    0.89658   0.91310   0.92873   0.93051   0.93853
  Beta virt. eigenvalues --    0.93971   0.99136   1.00583   1.01060   1.07065
  Beta virt. eigenvalues --    1.08221   1.10461   1.13238   1.13811   1.19433
  Beta virt. eigenvalues --    1.20629   1.21123   1.24632   1.26878   1.28724
  Beta virt. eigenvalues --    1.29308   1.30549   1.37679   1.37847   1.39987
  Beta virt. eigenvalues --    1.40886   1.41674   1.49415   1.55816   1.59200
  Beta virt. eigenvalues --    1.61837   1.63365   1.65134   1.68900   1.73879
  Beta virt. eigenvalues --    1.77921   1.78157   1.80721   1.80925   1.85203
  Beta virt. eigenvalues --    1.86188   1.90372   1.90954   1.94337   1.94799
  Beta virt. eigenvalues --    1.95552   1.97753   1.98938   2.02966   2.04920
  Beta virt. eigenvalues --    2.05604   2.07965   2.10277   2.12627   2.13465
  Beta virt. eigenvalues --    2.13813   2.21956   2.23743   2.24421   2.25935
  Beta virt. eigenvalues --    2.29690   2.30129   2.31095   2.31843   2.32623
  Beta virt. eigenvalues --    2.34020   2.34599   2.35993   2.36209   2.45393
  Beta virt. eigenvalues --    2.52645   2.53050   2.54062   2.56111   2.59974
  Beta virt. eigenvalues --    2.60676   2.65872   2.66657   2.69128   2.79437
  Beta virt. eigenvalues --    2.79896   2.81555   2.87678   2.89810   2.90247
  Beta virt. eigenvalues --    2.95773   2.96309   3.02580   3.08387   3.16602
  Beta virt. eigenvalues --    3.17399   3.21019   3.42006   3.44318
          Condensed to atoms (all electrons):
          Atomic-Atomic Spin Densities.
 Mulliken charges and spin densities:
               1          2
     1  C   -2.394603  -0.071001
     2  C    1.026769  -0.019440
     3  H   -0.094997  -0.007840
     4  H   -0.094995  -0.007840
     5  C    0.937766   0.032187
     6  H   -0.083974  -0.002293
     7  H   -0.091548  -0.003066
     8  H   -0.026135  -0.001569
     9  H   -0.041924   0.012044
    10  C    0.937767   0.032187
    11  H   -0.026135  -0.001569
    12  H   -0.091548  -0.003066
    13  H   -0.083975  -0.002293
    14  Si  -0.160834   1.017488
    15  H    0.144183   0.013037
    16  H    0.144183   0.013037
 Sum of Mulliken charges =  -0.00000   1.00000
 Mulliken charges and spin densities with hydrogens summed into heavy atoms:
               1          2
     1  C   -2.394603  -0.071001
     2  C    0.794853  -0.023077
     5  C    0.736109   0.025258
    10  C    0.736109   0.025258
    14  Si   0.127531   1.043561
 Electronic spatial extent (au):  <R**2>=            625.3154
 Charge=             -0.0000 electrons
 Dipole moment (field-independent basis, Debye):
    X=              0.8816    Y=             -0.0000    Z=              0.0934  Tot=              0.8866
                          Isotropic Fermi Contact Couplings
        Atom                 a.u.       MegaHertz       Gauss      10(-4) cm-1
     1  C(13)              0.01008      11.33583       4.04491       3.78123
     2  C(13)              0.01729      19.44110       6.93707       6.48485
     3  H(1)               0.00024       1.07314       0.38292       0.35796
     4  H(1)               0.00024       1.07314       0.38292       0.35796
     5  C(13)             -0.00019      -0.20986      -0.07488      -0.07000
     6  H(1)              -0.00008      -0.37707      -0.13455      -0.12578
     7  H(1)              -0.00020      -0.89114      -0.31798      -0.29725
     8  H(1)              -0.00057      -2.54008      -0.90636      -0.84728
     9  H(1)               0.00460      20.54205       7.32991       6.85209
    10  C(13)             -0.00019      -0.20986      -0.07488      -0.07000
    11  H(1)              -0.00057      -2.54008      -0.90636      -0.84728
    12  H(1)              -0.00020      -0.89115      -0.31798      -0.29725
    13  H(1)              -0.00008      -0.37707      -0.13455      -0.12578
    14  Si(29)             0.55697    -494.99394    -176.62615    -165.11221
    15  H(1)               0.00312      13.94709       4.97667       4.65225
    16  H(1)               0.00312      13.94710       4.97667       4.65225
 --------------------------------------------------------
       Center         ----  Spin Dipole Couplings  ----
                      3XX-RR        3YY-RR        3ZZ-RR
 --------------------------------------------------------
     1   Atom        0.031688     -0.018747     -0.012941
     2   Atom       -0.001578     -0.008354      0.009932
     3   Atom       -0.000262     -0.002221      0.002482
     4   Atom       -0.000262     -0.002221      0.002482
     5   Atom        0.007160     -0.003959     -0.003202
     6   Atom        0.001601      0.001331     -0.002932
     7   Atom        0.006353     -0.002641     -0.003713
     8   Atom        0.003470     -0.001721     -0.001748
     9   Atom        0.002368     -0.002292     -0.000076
    10   Atom        0.007160     -0.003959     -0.003202
    11   Atom        0.003470     -0.001721     -0.001748
    12   Atom        0.006353     -0.002641     -0.003713
    13   Atom        0.001601      0.001331     -0.002932
    14   Atom       -0.532170     -0.663169      1.195340
    15   Atom       -0.012016      0.003492      0.008524
    16   Atom       -0.012016      0.003492      0.008524
 --------------------------------------------------------
                        XY            XZ            YZ
 --------------------------------------------------------
     1   Atom       -0.000000      0.021349     -0.000000
     2   Atom       -0.000000      0.013728     -0.000000
     3   Atom       -0.001206      0.003742     -0.003762
     4   Atom        0.001206      0.003742      0.003762
     5   Atom        0.005311      0.002121      0.001904
     6   Atom        0.005321      0.001503      0.000972
     7   Atom        0.005771     -0.002964     -0.001897
     8   Atom        0.002158      0.000140     -0.000114
     9   Atom       -0.000000      0.001888     -0.000000
    10   Atom       -0.005311      0.002121     -0.001904
    11   Atom       -0.002158      0.000140      0.000114
    12   Atom       -0.005771     -0.002964      0.001897
    13   Atom       -0.005321      0.001503     -0.000972
    14   Atom       -0.000000      0.502671     -0.000001
    15   Atom       -0.009957     -0.000036      0.010348
    16   Atom        0.009957     -0.000036     -0.010348
 --------------------------------------------------------


 ---------------------------------------------------------------------------------
              Anisotropic Spin Dipole Couplings in Principal Axis System
 ---------------------------------------------------------------------------------

       Atom             a.u.   MegaHertz   Gauss  10(-4) cm-1        Axes

              Baa    -0.0215    -2.886    -1.030    -0.963 -0.3725 -0.0000  0.9281
     1 C(13)  Bbb    -0.0187    -2.516    -0.898    -0.839  0.0000  1.0000  0.0000
              Bcc     0.0403     5.402     1.928     1.802  0.9281 -0.0000  0.3725
 
              Baa    -0.0107    -1.437    -0.513    -0.479  0.8326  0.0000 -0.5538
     2 C(13)  Bbb    -0.0084    -1.121    -0.400    -0.374 -0.0000  1.0000  0.0000
              Bcc     0.0191     2.558     0.913     0.853  0.5538 -0.0000  0.8326
 
              Baa    -0.0045    -2.414    -0.861    -0.805 -0.2755  0.7779  0.5648
     3 H(1)   Bbb    -0.0022    -1.169    -0.417    -0.390  0.8292  0.4896 -0.2698
              Bcc     0.0067     3.583     1.279     1.195  0.4864 -0.3940  0.7799
 
              Baa    -0.0045    -2.414    -0.861    -0.805  0.2755  0.7779 -0.5648
     4 H(1)   Bbb    -0.0022    -1.169    -0.417    -0.390  0.8292 -0.4896 -0.2698
              Bcc     0.0067     3.583     1.279     1.195  0.4864  0.3939  0.7799
 
              Baa    -0.0064    -0.863    -0.308    -0.288 -0.2979  0.8951 -0.3319
     5 C(13)  Bbb    -0.0034    -0.457    -0.163    -0.153 -0.3055  0.2400  0.9215
              Bcc     0.0098     1.321     0.471     0.441  0.9044  0.3759  0.2019
 
              Baa    -0.0040    -2.141    -0.764    -0.714  0.6838 -0.6072 -0.4047
     6 H(1)   Bbb    -0.0031    -1.645    -0.587    -0.549  0.1719 -0.4050  0.8980
              Bcc     0.0071     3.786     1.351     1.263  0.7092  0.6836  0.1725
 
              Baa    -0.0056    -2.994    -1.068    -0.999 -0.3350  0.8745  0.3507
     7 H(1)   Bbb    -0.0044    -2.374    -0.847    -0.792  0.3665 -0.2219  0.9036
              Bcc     0.0101     5.368     1.915     1.791  0.8680  0.4312 -0.2462
 
              Baa    -0.0025    -1.351    -0.482    -0.451 -0.3360  0.9216  0.1943
     8 H(1)   Bbb    -0.0017    -0.917    -0.327    -0.306  0.0517 -0.1879  0.9808
              Bcc     0.0043     2.268     0.809     0.757  0.9405  0.3395  0.0155
 
              Baa    -0.0023    -1.223    -0.436    -0.408 -0.0000  1.0000  0.0000
     9 H(1)   Bbb    -0.0011    -0.589    -0.210    -0.196 -0.4778 -0.0000  0.8785
              Bcc     0.0034     1.812     0.646     0.604  0.8785 -0.0000  0.4778
 
              Baa    -0.0064    -0.863    -0.308    -0.288  0.2979  0.8951  0.3319
    10 C(13)  Bbb    -0.0034    -0.457    -0.163    -0.153 -0.3055 -0.2400  0.9215
              Bcc     0.0098     1.321     0.471     0.441  0.9044 -0.3759  0.2019
 
              Baa    -0.0025    -1.351    -0.482    -0.451  0.3359  0.9216 -0.1943
    11 H(1)   Bbb    -0.0017    -0.917    -0.327    -0.306  0.0517  0.1879  0.9808
              Bcc     0.0043     2.268     0.809     0.757  0.9405 -0.3395  0.0155
 
              Baa    -0.0056    -2.994    -1.068    -0.999  0.3350  0.8745 -0.3507
    12 H(1)   Bbb    -0.0044    -2.374    -0.847    -0.792  0.3665  0.2219  0.9036
              Bcc     0.0101     5.368     1.915     1.791  0.8680 -0.4312 -0.2462
 
              Baa    -0.0040    -2.141    -0.764    -0.714  0.6838  0.6072 -0.4047
    13 H(1)   Bbb    -0.0031    -1.645    -0.587    -0.549  0.1719  0.4050  0.8980
              Bcc     0.0071     3.786     1.351     1.263  0.7092 -0.6836  0.1725
 
              Baa    -0.6678    70.842    25.278    23.630  0.9655  0.0000 -0.2605
    14 Si(29) Bbb    -0.6632    70.352    25.103    23.467 -0.0000  1.0000  0.0000
              Bcc     1.3310  -141.194   -50.381   -47.097  0.2605 -0.0000  0.9655
 
              Baa    -0.0178    -9.480    -3.383    -3.162  0.8495  0.4914 -0.1922
    15 H(1)   Bbb    -0.0003    -0.152    -0.054    -0.051  0.4798 -0.5677  0.6689
              Bcc     0.0181     9.632     3.437     3.213 -0.2196  0.6605  0.7181
 
              Baa    -0.0178    -9.480    -3.383    -3.162  0.8495 -0.4914 -0.1922
    16 H(1)   Bbb    -0.0003    -0.152    -0.054    -0.051  0.4798  0.5677  0.6689
              Bcc     0.0181     9.632     3.437     3.213 -0.2196 -0.6605  0.7181
 

 ---------------------------------------------------------------------------------

 Unable to Open any file for archive entry.
 1\1\GINC-SE229\Stability\UHF\Aug-CC-pVDZ\C4H11Si1\OHZDE\08-Apr-2025\0\
 \#t hf aug-cc-pvdz symm=none int=(grid=ultrafine) guess=(read,tcheck) 
 stable=opt\\title\\0,2\C,0,0.342246,0.,-0.002808\C,0,0.690788,-0.00000
 1,1.50232\H,0,0.298673,-0.884644,2.012465\H,0,0.298673,0.884642,2.0124
 66\C,0,0.929124,1.260692,-0.667124\H,0,0.531186,2.178064,-0.222631\H,0
 ,0.717867,1.289345,-1.74014\H,0,2.019037,1.281154,-0.543336\H,0,1.7814
 46,-0.000001,1.633378\C,0,0.929124,-1.260691,-0.667125\H,0,2.019037,-1
 .281153,-0.543337\H,0,0.717867,-1.289343,-1.740141\H,0,0.531187,-2.178
 064,-0.222633\Si,0,-1.5671,0.,-0.180915\H,0,-2.161629,1.212784,0.44757
 8\H,0,-2.161629,-1.212784,0.447577\\Version=ES64L-G16RevC.01\HF=-446.7
 814072\S2=0.754103\S2-1=0.\S2A=0.750007\RMSD=9.547e-09\Dipole=0.346859
 9,-0.0000004,0.0367624\Quadrupole=-0.733643,0.4314481,0.3021949,0.0000
 008,-0.1596714,-0.0000014\PG=Unknown\\@
 The archive entry for this job was punched.


 TERENCE, THIS IS STUPID STUFF:
 YOU EAT YOUR VICTUALS FAST ENOUGH;
 THERE CAN'T BE MUCH AMISS, 'TIS CLEAR
 TO SEE THE RATE YOU DRINK YOUR BEER.
 BUT OH, GOOD LORD, THE VERSE YOU MAKE,
 IT GIVES A CHAP THE BELLY-ACHE.
 THE COW, THE OLD COW, SHE IS DEAD;
 IT SLEEPS WELL, THE HORNED HEAD:
 WE POOR LADS, 'TIS OUR TURN NOW
 TO HEAR SUCH TUNES AS KILLED THE COW.
 PRETTY FRIENDSHIP 'TIS TO RHYME
 YOUR FRIENDS TO DEATH BEFORE THEIR TIME.
 MOPING, MELANCHOLY MAD:
 COME PIPE A TUNE TO DANCE TO, LAD.

     -- A. E. HOUSMAN
 Job cpu time:       0 days  0 hours  9 minutes 53.6 seconds.
 Elapsed time:       0 days  0 hours  0 minutes 40.5 seconds.
 File lengths (MBytes):  RWF=    221 Int=      0 D2E=      0 Chk=      8 Scr=      1
 Normal termination of Gaussian 16 at Tue Apr  8 23:41:46 2025.
 Initial command:
 /arc/software/Gaussian/g16.c01/l1.exe "/tmp/slurm/4846578/Gau-1492812.inp" -scrdir="/tmp/slurm/4846578/"
 Entering Link 1 = /arc/software/Gaussian/g16.c01/l1.exe PID=   1493186.
  
 Copyright (c) 1988-2019, Gaussian, Inc.  All Rights Reserved.
  
 This is part of the Gaussian(R) 16 program.  It is based on
 the Gaussian(R) 09 system (copyright 2009, Gaussian, Inc.),
 the Gaussian(R) 03 system (copyright 2003, Gaussian, Inc.),
 the Gaussian(R) 98 system (copyright 1998, Gaussian, Inc.),
 the Gaussian(R) 94 system (copyright 1995, Gaussian, Inc.),
 the Gaussian 92(TM) system (copyright 1992, Gaussian, Inc.),
 the Gaussian 90(TM) system (copyright 1990, Gaussian, Inc.),
 the Gaussian 88(TM) system (copyright 1988, Gaussian, Inc.),
 the Gaussian 86(TM) system (copyright 1986, Carnegie Mellon
 University), and the Gaussian 82(TM) system (copyright 1983,
 Carnegie Mellon University). Gaussian is a federally registered
 trademark of Gaussian, Inc.
  
 This software contains proprietary and confidential information,
 including trade secrets, belonging to Gaussian, Inc.
  
 This software is provided under written license and may be
 used, copied, transmitted, or stored only in accord with that
 written license.
  
 The following legend is applicable only to US Government
 contracts under FAR:
  
                    RESTRICTED RIGHTS LEGEND
  
 Use, reproduction and disclosure by the US Government is
 subject to restrictions as set forth in subparagraphs (a)
 and (c) of the Commercial Computer Software - Restricted
 Rights clause in FAR 52.227-19.
  
 Gaussian, Inc.
 340 Quinnipiac St., Bldg. 40, Wallingford CT 06492
  
  
 ---------------------------------------------------------------
 Warning -- This program may not be used in any manner that
 competes with the business of Gaussian, Inc. or will provide
 assistance to any competitor of Gaussian, Inc.  The licensee
 of this program is prohibited from giving any competitor of
 Gaussian, Inc. access to this program.  By using this program,
 the user acknowledges that Gaussian, Inc. is engaged in the
 business of creating and licensing software in the field of
 computational chemistry and represents and warrants to the
 licensee that it is not a competitor of Gaussian, Inc. and that
 it will not use this program in any manner prohibited above.
 ---------------------------------------------------------------
  

 Cite this work as:
 Gaussian 16, Revision C.01,
 M. J. Frisch, G. W. Trucks, H. B. Schlegel, G. E. Scuseria, 
 M. A. Robb, J. R. Cheeseman, G. Scalmani, V. Barone, 
 G. A. Petersson, H. Nakatsuji, X. Li, M. Caricato, A. V. Marenich, 
 J. Bloino, B. G. Janesko, R. Gomperts, B. Mennucci, H. P. Hratchian, 
 J. V. Ortiz, A. F. Izmaylov, J. L. Sonnenberg, D. Williams-Young, 
 F. Ding, F. Lipparini, F. Egidi, J. Goings, B. Peng, A. Petrone, 
 T. Henderson, D. Ranasinghe, V. G. Zakrzewski, J. Gao, N. Rega, 
 G. Zheng, W. Liang, M. Hada, M. Ehara, K. Toyota, R. Fukuda, 
 J. Hasegawa, M. Ishida, T. Nakajima, Y. Honda, O. Kitao, H. Nakai, 
 T. Vreven, K. Throssell, J. A. Montgomery, Jr., J. E. Peralta, 
 F. Ogliaro, M. J. Bearpark, J. J. Heyd, E. N. Brothers, K. N. Kudin, 
 V. N. Staroverov, T. A. Keith, R. Kobayashi, J. Normand, 
 K. Raghavachari, A. P. Rendell, J. C. Burant, S. S. Iyengar, 
 J. Tomasi, M. Cossi, J. M. Millam, M. Klene, C. Adamo, R. Cammi, 
 J. W. Ochterski, R. L. Martin, K. Morokuma, O. Farkas, 
 J. B. Foresman, and D. J. Fox, Gaussian, Inc., Wallingford CT, 2019.
 
 ******************************************
 Gaussian 16:  ES64L-G16RevC.01  3-Jul-2019
                 8-Apr-2025 
 ******************************************
 %nprocs=16
 Will use up to   16 processors via shared memory.
 %mem=30GB
 %chk=BDE49_nonexpt_1647_mol2.chk
 ----------------------------------------------------------------------
 #t hf aug-cc-pvdz iop(5/13=1,5/36=2,99/5=2) pseudo=read geom=check gue
 ss=(read,tcheck) scf=(maxcycle=1)
 ----------------------------------------------------------------------
 -----
 title
 -----
 Structure from the checkpoint file:  "BDE49_nonexpt_1647_mol2.chk"
 Charge =  0 Multiplicity = 2
 Z-Matrix found in chk file.
 C,0,0.342246,0.,-0.002808
 C,0,0.690788,-0.000001,1.50232
 H,0,0.298673,-0.884644,2.012465
 H,0,0.298673,0.884642,2.012466
 C,0,0.929124,1.260692,-0.667124
 H,0,0.531186,2.178064,-0.222631
 H,0,0.717867,1.289345,-1.74014
 H,0,2.019037,1.281154,-0.543336
 H,0,1.781446,-0.000001,1.633378
 C,0,0.929124,-1.260691,-0.667125
 H,0,2.019037,-1.281153,-0.543337
 H,0,0.717867,-1.289343,-1.740141
 H,0,0.531187,-2.178064,-0.222633
 Si,0,-1.5671,0.,-0.180915
 H,0,-2.161629,1.212784,0.447578
 H,0,-2.161629,-1.212784,0.447577
 Recover connectivity data from disk.
                    Distance matrix (angstroms):
                    1          2          3          4          5
     1  C    0.000000
     2  C    1.544957   0.000000
     3  H    2.201322   1.093890   0.000000
     4  H    2.201322   1.093890   1.769286   0.000000
     5  C    1.541131   2.520444   3.490005   2.778324   0.000000
     6  H    2.197267   2.782965   3.798670   2.592810   1.094303
     7  H    2.195865   3.489512   4.357063   3.797573   1.093990
     8  H    2.178337   2.755052   3.765960   3.106284   1.097111
     9  H    2.179083   1.098504   1.767743   1.767743   2.758280
    10  C    1.541131   2.520443   2.778324   3.490004   2.521383
    11  H    2.178337   2.755051   3.106283   3.765959   2.768431
    12  H    2.195865   3.489511   3.797572   4.357063   2.774648
    13  H    2.197268   2.782965   2.592810   3.798671   3.490124
    14  Si   1.917635   2.816263   3.012411   3.012411   2.838464
    15  H    2.818347   3.274082   3.591819   2.934218   3.285972
    16  H    2.818347   3.274081   2.934218   3.591818   4.112590
                    6          7          8          9         10
     6  H    0.000000
     7  H    1.768475   0.000000
     8  H    1.766635   1.767894   0.000000
     9  H    3.122801   3.764869   2.536906   0.000000
    10  C    3.490124   2.774649   2.768431   2.758280   0.000000
    11  H    3.779251   3.119750   2.562307   2.536905   1.097111
    12  H    3.789538   2.578688   3.119750   3.764868   1.093990
    13  H    4.356128   3.789539   3.779251   3.122800   1.094304
    14  Si   3.024650   3.051994   3.825321   3.808467   2.838464
    15  H    2.938060   3.617108   4.297040   4.292413   4.112590
    16  H    4.381584   4.397528   4.967857   4.292413   3.285972
                   11         12         13         14         15
    11  H    0.000000
    12  H    1.767894   0.000000
    13  H    1.766635   1.768475   0.000000
    14  Si   3.825321   3.051994   3.024651   0.000000
    15  H    4.967857   4.397528   4.381585   1.489736   0.000000
    16  H    4.297040   3.617108   2.938061   1.489736   2.425568
                   16
    16  H    0.000000
 Framework group  C1[X(C4H11Si)]
 Deg. of freedom    42
                         Standard orientation:                         
 ---------------------------------------------------------------------
 Center     Atomic      Atomic             Coordinates (Angstroms)
 Number     Number       Type             X           Y           Z
 ---------------------------------------------------------------------
      1          6           0        0.342246    0.000000   -0.002808
      2          6           0        0.690788   -0.000001    1.502320
      3          1           0        0.298673   -0.884644    2.012465
      4          1           0        0.298673    0.884642    2.012466
      5          6           0        0.929124    1.260692   -0.667124
      6          1           0        0.531186    2.178064   -0.222631
      7          1           0        0.717867    1.289345   -1.740140
      8          1           0        2.019037    1.281154   -0.543336
      9          1           0        1.781446   -0.000001    1.633378
     10          6           0        0.929124   -1.260691   -0.667125
     11          1           0        2.019037   -1.281153   -0.543337
     12          1           0        0.717867   -1.289343   -1.740141
     13          1           0        0.531187   -2.178064   -0.222633
     14         14           0       -1.567100    0.000000   -0.180915
     15          1           0       -2.161629    1.212784    0.447578
     16          1           0       -2.161629   -1.212784    0.447577
 ---------------------------------------------------------------------
 Rotational constants (GHZ):           4.3754209           2.8771780           2.8398079
 ======================================================================================================
                                       Pseudopotential Parameters
 ======================================================================================================
  Center     Atomic      Valence      Angular      Power
  Number     Number     Electrons     Momentum     of R      Exponent        Coefficient   SO-Coeffient
 ======================================================================================================
    1          6            6
                                      G and up 
                                                     0        0.0000010       -0.00007288    0.00000000
                                                     2        0.1200000        0.10466671    0.00000000
                                                     2        0.1400000       -0.65716157    0.00000000
                                                     2        0.1600000        1.18890794    0.00000000
                                                     2        0.2000000       -1.25772850    0.00000000
                                                     2        0.2600000        1.01188378    0.00000000
                                                     2        0.4000000       -1.09380874    0.00000000
                                                     2        0.5000000        0.96944888    0.00000000
                                                     2        1.0000000       -0.79256938    0.00000000
                                                     2        3.0000000        1.06443276    0.00000000
                                      S - G
                                                     0        0.0000010       -0.00635295    0.00000000
                                                     2        0.1200000        0.16918955    0.00000000
                                                     2        0.1600000       -0.38862576    0.00000000
                                                     2        0.2800000        0.25638263    0.00000000
                                                     2        0.5000000        0.29628419    0.00000000
                                                     2        0.9000000       -0.28791512    0.00000000
                                      P - G
                                                     0        0.0000010       -0.04756931    0.00000000
                                                     2        0.1200000        0.28430375    0.00000000
                                                     2        0.1600000       -0.69640032    0.00000000
                                                     2        0.2600000        1.13005668    0.00000000
                                                     2        0.4000000       -1.31433324    0.00000000
                                                     2        0.7000000        0.91526469    0.00000000
                                      D - G
                                                     0        0.0000010       -0.11496411    0.00000000
                                                     2        0.1200000        0.16620776    0.00000000
                                                     2        0.1800000       -0.30959819    0.00000000
                                                     2        0.3000000        0.16621458    0.00000000
                                                     2        0.6000000        0.27350556    0.00000000
                                      F - G
                                                     0        0.0000010        0.12037550    0.00000000
                                                     2        0.1200000       -0.48737077    0.00000000
                                                     2        0.1400000        0.58315350    0.00000000
                                                     2        0.3000000        0.00005188    0.00000000
                                                     2        0.5000000       -1.16063549    0.00000000
                                                     2        0.8000000        2.09053308    0.00000000
    2          6            6
                                      G and up 
                                                     0        0.0000010       -0.00007288    0.00000000
                                                     2        0.1200000        0.10466671    0.00000000
                                                     2        0.1400000       -0.65716157    0.00000000
                                                     2        0.1600000        1.18890794    0.00000000
                                                     2        0.2000000       -1.25772850    0.00000000
                                                     2        0.2600000        1.01188378    0.00000000
                                                     2        0.4000000       -1.09380874    0.00000000
                                                     2        0.5000000        0.96944888    0.00000000
                                                     2        1.0000000       -0.79256938    0.00000000
                                                     2        3.0000000        1.06443276    0.00000000
                                      S - G
                                                     0        0.0000010       -0.00635295    0.00000000
                                                     2        0.1200000        0.16918955    0.00000000
                                                     2        0.1600000       -0.38862576    0.00000000
                                                     2        0.2800000        0.25638263    0.00000000
                                                     2        0.5000000        0.29628419    0.00000000
                                                     2        0.9000000       -0.28791512    0.00000000
                                      P - G
                                                     0        0.0000010       -0.04756931    0.00000000
                                                     2        0.1200000        0.28430375    0.00000000
                                                     2        0.1600000       -0.69640032    0.00000000
                                                     2        0.2600000        1.13005668    0.00000000
                                                     2        0.4000000       -1.31433324    0.00000000
                                                     2        0.7000000        0.91526469    0.00000000
                                      D - G
                                                     0        0.0000010       -0.11496411    0.00000000
                                                     2        0.1200000        0.16620776    0.00000000
                                                     2        0.1800000       -0.30959819    0.00000000
                                                     2        0.3000000        0.16621458    0.00000000
                                                     2        0.6000000        0.27350556    0.00000000
                                      F - G
                                                     0        0.0000010        0.12037550    0.00000000
                                                     2        0.1200000       -0.48737077    0.00000000
                                                     2        0.1400000        0.58315350    0.00000000
                                                     2        0.3000000        0.00005188    0.00000000
                                                     2        0.5000000       -1.16063549    0.00000000
                                                     2        0.8000000        2.09053308    0.00000000
    3          1            1
                                      F and up 
                                                     0        0.0000010       -0.00007675    0.00000000
                                                     2        0.1200000        0.05352699    0.00000000
                                                     2        0.1400000       -0.25123645    0.00000000
                                                     2        0.1600000        0.32188106    0.00000000
                                                     2        0.2200000       -0.25206857    0.00000000
                                                     2        0.3000000        0.19290477    0.00000000
                                                     2        0.5000000       -0.10129770    0.00000000
                                                     2        0.9000000        0.00314995    0.00000000
                                                     2        1.5000000        0.18401192    0.00000000
                                      S - F
                                                     0        0.0000010        0.08065976    0.00000000
                                                     2        0.1200000       -0.09231673    0.00000000
                                                     2        0.1600000       -0.03278082    0.00000000
                                                     2        0.2800000        0.38423402    0.00000000
                                                     2        0.6000000       -1.09357590    0.00000000
                                                     2        1.1000000        1.53099489    0.00000000
                                                     2        3.0000000       -2.63300202    0.00000000
                                      P - F
                                                     0        0.0000010       -0.11638665    0.00000000
                                                     2        0.1200000        0.35468655    0.00000000
                                                     2        0.1600000       -0.59160923    0.00000000
                                                     2        0.3000000        0.49390547    0.00000000
                                                     2        0.6000000       -0.37949835    0.00000000
                                                     2        1.6000000        0.89304688    0.00000000
                                      D - F
                                                     0        0.0000010        0.05443663    0.00000000
                                                     2        0.1200000       -0.29679479    0.00000000
                                                     2        0.1400000        0.36849872    0.00000000
                                                     2        0.2400000        0.02793449    0.00000000
                                                     2        0.4000000       -0.46312857    0.00000000
                                                     2        0.7000000        0.97587598    0.00000000
                                                     2        1.5000000       -2.43431102    0.00000000
    4          1            1
                                      F and up 
                                                     0        0.0000010       -0.00007675    0.00000000
                                                     2        0.1200000        0.05352699    0.00000000
                                                     2        0.1400000       -0.25123645    0.00000000
                                                     2        0.1600000        0.32188106    0.00000000
                                                     2        0.2200000       -0.25206857    0.00000000
                                                     2        0.3000000        0.19290477    0.00000000
                                                     2        0.5000000       -0.10129770    0.00000000
                                                     2        0.9000000        0.00314995    0.00000000
                                                     2        1.5000000        0.18401192    0.00000000
                                      S - F
                                                     0        0.0000010        0.08065976    0.00000000
                                                     2        0.1200000       -0.09231673    0.00000000
                                                     2        0.1600000       -0.03278082    0.00000000
                                                     2        0.2800000        0.38423402    0.00000000
                                                     2        0.6000000       -1.09357590    0.00000000
                                                     2        1.1000000        1.53099489    0.00000000
                                                     2        3.0000000       -2.63300202    0.00000000
                                      P - F
                                                     0        0.0000010       -0.11638665    0.00000000
                                                     2        0.1200000        0.35468655    0.00000000
                                                     2        0.1600000       -0.59160923    0.00000000
                                                     2        0.3000000        0.49390547    0.00000000
                                                     2        0.6000000       -0.37949835    0.00000000
                                                     2        1.6000000        0.89304688    0.00000000
                                      D - F
                                                     0        0.0000010        0.05443663    0.00000000
                                                     2        0.1200000       -0.29679479    0.00000000
                                                     2        0.1400000        0.36849872    0.00000000
                                                     2        0.2400000        0.02793449    0.00000000
                                                     2        0.4000000       -0.46312857    0.00000000
                                                     2        0.7000000        0.97587598    0.00000000
                                                     2        1.5000000       -2.43431102    0.00000000
    5          6            6
                                      G and up 
                                                     0        0.0000010       -0.00007288    0.00000000
                                                     2        0.1200000        0.10466671    0.00000000
                                                     2        0.1400000       -0.65716157    0.00000000
                                                     2        0.1600000        1.18890794    0.00000000
                                                     2        0.2000000       -1.25772850    0.00000000
                                                     2        0.2600000        1.01188378    0.00000000
                                                     2        0.4000000       -1.09380874    0.00000000
                                                     2        0.5000000        0.96944888    0.00000000
                                                     2        1.0000000       -0.79256938    0.00000000
                                                     2        3.0000000        1.06443276    0.00000000
                                      S - G
                                                     0        0.0000010       -0.00635295    0.00000000
                                                     2        0.1200000        0.16918955    0.00000000
                                                     2        0.1600000       -0.38862576    0.00000000
                                                     2        0.2800000        0.25638263    0.00000000
                                                     2        0.5000000        0.29628419    0.00000000
                                                     2        0.9000000       -0.28791512    0.00000000
                                      P - G
                                                     0        0.0000010       -0.04756931    0.00000000
                                                     2        0.1200000        0.28430375    0.00000000
                                                     2        0.1600000       -0.69640032    0.00000000
                                                     2        0.2600000        1.13005668    0.00000000
                                                     2        0.4000000       -1.31433324    0.00000000
                                                     2        0.7000000        0.91526469    0.00000000
                                      D - G
                                                     0        0.0000010       -0.11496411    0.00000000
                                                     2        0.1200000        0.16620776    0.00000000
                                                     2        0.1800000       -0.30959819    0.00000000
                                                     2        0.3000000        0.16621458    0.00000000
                                                     2        0.6000000        0.27350556    0.00000000
                                      F - G
                                                     0        0.0000010        0.12037550    0.00000000
                                                     2        0.1200000       -0.48737077    0.00000000
                                                     2        0.1400000        0.58315350    0.00000000
                                                     2        0.3000000        0.00005188    0.00000000
                                                     2        0.5000000       -1.16063549    0.00000000
                                                     2        0.8000000        2.09053308    0.00000000
    6          1            1
                                      F and up 
                                                     0        0.0000010       -0.00007675    0.00000000
                                                     2        0.1200000        0.05352699    0.00000000
                                                     2        0.1400000       -0.25123645    0.00000000
                                                     2        0.1600000        0.32188106    0.00000000
                                                     2        0.2200000       -0.25206857    0.00000000
                                                     2        0.3000000        0.19290477    0.00000000
                                                     2        0.5000000       -0.10129770    0.00000000
                                                     2        0.9000000        0.00314995    0.00000000
                                                     2        1.5000000        0.18401192    0.00000000
                                      S - F
                                                     0        0.0000010        0.08065976    0.00000000
                                                     2        0.1200000       -0.09231673    0.00000000
                                                     2        0.1600000       -0.03278082    0.00000000
                                                     2        0.2800000        0.38423402    0.00000000
                                                     2        0.6000000       -1.09357590    0.00000000
                                                     2        1.1000000        1.53099489    0.00000000
                                                     2        3.0000000       -2.63300202    0.00000000
                                      P - F
                                                     0        0.0000010       -0.11638665    0.00000000
                                                     2        0.1200000        0.35468655    0.00000000
                                                     2        0.1600000       -0.59160923    0.00000000
                                                     2        0.3000000        0.49390547    0.00000000
                                                     2        0.6000000       -0.37949835    0.00000000
                                                     2        1.6000000        0.89304688    0.00000000
                                      D - F
                                                     0        0.0000010        0.05443663    0.00000000
                                                     2        0.1200000       -0.29679479    0.00000000
                                                     2        0.1400000        0.36849872    0.00000000
                                                     2        0.2400000        0.02793449    0.00000000
                                                     2        0.4000000       -0.46312857    0.00000000
                                                     2        0.7000000        0.97587598    0.00000000
                                                     2        1.5000000       -2.43431102    0.00000000
    7          1            1
                                      F and up 
                                                     0        0.0000010       -0.00007675    0.00000000
                                                     2        0.1200000        0.05352699    0.00000000
                                                     2        0.1400000       -0.25123645    0.00000000
                                                     2        0.1600000        0.32188106    0.00000000
                                                     2        0.2200000       -0.25206857    0.00000000
                                                     2        0.3000000        0.19290477    0.00000000
                                                     2        0.5000000       -0.10129770    0.00000000
                                                     2        0.9000000        0.00314995    0.00000000
                                                     2        1.5000000        0.18401192    0.00000000
                                      S - F
                                                     0        0.0000010        0.08065976    0.00000000
                                                     2        0.1200000       -0.09231673    0.00000000
                                                     2        0.1600000       -0.03278082    0.00000000
                                                     2        0.2800000        0.38423402    0.00000000
                                                     2        0.6000000       -1.09357590    0.00000000
                                                     2        1.1000000        1.53099489    0.00000000
                                                     2        3.0000000       -2.63300202    0.00000000
                                      P - F
                                                     0        0.0000010       -0.11638665    0.00000000
                                                     2        0.1200000        0.35468655    0.00000000
                                                     2        0.1600000       -0.59160923    0.00000000
                                                     2        0.3000000        0.49390547    0.00000000
                                                     2        0.6000000       -0.37949835    0.00000000
                                                     2        1.6000000        0.89304688    0.00000000
                                      D - F
                                                     0        0.0000010        0.05443663    0.00000000
                                                     2        0.1200000       -0.29679479    0.00000000
                                                     2        0.1400000        0.36849872    0.00000000
                                                     2        0.2400000        0.02793449    0.00000000
                                                     2        0.4000000       -0.46312857    0.00000000
                                                     2        0.7000000        0.97587598    0.00000000
                                                     2        1.5000000       -2.43431102    0.00000000
    8          1            1
                                      F and up 
                                                     0        0.0000010       -0.00007675    0.00000000
                                                     2        0.1200000        0.05352699    0.00000000
                                                     2        0.1400000       -0.25123645    0.00000000
                                                     2        0.1600000        0.32188106    0.00000000
                                                     2        0.2200000       -0.25206857    0.00000000
                                                     2        0.3000000        0.19290477    0.00000000
                                                     2        0.5000000       -0.10129770    0.00000000
                                                     2        0.9000000        0.00314995    0.00000000
                                                     2        1.5000000        0.18401192    0.00000000
                                      S - F
                                                     0        0.0000010        0.08065976    0.00000000
                                                     2        0.1200000       -0.09231673    0.00000000
                                                     2        0.1600000       -0.03278082    0.00000000
                                                     2        0.2800000        0.38423402    0.00000000
                                                     2        0.6000000       -1.09357590    0.00000000
                                                     2        1.1000000        1.53099489    0.00000000
                                                     2        3.0000000       -2.63300202    0.00000000
                                      P - F
[...]
                 (A)
       Virtual   (A) (A) (A) (A) (A) (A) (A) (A) (A) (A) (A) (A)
                 (A) (A) (A) (A) (A) (A) (A) (A) (A) (A) (A) (A)
                 (A) (A) (A) (A) (A) (A) (A) (A) (A) (A) (A) (A)
                 (A) (A) (A) (A) (A) (A) (A) (A) (A) (A) (A) (A)
                 (A) (A) (A) (A) (A) (A) (A) (A) (A) (A) (A) (A)
                 (A) (A) (A) (A) (A) (A) (A) (A) (A) (A) (A) (A)
                 (A) (A) (A) (A) (A) (A) (A) (A) (A) (A) (A) (A)
                 (A) (A) (A) (A) (A) (A) (A) (A) (A) (A) (A) (A)
                 (A) (A) (A) (A) (A) (A) (A) (A) (A) (A) (A) (A)
                 (A) (A) (A) (A) (A) (A) (A) (A) (A) (A) (A) (A)
                 (A) (A) (A) (A) (A) (A) (A) (A) (A) (A) (A) (A)
                 (A) (A) (A) (A) (A) (A) (A) (A) (A) (A) (A) (A)
                 (A) (A) (A) (A) (A) (A) (A) (A) (A) (A) (A) (A)
                 (A) (A) (A) (A) (A) (A) (A) (A) (A) (A) (A) (A)
                 (A) (A) (A) (A) (A) (A) (A) (A) (A) (A) (A) (A)
                 (A) (A) (A) (A) (A) (A) (A) (A) (A) (A) (A) (A)
                 (A)
 Beta  Orbitals:
       Occupied  (A) (A) (A) (A) (A) (A) (A) (A) (A) (A) (A) (A)
                 (A) (A) (A) (A) (A) (A) (A) (A) (A) (A) (A) (A)
       Virtual   (A) (A) (A) (A) (A) (A) (A) (A) (A) (A) (A) (A)
                 (A) (A) (A) (A) (A) (A) (A) (A) (A) (A) (A) (A)
                 (A) (A) (A) (A) (A) (A) (A) (A) (A) (A) (A) (A)
                 (A) (A) (A) (A) (A) (A) (A) (A) (A) (A) (A) (A)
                 (A) (A) (A) (A) (A) (A) (A) (A) (A) (A) (A) (A)
                 (A) (A) (A) (A) (A) (A) (A) (A) (A) (A) (A) (A)
                 (A) (A) (A) (A) (A) (A) (A) (A) (A) (A) (A) (A)
                 (A) (A) (A) (A) (A) (A) (A) (A) (A) (A) (A) (A)
                 (A) (A) (A) (A) (A) (A) (A) (A) (A) (A) (A) (A)
                 (A) (A) (A) (A) (A) (A) (A) (A) (A) (A) (A) (A)
                 (A) (A) (A) (A) (A) (A) (A) (A) (A) (A) (A) (A)
                 (A) (A) (A) (A) (A) (A) (A) (A) (A) (A) (A) (A)
                 (A) (A) (A) (A) (A) (A) (A) (A) (A) (A) (A) (A)
                 (A) (A) (A) (A) (A) (A) (A) (A) (A) (A) (A) (A)
                 (A) (A) (A) (A) (A) (A) (A) (A) (A) (A) (A) (A)
                 (A) (A) (A) (A) (A) (A) (A) (A) (A) (A) (A) (A)
                 (A) (A)
 The electronic state is 2-A.
 Alpha  occ. eigenvalues --  -69.52677 -11.23861 -11.23069 -11.22980 -11.22961
 Alpha  occ. eigenvalues --   -6.19841  -3.95785  -3.94884  -3.94849  -1.08974
 Alpha  occ. eigenvalues --   -0.93678  -0.93623  -0.78987  -0.70411  -0.61025
 Alpha  occ. eigenvalues --   -0.60821  -0.60518  -0.55092  -0.55005  -0.52577
 Alpha  occ. eigenvalues --   -0.48737  -0.48068  -0.47413  -0.41940  -0.32506
 Alpha virt. eigenvalues --    0.03622   0.04114   0.04203   0.04389   0.05982
 Alpha virt. eigenvalues --    0.06564   0.06616   0.06620   0.06774   0.09665
 Alpha virt. eigenvalues --    0.09895   0.10197   0.10284   0.11243   0.13217
 Alpha virt. eigenvalues --    0.13879   0.15290   0.16108   0.16230   0.17057
 Alpha virt. eigenvalues --    0.17740   0.17803   0.18051   0.18712   0.19911
 Alpha virt. eigenvalues --    0.20076   0.20500   0.20747   0.21080   0.22139
 Alpha virt. eigenvalues --    0.22365   0.24132   0.25087   0.26266   0.26628
 Alpha virt. eigenvalues --    0.28878   0.32337   0.33071   0.33404   0.34848
 Alpha virt. eigenvalues --    0.34895   0.35260   0.36512   0.38159   0.39266
 Alpha virt. eigenvalues --    0.40109   0.42366   0.42804   0.43804   0.45773
 Alpha virt. eigenvalues --    0.45969   0.46112   0.46132   0.47177   0.47555
 Alpha virt. eigenvalues --    0.48501   0.48650   0.48861   0.49816   0.50753
 Alpha virt. eigenvalues --    0.52283   0.52866   0.53817   0.53945   0.54563
 Alpha virt. eigenvalues --    0.55974   0.56926   0.57593   0.58516   0.60451
 Alpha virt. eigenvalues --    0.61119   0.61527   0.62397   0.63808   0.64540
 Alpha virt. eigenvalues --    0.65142   0.65624   0.66578   0.67834   0.68218
 Alpha virt. eigenvalues --    0.69233   0.69804   0.72115   0.72144   0.72549
 Alpha virt. eigenvalues --    0.74228   0.75762   0.76722   0.77398   0.78830
 Alpha virt. eigenvalues --    0.81871   0.82492   0.82500   0.83661   0.84705
 Alpha virt. eigenvalues --    0.85626   0.86058   0.88004   0.88551   0.89222
 Alpha virt. eigenvalues --    0.91242   0.92837   0.92897   0.93365   0.94045
 Alpha virt. eigenvalues --    0.98468   1.00740   1.00865   1.06547   1.08125
 Alpha virt. eigenvalues --    1.11220   1.14107   1.14475   1.19617   1.20723
 Alpha virt. eigenvalues --    1.21731   1.26626   1.28562   1.29784   1.31114
 Alpha virt. eigenvalues --    1.31743   1.39085   1.39623   1.42008   1.42925
 Alpha virt. eigenvalues --    1.44731   1.52660   1.57546   1.62398   1.64153
 Alpha virt. eigenvalues --    1.65097   1.67957   1.70073   1.74957   1.79274
 Alpha virt. eigenvalues --    1.79422   1.81837   1.82094   1.86226   1.88552
 Alpha virt. eigenvalues --    1.92494   1.93115   1.96481   1.96985   1.99032
 Alpha virt. eigenvalues --    2.00579   2.00766   2.05898   2.07191   2.07903
 Alpha virt. eigenvalues --    2.09636   2.13335   2.14162   2.15040   2.16989
 Alpha virt. eigenvalues --    2.25766   2.27868   2.28471   2.30402   2.34300
 Alpha virt. eigenvalues --    2.35669   2.36018   2.36579   2.36753   2.38350
 Alpha virt. eigenvalues --    2.38448   2.39738   2.39883   2.49597   2.54770
 Alpha virt. eigenvalues --    2.55426   2.58201   2.58762   2.62757   2.64203
 Alpha virt. eigenvalues --    2.67417   2.68449   2.72865   2.80587   2.81087
 Alpha virt. eigenvalues --    2.82193   2.93358   2.96595   2.97076   3.01409
 Alpha virt. eigenvalues --    3.02111   3.08840   3.16367   3.22169   3.23092
 Alpha virt. eigenvalues --    3.23524   3.44392   3.47203
  Beta  occ. eigenvalues --  -69.52127 -11.23800 -11.23014 -11.22979 -11.22959
  Beta  occ. eigenvalues --   -6.19012  -3.94508  -3.94478  -3.93633  -1.08717
  Beta  occ. eigenvalues --   -0.93611  -0.93509  -0.77534  -0.68008  -0.60726
  Beta  occ. eigenvalues --   -0.60694  -0.59501  -0.55038  -0.54626  -0.52546
  Beta  occ. eigenvalues --   -0.48368  -0.47855  -0.46886  -0.40880
  Beta virt. eigenvalues --    0.02634   0.03723   0.04130   0.04364   0.05646
  Beta virt. eigenvalues --    0.06097   0.06635   0.06663   0.06665   0.07888
  Beta virt. eigenvalues --    0.09671   0.10140   0.10242   0.10696   0.11541
  Beta virt. eigenvalues --    0.13327   0.14534   0.15593   0.16208   0.16832
  Beta virt. eigenvalues --    0.17326   0.17819   0.17862   0.18888   0.19583
  Beta virt. eigenvalues --    0.20476   0.20518   0.20924   0.21048   0.21792
  Beta virt. eigenvalues --    0.22147   0.23293   0.25342   0.26361   0.27890
  Beta virt. eigenvalues --    0.28027   0.29081   0.33159   0.33285   0.33886
  Beta virt. eigenvalues --    0.35017   0.35259   0.35457   0.37626   0.38276
  Beta virt. eigenvalues --    0.39910   0.40929   0.42436   0.43298   0.44432
  Beta virt. eigenvalues --    0.46123   0.46177   0.46356   0.46360   0.47363
  Beta virt. eigenvalues --    0.47793   0.48634   0.48831   0.49080   0.50380
  Beta virt. eigenvalues --    0.51984   0.52727   0.53170   0.54109   0.54143
  Beta virt. eigenvalues --    0.54756   0.57374   0.57632   0.58710   0.59303
  Beta virt. eigenvalues --    0.60651   0.61335   0.61799   0.62632   0.63943
  Beta virt. eigenvalues --    0.64744   0.65614   0.65746   0.67224   0.68168
  Beta virt. eigenvalues --    0.68742   0.69361   0.69991   0.72182   0.72249
  Beta virt. eigenvalues --    0.73066   0.74600   0.76717   0.76999   0.78193
  Beta virt. eigenvalues --    0.79362   0.82614   0.82854   0.83147   0.83921
  Beta virt. eigenvalues --    0.84870   0.85911   0.86453   0.88364   0.88736
  Beta virt. eigenvalues --    0.89806   0.91556   0.93147   0.93276   0.94145
  Beta virt. eigenvalues --    0.94242   0.99483   1.01272   1.01413   1.07909
  Beta virt. eigenvalues --    1.08788   1.11656   1.14262   1.14743   1.20596
  Beta virt. eigenvalues --    1.21561   1.22048   1.26911   1.28948   1.29951
  Beta virt. eigenvalues --    1.31212   1.32031   1.39110   1.39983   1.42290
  Beta virt. eigenvalues --    1.43004   1.45031   1.52869   1.57802   1.62603
  Beta virt. eigenvalues --    1.64178   1.65457   1.68146   1.70291   1.75142
  Beta virt. eigenvalues --    1.79322   1.79492   1.81905   1.82324   1.86354
  Beta virt. eigenvalues --    1.88721   1.92590   1.93208   1.96626   1.97059
  Beta virt. eigenvalues --    1.99386   2.00633   2.00978   2.06165   2.07306
  Beta virt. eigenvalues --    2.07951   2.09888   2.13621   2.14239   2.15097
  Beta virt. eigenvalues --    2.17313   2.25863   2.27900   2.28532   2.30805
  Beta virt. eigenvalues --    2.34411   2.35709   2.36045   2.36668   2.36836
  Beta virt. eigenvalues --    2.38421   2.38470   2.39844   2.39990   2.49876
  Beta virt. eigenvalues --    2.54838   2.55473   2.58261   2.58817   2.62786
  Beta virt. eigenvalues --    2.64378   2.67459   2.68500   2.73000   2.80606
  Beta virt. eigenvalues --    2.81132   2.82236   2.93377   2.96639   2.97081
  Beta virt. eigenvalues --    3.01459   3.02140   3.08907   3.16382   3.22315
  Beta virt. eigenvalues --    3.23190   3.23558   3.44456   3.47244
          Condensed to atoms (all electrons):
          Atomic-Atomic Spin Densities.
 Mulliken charges and spin densities:
               1          2
     1  C   -1.818497  -0.068762
     2  C    0.134652  -0.025374
     3  H    0.148219  -0.006972
     4  H    0.148220  -0.006972
     5  C    0.018885   0.034373
     6  H    0.149671  -0.002918
     7  H    0.146123  -0.003293
     8  H    0.219602  -0.001524
     9  H    0.194474   0.010035
    10  C    0.018885   0.034374
    11  H    0.219602  -0.001524
    12  H    0.146123  -0.003293
    13  H    0.149671  -0.002918
    14  Si   0.209466   1.016613
    15  H   -0.042547   0.014078
    16  H   -0.042547   0.014078
 Sum of Mulliken charges =   0.00000   1.00000
 Mulliken charges and spin densities with hydrogens summed into heavy atoms:
               1          2
     1  C   -1.818497  -0.068762
     2  C    0.625565  -0.029282
     5  C    0.534280   0.026638
    10  C    0.534280   0.026638
    14  Si   0.124372   1.044769
 Electronic spatial extent (au):  <R**2>=            624.6363
 Charge=              0.0000 electrons
 Dipole moment (field-independent basis, Debye):
    X=              0.8817    Y=             -0.0000    Z=              0.1391  Tot=              0.8926
                          Isotropic Fermi Contact Couplings
        Atom                 a.u.       MegaHertz       Gauss      10(-4) cm-1
     1  C(13)              0.01063      11.95041       4.26420       3.98623
     2  C(13)              0.01828      20.55012       7.33279       6.85478
     3  H(1)               0.00024       1.06350       0.37948       0.35475
     4  H(1)               0.00024       1.06350       0.37948       0.35475
     5  C(13)             -0.00004      -0.04100      -0.01463      -0.01367
     6  H(1)              -0.00008      -0.34342      -0.12254      -0.11455
     7  H(1)              -0.00019      -0.84135      -0.30022      -0.28064
     8  H(1)              -0.00054      -2.40293      -0.85742      -0.80153
     9  H(1)               0.00441      19.72089       7.03690       6.57818
    10  C(13)             -0.00004      -0.04099      -0.01463      -0.01367
    11  H(1)              -0.00054      -2.40293      -0.85742      -0.80153
    12  H(1)              -0.00019      -0.84135      -0.30022      -0.28064
    13  H(1)              -0.00008      -0.34342      -0.12254      -0.11455
    14  Si(29)             0.54363    -483.13539    -172.39472    -161.15662
    15  H(1)               0.00341      15.25362       5.44287       5.08806
    16  H(1)               0.00341      15.25363       5.44287       5.08806
 --------------------------------------------------------
       Center         ----  Spin Dipole Couplings  ----
                      3XX-RR        3YY-RR        3ZZ-RR
 --------------------------------------------------------
     1   Atom        0.032133     -0.019033     -0.013100
     2   Atom       -0.001536     -0.008316      0.009851
     3   Atom       -0.000281     -0.002224      0.002505
     4   Atom       -0.000281     -0.002224      0.002505
     5   Atom        0.007052     -0.003879     -0.003173
     6   Atom        0.001584      0.001353     -0.002937
     7   Atom        0.006320     -0.002637     -0.003683
     8   Atom        0.003465     -0.001719     -0.001746
     9   Atom        0.002367     -0.002293     -0.000074
    10   Atom        0.007052     -0.003879     -0.003173
    11   Atom        0.003465     -0.001719     -0.001746
    12   Atom        0.006320     -0.002637     -0.003683
    13   Atom        0.001584      0.001353     -0.002937
    14   Atom       -0.544513     -0.673570      1.218082
    15   Atom       -0.011816      0.003378      0.008439
    16   Atom       -0.011816      0.003378      0.008439
 --------------------------------------------------------
                        XY            XZ            YZ
 --------------------------------------------------------
     1   Atom       -0.000000      0.021235     -0.000000
     2   Atom       -0.000000      0.013619     -0.000000
     3   Atom       -0.001213      0.003757     -0.003807
     4   Atom        0.001213      0.003757      0.003807
     5   Atom        0.005323      0.002013      0.001830
     6   Atom        0.005325      0.001480      0.000943
     7   Atom        0.005762     -0.002971     -0.001916
     8   Atom        0.002171      0.000133     -0.000127
     9   Atom       -0.000000      0.001943     -0.000000
    10   Atom       -0.005323      0.002013     -0.001830
    11   Atom       -0.002171      0.000133      0.000127
    12   Atom       -0.005762     -0.002971      0.001916
    13   Atom       -0.005325      0.001480     -0.000943
    14   Atom       -0.000000      0.504659     -0.000001
    15   Atom       -0.009789      0.000085      0.010022
    16   Atom        0.009789      0.000085     -0.010022
 --------------------------------------------------------


 ---------------------------------------------------------------------------------
              Anisotropic Spin Dipole Couplings in Principal Axis System
 ---------------------------------------------------------------------------------

       Atom             a.u.   MegaHertz   Gauss  10(-4) cm-1        Axes

              Baa    -0.0215    -2.886    -1.030    -0.963 -0.3681 -0.0000  0.9298
     1 C(13)  Bbb    -0.0190    -2.554    -0.911    -0.852  0.0000  1.0000  0.0000
              Bcc     0.0405     5.440     1.941     1.815  0.9298 -0.0000  0.3681
 
              Baa    -0.0106    -1.423    -0.508    -0.475  0.8324  0.0000 -0.5542
     2 C(13)  Bbb    -0.0083    -1.116    -0.398    -0.372 -0.0000  1.0000  0.0000
              Bcc     0.0189     2.539     0.906     0.847  0.5542 -0.0000  0.8324
 
              Baa    -0.0046    -2.435    -0.869    -0.812 -0.2758  0.7774  0.5654
     3 H(1)   Bbb    -0.0022    -1.176    -0.420    -0.392  0.8304  0.4890 -0.2672
              Bcc     0.0068     3.611     1.288     1.204  0.4841 -0.3958  0.7804
 
              Baa    -0.0046    -2.435    -0.869    -0.812  0.2758  0.7774 -0.5654
     4 H(1)   Bbb    -0.0022    -1.176    -0.420    -0.392  0.8304 -0.4890 -0.2672
              Bcc     0.0068     3.611     1.288     1.204  0.4841  0.3958  0.7804
 
              Baa    -0.0064    -0.853    -0.305    -0.285 -0.3076  0.8960 -0.3202
     5 C(13)  Bbb    -0.0034    -0.451    -0.161    -0.151 -0.2965  0.2295  0.9270
              Bcc     0.0097     1.305     0.466     0.435  0.9042  0.3801  0.1951
 
              Baa    -0.0040    -2.144    -0.765    -0.715  0.6834 -0.6060 -0.4071
     6 H(1)   Bbb    -0.0031    -1.638    -0.585    -0.546  0.1766 -0.4039  0.8976
              Bcc     0.0071     3.782     1.350     1.262  0.7084  0.6853  0.1690
 
              Baa    -0.0056    -2.995    -1.069    -0.999 -0.3340  0.8739  0.3532
     7 H(1)   Bbb    -0.0044    -2.361    -0.842    -0.787  0.3692 -0.2234  0.9021
              Bcc     0.0100     5.356     1.911     1.786  0.8672  0.4317 -0.2480
 
              Baa    -0.0025    -1.356    -0.484    -0.452 -0.3367  0.9194  0.2035
     8 H(1)   Bbb    -0.0017    -0.914    -0.326    -0.305  0.0570 -0.1959  0.9790
              Bcc     0.0043     2.270     0.810     0.757  0.9399  0.3412  0.0136
 
              Baa    -0.0023    -1.223    -0.437    -0.408 -0.0000  1.0000  0.0000
     9 H(1)   Bbb    -0.0011    -0.613    -0.219    -0.204 -0.4838 -0.0000  0.8752
              Bcc     0.0034     1.836     0.655     0.612  0.8752 -0.0000  0.4838
 
              Baa    -0.0064    -0.853    -0.305    -0.285  0.3076  0.8960  0.3202
    10 C(13)  Bbb    -0.0034    -0.451    -0.161    -0.151 -0.2965 -0.2295  0.9270
              Bcc     0.0097     1.305     0.466     0.435  0.9042 -0.3801  0.1951
 
              Baa    -0.0025    -1.356    -0.484    -0.452  0.3367  0.9194 -0.2035
    11 H(1)   Bbb    -0.0017    -0.914    -0.326    -0.305  0.0570  0.1959  0.9790
              Bcc     0.0043     2.270     0.810     0.757  0.9399 -0.3412  0.0136
 
              Baa    -0.0056    -2.995    -1.069    -0.999  0.3340  0.8739 -0.3532
    12 H(1)   Bbb    -0.0044    -2.361    -0.842    -0.787  0.3692  0.2234  0.9021
              Bcc     0.0100     5.356     1.911     1.786  0.8672 -0.4317 -0.2480
 
              Baa    -0.0040    -2.144    -0.765    -0.715  0.6834  0.6060 -0.4071
    13 H(1)   Bbb    -0.0031    -1.638    -0.585    -0.546  0.1766  0.4039  0.8976
              Bcc     0.0071     3.782     1.350     1.262  0.7084 -0.6853  0.1690
 
              Baa    -0.6788    72.007    25.694    24.019  0.9664  0.0000 -0.2571
    14 Si(29) Bbb    -0.6736    71.455    25.497    23.835 -0.0000  1.0000  0.0000
              Bcc     1.3523  -143.462   -51.191   -47.854  0.2571 -0.0000  0.9664
 
              Baa    -0.0175    -9.333    -3.330    -3.113  0.8496  0.4910 -0.1926
    15 H(1)   Bbb    -0.0001    -0.043    -0.015    -0.014  0.4806 -0.5703  0.6662
              Bcc     0.0176     9.376     3.346     3.128 -0.2173  0.6585  0.7205
 
              Baa    -0.0175    -9.333    -3.330    -3.113  0.8496 -0.4910 -0.1926
    16 H(1)   Bbb    -0.0001    -0.043    -0.015    -0.014  0.4806  0.5703  0.6662
              Bcc     0.0176     9.376     3.346     3.128 -0.2173 -0.6585  0.7205
 

 ---------------------------------------------------------------------------------


 Test job not archived.
 1\1\GINC-SE229\SP\UHF\Aug-CC-pVDZ\C4H11Si1(2)\OHZDE\08-Apr-2025\0\\#t 
 hf aug-cc-pvdz iop(5/13=1,5/36=2,99/5=2) pseudo=read geom=check guess=
 (read,tcheck) scf=(maxcycle=1)\\title\\0,2\C,0,0.342246,0.,-0.002808\C
 ,0,0.690788,-0.000001,1.50232\H,0,0.298673,-0.884644,2.012465\H,0,0.29
 8673,0.884642,2.012466\C,0,0.929124,1.260692,-0.667124\H,0,0.531186,2.
 178064,-0.222631\H,0,0.717867,1.289345,-1.74014\H,0,2.019037,1.281154,
 -0.543336\H,0,1.781446,-0.000001,1.633378\C,0,0.929124,-1.260691,-0.66
 7125\H,0,2.019037,-1.281153,-0.543337\H,0,0.717867,-1.289343,-1.740141
 \H,0,0.531187,-2.178064,-0.222633\Si,0,-1.5671,0.,-0.180915\H,0,-2.161
 629,1.212784,0.447578\H,0,-2.161629,-1.212784,0.447577\\Version=ES64L-
 G16RevC.01\State=2-A\HF=-446.9886171\S2=0.754024\S2-1=0.\S2A=0.750007\
 RMSD=8.772e-03\Dipole=0.3468992,-0.0000004,0.0547396\Quadrupole=-0.686
 3947,0.4518798,0.2345149,0.0000008,-0.2318425,-0.0000013\PG=C01 [X(C4H
 11Si1)]\\@


 Age does not diminish the extreme disappointment of
 having a scoop of ice cream fall from the cone.
 -- Jim Fiebig
 Job cpu time:       0 days  0 hours  1 minutes 30.7 seconds.
 Elapsed time:       0 days  0 hours  0 minutes  6.8 seconds.
 File lengths (MBytes):  RWF=     14 Int=      0 D2E=      0 Chk=      8 Scr=      1
 Normal termination of Gaussian 16 at Tue Apr  8 23:41:53 2025.
