 Entering Gaussian System, Link 0=g16
 Input=BDE49_expt_1097_mol1.gjf
 Output=BDE49_expt_1097_mol1.log
 Initial command:
 /arc/software/Gaussian/g16.c01/l1.exe "/tmp/slurm/4840944/Gau-1548103.inp" -scrdir="/tmp/slurm/4840944/"
 Entering Link 1 = /arc/software/Gaussian/g16.c01/l1.exe PID=   1548104.
  
 Copyright (c) 1988-2019, Gaussian, Inc.  All Rights Reserved.
  
 This is part of the Gaussian(R) 16 program.  It is based on
 the Gaussian(R) 09 system (copyright 2009, Gaussian, Inc.),
 the Gaussian(R) 03 system (copyright 2003, Gaussian, Inc.),
 the Gaussian(R) 98 system (copyright 1998, Gaussian, Inc.),
 the Gaussian(R) 94 system (copyright 1995, Gaussian, Inc.),
 the Gaussian 92(TM) system (copyright 1992, Gaussian, Inc.),
 the Gaussian 90(TM) system (copyright 1990, Gaussian, Inc.),
 the Gaussian 88(TM) system (copyright 1988, Gaussian, Inc.),
 the Gaussian 86(TM) system (copyright 1986, Carnegie Mellon
 University), and the Gaussian 82(TM) system (copyright 1983,
 Carnegie Mellon University). Gaussian is a federally registered
 trademark of Gaussian, Inc.
  
 This software contains proprietary and confidential information,
 including trade secrets, belonging to Gaussian, Inc.
  
 This software is provided under written license and may be
 used, copied, transmitted, or stored only in accord with that
 written license.
  
 The following legend is applicable only to US Government
 contracts under FAR:
  
                    RESTRICTED RIGHTS LEGEND
  
 Use, reproduction and disclosure by the US Government is
 subject to restrictions as set forth in subparagraphs (a)
 and (c) of the Commercial Computer Software - Restricted
 Rights clause in FAR 52.227-19.
  
 Gaussian, Inc.
 340 Quinnipiac St., Bldg. 40, Wallingford CT 06492
  
  
 ---------------------------------------------------------------
 Warning -- This program may not be used in any manner that
 competes with the business of Gaussian, Inc. or will provide
 assistance to any competitor of Gaussian, Inc.  The licensee
 of this program is prohibited from giving any competitor of
 Gaussian, Inc. access to this program.  By using this program,
 the user acknowledges that Gaussian, Inc. is engaged in the
 business of creating and licensing software in the field of
 computational chemistry and represents and warrants to the
 licensee that it is not a competitor of Gaussian, Inc. and that
 it will not use this program in any manner prohibited above.
 ---------------------------------------------------------------
  

 Cite this work as:
 Gaussian 16, Revision C.01,
 M. J. Frisch, G. W. Trucks, H. B. Schlegel, G. E. Scuseria, 
 M. A. Robb, J. R. Cheeseman, G. Scalmani, V. Barone, 
 G. A. Petersson, H. Nakatsuji, X. Li, M. Caricato, A. V. Marenich, 
 J. Bloino, B. G. Janesko, R. Gomperts, B. Mennucci, H. P. Hratchian, 
 J. V. Ortiz, A. F. Izmaylov, J. L. Sonnenberg, D. Williams-Young, 
 F. Ding, F. Lipparini, F. Egidi, J. Goings, B. Peng, A. Petrone, 
 T. Henderson, D. Ranasinghe, V. G. Zakrzewski, J. Gao, N. Rega, 
 G. Zheng, W. Liang, M. Hada, M. Ehara, K. Toyota, R. Fukuda, 
 J. Hasegawa, M. Ishida, T. Nakajima, Y. Honda, O. Kitao, H. Nakai, 
 T. Vreven, K. Throssell, J. A. Montgomery, Jr., J. E. Peralta, 
 F. Ogliaro, M. J. Bearpark, J. J. Heyd, E. N. Brothers, K. N. Kudin, 
 V. N. Staroverov, T. A. Keith, R. Kobayashi, J. Normand, 
 K. Raghavachari, A. P. Rendell, J. C. Burant, S. S. Iyengar, 
 J. Tomasi, M. Cossi, J. M. Millam, M. Klene, C. Adamo, R. Cammi, 
 J. W. Ochterski, R. L. Martin, K. Morokuma, O. Farkas, 
 J. B. Foresman, and D. J. Fox, Gaussian, Inc., Wallingford CT, 2019.
 
 ******************************************
 Gaussian 16:  ES64L-G16RevC.01  3-Jul-2019
                 8-Apr-2025 
 ******************************************
 %nprocs=16
 Will use up to   16 processors via shared memory.
 %mem=30GB
 %chk=BDE49_expt_1097_mol1.chk
 ----------------------------------------------------------------------
 #t hf aug-cc-pvdz symm=none int=(grid=ultrafine) guess=(read,tcheck) s
 table=(opt,rrhf)
 ----------------------------------------------------------------------
 -----
 title
 -----
 Symbolic Z-matrix:
 Charge =  0 Multiplicity = 1
 C                    -3.27849  -1.55036  -0.14069 
 C                    -2.24936  -0.98477  -0.89155 
 C                    -3.79978  -0.86743   0.95467 
 C                    -3.28777   0.38488   1.29091 
 C                    -2.26167   0.94943   0.53898 
 C                    -1.7285    0.26949  -0.56234 
 H                    -1.85486  -1.52137  -1.74884 
 H                    -3.68953   0.92526   2.14085 
 H                    -1.86709   1.92419   0.80352 
 H                    -3.67193  -2.52332  -0.41361 
 H                    -4.5995   -1.30562   1.54093 
 C                     0.56642   1.34726  -0.54295 
 O                     0.61868   2.49447  -0.14155 
 C                     1.64516   0.36621  -0.19411 
 C                    -0.62422   0.90203  -1.39607 
 H                    -0.99771   1.8092   -1.87717 
 H                    -0.31048   0.21174  -2.1816 
 C                     1.59619  -0.98618  -0.55393 
 C                     2.74906   0.83771   0.53071 
 C                     3.78228  -0.02059   0.88085 
 C                     2.62973  -1.84814  -0.19698 
 C                     3.72443  -1.36696   0.51724 
 H                     4.63315   0.35516   1.43775 
 H                     4.53012  -2.03875   0.79173 
 H                     2.76968   1.88491   0.80555 
 H                     0.748    -1.37794  -1.09989 
 H                     2.57977  -2.89459  -0.47532 
 
                    Distance matrix (angstroms):
                    1          2          3          4          5
     1  C    0.000000
     2  C    1.393837   0.000000
     3  C    1.392104   2.413725   0.000000
     4  C    2.407228   2.778016   1.394092   0.000000
     5  C    2.782953   2.405760   2.416515   1.391763   0.000000
     6  C    2.427368   1.397443   2.807862   2.424703   1.399816
     7  H    2.147950   1.085591   3.394006   3.863558   3.391814
     8  H    3.391622   3.862348   2.152421   1.084348   2.146009
     9  H    3.867314   3.388431   3.398715   2.150663   1.084362
    10  H    1.084401   2.149248   2.151860   3.392728   3.867330
    11  H    2.152397   3.397502   1.084095   2.154278   3.399201
    12  C    4.831286   3.672669   5.119702   4.375383   3.053996
    13  O    5.616821   4.570923   5.659231   4.665053   3.338670
    14  C    5.283791   4.180775   5.699906   5.151647   4.017572
    15  C    3.825618   2.540797   4.329101   3.818613   2.535327
    16  H    4.416332   3.216268   4.799504   4.160506   2.859121
    17  H    4.009911   2.618231   4.814142   4.577396   3.428241
    18  C    4.924585   3.860338   5.604142   5.397804   4.452420
    19  C    6.518056   5.507129   6.780454   6.101337   5.011981
    20  C    7.296454   6.360167   7.629564   7.093534   6.130835
    21  C    5.915983   5.003330   6.605045   6.497459   5.682758
    22  C    7.036144   6.149541   7.553444   7.269003   6.418678
    23  H    8.289545   7.388503   8.534777   7.922340   6.978500
    24  H    7.879232   7.064391   8.413426   8.200156   7.424380
    25  H    7.019742   6.025440   7.124278   6.259259   5.124510
    26  H    4.142750   3.030203   5.016380   5.011074   4.142532
    27  H    6.019813   5.209718   6.844920   6.950007   6.264569
                    6          7          8          9         10
     6  C    0.000000
     7  H    2.151953   0.000000
     8  H    3.403365   4.947892   0.000000
     9  H    2.150077   4.287955   2.471350   0.000000
    10  H    3.405707   2.467489   4.291652   4.951689   0.000000
    11  H    3.891956   4.289771   2.482894   4.294352   2.482618
    12  C    2.535470   3.942810   5.049148   2.840388   5.741229
    13  O    3.261426   4.982846   5.121762   2.719829   6.607697
    14  C    3.395079   4.269691   5.850083   3.969702   6.055495
    15  C    1.521396   2.740761   4.680430   2.725389   4.689010
    16  H    2.152566   3.441491   4.916473   2.820489   5.297570
    17  H    2.153162   2.361367   5.532685   3.777098   4.680354
    18  C    3.553915   3.691061   6.233312   4.723053   5.489585
    19  C    4.643942   5.653109   6.637441   4.750132   7.308721
    20  C    5.704005   6.398820   7.636109   5.975250   7.968973
    21  C    4.859217   4.756737   7.286296   5.954231   6.341424
    22  C    5.794641   6.023898   7.928243   6.494515   7.543851
    23  H    6.669205   7.467926   8.371757   6.716940   8.982623
    24  H    6.806746   6.891306   8.841266   7.525247   8.304290
    25  H    4.971347   6.286009   6.665226   4.636936   7.900198
    26  H    3.022584   2.686366   5.958077   4.622307   4.617211
    27  H    5.346045   4.813888   7.793569   6.680625   6.263019
                   11         12         13         14         15
    11  H    0.000000
    12  C    6.169842   0.000000
    13  O    6.670895   1.216534   0.000000
    14  C    6.693365   1.499284   2.363462   0.000000
    15  C    5.413177   1.530899   2.377919   2.623339   0.000000
    16  H    5.861601   2.107133   2.468741   3.449592   1.092663
    17  H    5.878371   2.177962   3.199376   2.792583   1.091781
    18  C    6.548052   2.550582   3.638750   1.400289   3.033926
    19  C    7.721122   2.485219   2.781241   1.402235   3.885306
    20  C    8.505365   3.773593   4.168839   2.423307   5.045078
    21  C    7.454953   3.819361   4.785986   2.423365   4.425991
    22  C    8.386858   4.296978   4.999033   2.798788   5.264956
    23  H    9.381399   4.630954   4.815266   3.404575   5.997456
    24  H    9.189596   5.381203   6.059739   3.883123   6.324699
    25  H    8.063806   2.638534   2.428031   2.137826   4.163133
    26  H    5.964464   2.787445   3.991329   2.160411   2.677489
    27  H    7.624436   4.695901   5.744504   3.403731   5.052490
                   16         17         18         19         20
    16  H    0.000000
    17  H    1.765455   0.000000
    18  C    4.036504   2.778432   0.000000
    19  C    4.558500   4.136330   2.414980   0.000000
    20  C    5.814041   5.116957   2.787464   1.388103   0.000000
    21  C    5.418251   4.102029   1.392337   2.785240   2.414542
    22  C    6.174118   5.104557   2.412842   2.410830   1.395803
    23  H    6.693984   6.128596   3.871578   2.146012   1.084115
    24  H    7.244762   6.110384   3.395096   3.393275   2.154100
    25  H    4.625566   4.605420   3.386503   1.082860   2.159163
    26  H    3.716114   2.194893   1.082112   3.401792   3.869440
    27  H    6.073648   4.573210   2.148412   3.869219   3.397809
                   21         22         23         24         25
    21  C    0.000000
    22  C    1.392840   0.000000
    23  H    3.397139   2.153791   0.000000
    24  H    2.150667   1.084335   2.481681   0.000000
    25  H    3.867855   3.401373   2.492458   4.300516   0.000000
    26  H    2.139448   3.387380   4.953546   4.280109   4.285328
    27  H    1.083992   2.151528   4.293844   2.478257   4.951803
                   26         27
    26  H    0.000000
    27  H    2.458804   0.000000
 Symmetry turned off by external request.
 Rotational constants (GHZ):           1.1603606           0.3576314           0.3140465
   453 basis functions,   777 primitive gaussians,   483 cartesian basis functions
    52 alpha electrons       52 beta electrons
       nuclear repulsion energy       876.7117804008 Hartrees.
 NAtoms=   27 NActive=   27 NUniq=   27 SFac= 1.00D+00 NAtFMM=   60 NAOKFM=F Big=F
 ExpMin= 2.97D-02 ExpMax= 1.17D+04 ExpMxC= 4.01D+02 IAcc=3 IRadAn=         5 AccDes= 0.00D+00
 Harris functional with IExCor=  205 and IRadAn=       5 diagonalized for initial guess.
 HarFok:  IExCor=  205 AccDes= 0.00D+00 IRadAn=         5 IDoV= 1 UseB2=F ITyADJ=14
 ICtDFT=  3500011 ScaDFX=  1.000000  1.000000  1.000000  1.000000
 FoFCou: FMM=F IPFlag=           0 FMFlag=      100000 FMFlg1=           0
         NFxFlg=           0 DoJE=T BraDBF=F KetDBF=T FulRan=T
         wScrn=  0.000000 ICntrl=       500 IOpCl=  0 I1Cent=   200000004 NGrid=           0
         NMat0=    1 NMatS0=      1 NMatT0=    0 NMatD0=    1 NMtDS0=    0 NMtDT0=    0
 Symmetry not used in FoFCou.
 SCF Done:  E(RHF) =  -612.086313167     A.U. after   16 cycles
            NFock= 16  Conv=0.39D-08     -V/T= 2.0009

 **********************************************************************

            Population analysis using the SCF Density.

 **********************************************************************

 Alpha  occ. eigenvalues --  -20.55717 -11.34522 -11.26037 -11.25853 -11.25830
 Alpha  occ. eigenvalues --  -11.25468 -11.25220 -11.25180 -11.25135 -11.24929
 Alpha  occ. eigenvalues --  -11.24655 -11.24529 -11.24465 -11.24279 -11.24007
 Alpha  occ. eigenvalues --   -1.39401  -1.16960  -1.16312  -1.07224  -1.03978
 Alpha  occ. eigenvalues --   -1.03004  -1.02101  -0.96804  -0.86989  -0.84009
 Alpha  occ. eigenvalues --   -0.83468  -0.81248  -0.76275  -0.71570  -0.69900
 Alpha  occ. eigenvalues --   -0.66262  -0.65252  -0.64383  -0.63514  -0.62102
 Alpha  occ. eigenvalues --   -0.60192  -0.59826  -0.59240  -0.58808  -0.55497
 Alpha  occ. eigenvalues --   -0.53839  -0.52421  -0.50490  -0.50315  -0.49967
 Alpha  occ. eigenvalues --   -0.49327  -0.48602  -0.42014  -0.35156  -0.34593
 Alpha  occ. eigenvalues --   -0.34051  -0.33106
 Alpha virt. eigenvalues --    0.02912   0.03516   0.03921   0.04242   0.04811
 Alpha virt. eigenvalues --    0.05330   0.05851   0.06140   0.06572   0.07204
 Alpha virt. eigenvalues --    0.07648   0.08252   0.08972   0.09799   0.10237
 Alpha virt. eigenvalues --    0.10844   0.11115   0.11432   0.11657   0.12666
 Alpha virt. eigenvalues --    0.13092   0.13298   0.13781   0.14165   0.14416
 Alpha virt. eigenvalues --    0.14467   0.14753   0.14901   0.15387   0.15670
 Alpha virt. eigenvalues --    0.15980   0.16211   0.16535   0.16905   0.16940
 Alpha virt. eigenvalues --    0.17334   0.17764   0.18173   0.18312   0.18890
 Alpha virt. eigenvalues --    0.19423   0.19687   0.20283   0.20596   0.20998
 Alpha virt. eigenvalues --    0.21347   0.21472   0.22182   0.22438   0.22850
 Alpha virt. eigenvalues --    0.22989   0.24097   0.25007   0.25480   0.25944
 Alpha virt. eigenvalues --    0.26630   0.27144   0.27890   0.28166   0.28286
 Alpha virt. eigenvalues --    0.29832   0.30227   0.30849   0.31418   0.31979
 Alpha virt. eigenvalues --    0.32356   0.32671   0.33026   0.33080   0.33397
 Alpha virt. eigenvalues --    0.33995   0.34043   0.34490   0.34734   0.35313
 Alpha virt. eigenvalues --    0.35968   0.36462   0.36673   0.36711   0.37241
 Alpha virt. eigenvalues --    0.37337   0.37967   0.38310   0.38581   0.39098
 Alpha virt. eigenvalues --    0.39333   0.40238   0.40405   0.40513   0.41333
 Alpha virt. eigenvalues --    0.41788   0.42795   0.42999   0.43338   0.44027
 Alpha virt. eigenvalues --    0.44482   0.45135   0.45581   0.45904   0.46071
 Alpha virt. eigenvalues --    0.47611   0.47906   0.48778   0.49340   0.49634
 Alpha virt. eigenvalues --    0.50372   0.50992   0.51464   0.53493   0.53586
 Alpha virt. eigenvalues --    0.54179   0.55287   0.55646   0.56057   0.56633
 Alpha virt. eigenvalues --    0.57068   0.57669   0.58934   0.59210   0.59542
 Alpha virt. eigenvalues --    0.59590   0.60372   0.61146   0.61337   0.61717
 Alpha virt. eigenvalues --    0.62315   0.62792   0.63462   0.64412   0.64929
 Alpha virt. eigenvalues --    0.65719   0.66009   0.66658   0.66945   0.67268
 Alpha virt. eigenvalues --    0.67609   0.67956   0.68641   0.68740   0.68897
 Alpha virt. eigenvalues --    0.69357   0.69664   0.70326   0.70477   0.70801
 Alpha virt. eigenvalues --    0.71512   0.71698   0.71941   0.72084   0.72695
 Alpha virt. eigenvalues --    0.73477   0.74195   0.75000   0.75459   0.76104
 Alpha virt. eigenvalues --    0.76660   0.77024   0.78060   0.78507   0.78736
 Alpha virt. eigenvalues --    0.79163   0.79890   0.81187   0.82021   0.82316
 Alpha virt. eigenvalues --    0.82900   0.84306   0.84840   0.85936   0.86013
 Alpha virt. eigenvalues --    0.86375   0.87620   0.88307   0.88675   0.89221
 Alpha virt. eigenvalues --    0.89687   0.90157   0.90855   0.92150   0.92544
 Alpha virt. eigenvalues --    0.93138   0.93735   0.94046   0.94262   0.94547
 Alpha virt. eigenvalues --    0.95416   0.95919   0.96491   0.96975   0.97092
 Alpha virt. eigenvalues --    0.97836   0.98360   0.98925   0.99381   0.99710
 Alpha virt. eigenvalues --    0.99953   1.01164   1.01758   1.02407   1.03050
 Alpha virt. eigenvalues --    1.03534   1.04227   1.05456   1.05715   1.06514
 Alpha virt. eigenvalues --    1.07612   1.09433   1.10108   1.11407   1.12155
 Alpha virt. eigenvalues --    1.13854   1.14384   1.15601   1.16594   1.17976
 Alpha virt. eigenvalues --    1.18926   1.19001   1.20364   1.21248   1.22466
 Alpha virt. eigenvalues --    1.23150   1.24311   1.25821   1.27753   1.28408
 Alpha virt. eigenvalues --    1.29778   1.31260   1.32421   1.35078   1.35730
 Alpha virt. eigenvalues --    1.38338   1.39589   1.40351   1.44539   1.46497
 Alpha virt. eigenvalues --    1.47604   1.49975   1.50112   1.50630   1.51688
 Alpha virt. eigenvalues --    1.52639   1.53008   1.54151   1.55294   1.56026
 Alpha virt. eigenvalues --    1.56692   1.57340   1.58387   1.58915   1.59851
 Alpha virt. eigenvalues --    1.60937   1.61400   1.61694   1.62479   1.63372
 Alpha virt. eigenvalues --    1.63748   1.64347   1.65403   1.66262   1.66813
 Alpha virt. eigenvalues --    1.67716   1.68588   1.70891   1.71598   1.72486
 Alpha virt. eigenvalues --    1.73019   1.73415   1.73759   1.74317   1.74685
 Alpha virt. eigenvalues --    1.75199   1.77317   1.77584   1.78881   1.80156
 Alpha virt. eigenvalues --    1.80528   1.82359   1.82880   1.84278   1.84495
 Alpha virt. eigenvalues --    1.85850   1.86416   1.87767   1.88134   1.89948
 Alpha virt. eigenvalues --    1.90050   1.91570   1.93094   1.93708   1.95338
 Alpha virt. eigenvalues --    1.95451   1.95995   1.96381   1.97336   1.97734
 Alpha virt. eigenvalues --    1.98580   1.99506   1.99676   2.00329   2.00729
 Alpha virt. eigenvalues --    2.01912   2.02610   2.03928   2.04989   2.06827
 Alpha virt. eigenvalues --    2.08633   2.08899   2.10364   2.10933   2.12067
 Alpha virt. eigenvalues --    2.13508   2.13726   2.14703   2.15615   2.17210
 Alpha virt. eigenvalues --    2.17677   2.19200   2.19318   2.21383   2.21739
 Alpha virt. eigenvalues --    2.22751   2.24199   2.25156   2.26215   2.26723
 Alpha virt. eigenvalues --    2.28366   2.29306   2.29920   2.30586   2.31664
 Alpha virt. eigenvalues --    2.32454   2.33618   2.34510   2.36184   2.37363
 Alpha virt. eigenvalues --    2.38082   2.39279   2.40103   2.40295   2.40890
 Alpha virt. eigenvalues --    2.42230   2.42762   2.43478   2.45726   2.47746
 Alpha virt. eigenvalues --    2.49998   2.50844   2.52844   2.55053   2.57759
 Alpha virt. eigenvalues --    2.59463   2.60989   2.62931   2.64868   2.65608
 Alpha virt. eigenvalues --    2.67545   2.68719   2.72168   2.76797   2.79073
 Alpha virt. eigenvalues --    2.81394   2.82024   2.82531   2.83586   2.84407
 Alpha virt. eigenvalues --    2.87876   2.89911   2.91349   2.96520   2.96774
 Alpha virt. eigenvalues --    2.98833   3.00983   3.02125   3.05003   3.09243
 Alpha virt. eigenvalues --    3.13906   3.15948   3.17096   3.17764   3.20774
 Alpha virt. eigenvalues --    3.23297   3.30126   3.31690   3.35039   3.39671
 Alpha virt. eigenvalues --    3.40170   3.47714   3.48880   3.67179   3.70865
 Alpha virt. eigenvalues --    3.77551   3.85174   3.86723   3.87799   3.89155
 Alpha virt. eigenvalues --    3.94403   3.97751   4.08362   4.22631   4.82655
 Alpha virt. eigenvalues --    4.85965
          Condensed to atoms (all electrons):
 Mulliken charges:
               1
     1  C    0.245716
     2  C    0.784519
     3  C    0.668847
     4  C    0.151699
     5  C    0.329549
     6  C    0.439939
     7  H   -0.663036
     8  H   -0.478796
     9  H   -0.639734
    10  H   -0.477470
    11  H   -0.441511
    12  C    0.105537
    13  O   -0.919421
    14  C    1.289350
    15  C    0.800938
    16  H   -0.157727
    17  H   -0.171849
    18  C    0.870352
    19  C   -0.023654
    20  C    0.424423
    21  C    0.083662
    22  C    0.518032
    23  H   -0.440380
    24  H   -0.439565
    25  H   -0.638076
    26  H   -0.736357
    27  H   -0.484985
 Sum of Mulliken charges =  -0.00000
 Mulliken charges with hydrogens summed into heavy atoms:
               1
     1  C   -0.231754
     2  C    0.121482
     3  C    0.227335
     4  C   -0.327096
     5  C   -0.310185
     6  C    0.439939
    12  C    0.105537
    13  O   -0.919421
    14  C    1.289350
    15  C    0.471362
    18  C    0.133995
    19  C   -0.661729
    20  C   -0.015958
    21  C   -0.401323
    22  C    0.078467
 Electronic spatial extent (au):  <R**2>=           3586.9303
 Charge=             -0.0000 electrons
 Dipole moment (field-independent basis, Debye):
    X=              0.3226    Y=             -3.0956    Z=             -0.5274  Tot=              3.1567
 NROrb=    453 NOA=    52 NOB=    52 NVA=   401 NVB=   401

 **** Warning!!: The largest alpha MO coefficient is  0.11533008D+03

    12 initial guesses have been made.
 Iteration     1 Dimension    12 NMult     0 NNew     12
 New state      1 was old state     10
 Iteration     2 Dimension    24 NMult    12 NNew     12
 Iteration     3 Dimension    27 NMult    24 NNew      3
 New state      1 was old state      2
 Iteration     4 Dimension    30 NMult    27 NNew      3
 Iteration     5 Dimension    33 NMult    30 NNew      3
 Iteration     6 Dimension    36 NMult    33 NNew      3
 Iteration     7 Dimension    39 NMult    36 NNew      3
 Iteration     8 Dimension    42 NMult    39 NNew      3
 Iteration     9 Dimension    45 NMult    42 NNew      3
 Iteration    10 Dimension    48 NMult    45 NNew      3
 ***********************************************************************
 Stability analysis using <AA,BB:AA,BB> singles matrix:
 ***********************************************************************
 Ground to excited state transition densities written to RWF  633

 Eigenvectors of the stability matrix:
 
 Excited state symmetry could not be determined.
 Eigenvector   1:      Singlet-?Sym  Eigenvalue= 0.1625692  <S**2>=0.000
      49 -> 61        -0.26396
      49 -> 67        -0.22050
      49 -> 69        -0.16757
      50 -> 60        -0.10219
      50 -> 61         0.34885
      50 -> 66        -0.10186
      50 -> 67        -0.20940
      50 -> 68        -0.11233
 The wavefunction is stable under the perturbations considered.
 The wavefunction is already stable.

 **********************************************************************

            Population analysis using the SCF Density.

 **********************************************************************

 Alpha  occ. eigenvalues --  -20.55717 -11.34522 -11.26037 -11.25853 -11.25830
 Alpha  occ. eigenvalues --  -11.25468 -11.25220 -11.25180 -11.25135 -11.24929
 Alpha  occ. eigenvalues --  -11.24655 -11.24529 -11.24465 -11.24279 -11.24007
 Alpha  occ. eigenvalues --   -1.39401  -1.16960  -1.16312  -1.07224  -1.03978
 Alpha  occ. eigenvalues --   -1.03004  -1.02101  -0.96804  -0.86989  -0.84009
 Alpha  occ. eigenvalues --   -0.83468  -0.81248  -0.76275  -0.71570  -0.69900
 Alpha  occ. eigenvalues --   -0.66262  -0.65252  -0.64383  -0.63514  -0.62102
 Alpha  occ. eigenvalues --   -0.60192  -0.59826  -0.59240  -0.58808  -0.55497
 Alpha  occ. eigenvalues --   -0.53839  -0.52421  -0.50490  -0.50315  -0.49967
 Alpha  occ. eigenvalues --   -0.49327  -0.48602  -0.42014  -0.35156  -0.34593
 Alpha  occ. eigenvalues --   -0.34051  -0.33106
 Alpha virt. eigenvalues --    0.02912   0.03516   0.03921   0.04242   0.04811
 Alpha virt. eigenvalues --    0.05330   0.05851   0.06140   0.06572   0.07204
 Alpha virt. eigenvalues --    0.07648   0.08252   0.08972   0.09799   0.10237
 Alpha virt. eigenvalues --    0.10844   0.11115   0.11432   0.11657   0.12666
 Alpha virt. eigenvalues --    0.13092   0.13298   0.13781   0.14165   0.14416
 Alpha virt. eigenvalues --    0.14467   0.14753   0.14901   0.15387   0.15670
 Alpha virt. eigenvalues --    0.15980   0.16211   0.16535   0.16905   0.16940
 Alpha virt. eigenvalues --    0.17334   0.17764   0.18173   0.18312   0.18890
 Alpha virt. eigenvalues --    0.19423   0.19687   0.20283   0.20596   0.20998
 Alpha virt. eigenvalues --    0.21347   0.21472   0.22182   0.22438   0.22850
 Alpha virt. eigenvalues --    0.22989   0.24097   0.25007   0.25480   0.25944
 Alpha virt. eigenvalues --    0.26630   0.27144   0.27890   0.28166   0.28286
 Alpha virt. eigenvalues --    0.29832   0.30227   0.30849   0.31418   0.31979
 Alpha virt. eigenvalues --    0.32356   0.32671   0.33026   0.33080   0.33397
 Alpha virt. eigenvalues --    0.33995   0.34043   0.34490   0.34734   0.35313
 Alpha virt. eigenvalues --    0.35968   0.36462   0.36673   0.36711   0.37241
 Alpha virt. eigenvalues --    0.37337   0.37967   0.38310   0.38581   0.39098
 Alpha virt. eigenvalues --    0.39333   0.40238   0.40405   0.40513   0.41333
 Alpha virt. eigenvalues --    0.41788   0.42795   0.42999   0.43338   0.44027
 Alpha virt. eigenvalues --    0.44482   0.45135   0.45581   0.45904   0.46071
 Alpha virt. eigenvalues --    0.47611   0.47906   0.48778   0.49340   0.49634
 Alpha virt. eigenvalues --    0.50372   0.50992   0.51464   0.53493   0.53586
 Alpha virt. eigenvalues --    0.54179   0.55287   0.55646   0.56057   0.56633
 Alpha virt. eigenvalues --    0.57068   0.57669   0.58934   0.59210   0.59542
 Alpha virt. eigenvalues --    0.59590   0.60372   0.61146   0.61337   0.61717
 Alpha virt. eigenvalues --    0.62315   0.62792   0.63462   0.64412   0.64929
 Alpha virt. eigenvalues --    0.65719   0.66009   0.66658   0.66945   0.67268
 Alpha virt. eigenvalues --    0.67609   0.67956   0.68641   0.68740   0.68897
 Alpha virt. eigenvalues --    0.69357   0.69664   0.70326   0.70477   0.70801
 Alpha virt. eigenvalues --    0.71512   0.71698   0.71941   0.72084   0.72695
 Alpha virt. eigenvalues --    0.73477   0.74195   0.75000   0.75459   0.76104
 Alpha virt. eigenvalues --    0.76660   0.77024   0.78060   0.78507   0.78736
 Alpha virt. eigenvalues --    0.79163   0.79890   0.81187   0.82021   0.82316
 Alpha virt. eigenvalues --    0.82900   0.84306   0.84840   0.85936   0.86013
 Alpha virt. eigenvalues --    0.86375   0.87620   0.88307   0.88675   0.89221
 Alpha virt. eigenvalues --    0.89687   0.90157   0.90855   0.92150   0.92544
 Alpha virt. eigenvalues --    0.93138   0.93735   0.94046   0.94262   0.94547
 Alpha virt. eigenvalues --    0.95416   0.95919   0.96491   0.96975   0.97092
 Alpha virt. eigenvalues --    0.97836   0.98360   0.98925   0.99381   0.99710
 Alpha virt. eigenvalues --    0.99953   1.01164   1.01758   1.02407   1.03050
 Alpha virt. eigenvalues --    1.03534   1.04227   1.05456   1.05715   1.06514
 Alpha virt. eigenvalues --    1.07612   1.09433   1.10108   1.11407   1.12155
 Alpha virt. eigenvalues --    1.13854   1.14384   1.15601   1.16594   1.17976
 Alpha virt. eigenvalues --    1.18926   1.19001   1.20364   1.21248   1.22466
 Alpha virt. eigenvalues --    1.23150   1.24311   1.25821   1.27753   1.28408
 Alpha virt. eigenvalues --    1.29778   1.31260   1.32421   1.35078   1.35730
 Alpha virt. eigenvalues --    1.38338   1.39589   1.40351   1.44539   1.46497
 Alpha virt. eigenvalues --    1.47604   1.49975   1.50112   1.50630   1.51688
 Alpha virt. eigenvalues --    1.52639   1.53008   1.54151   1.55294   1.56026
 Alpha virt. eigenvalues --    1.56692   1.57340   1.58387   1.58915   1.59851
 Alpha virt. eigenvalues --    1.60937   1.61400   1.61694   1.62479   1.63372
 Alpha virt. eigenvalues --    1.63748   1.64347   1.65403   1.66262   1.66813
 Alpha virt. eigenvalues --    1.67716   1.68588   1.70891   1.71598   1.72486
 Alpha virt. eigenvalues --    1.73019   1.73415   1.73759   1.74317   1.74685
 Alpha virt. eigenvalues --    1.75199   1.77317   1.77584   1.78881   1.80156
 Alpha virt. eigenvalues --    1.80528   1.82359   1.82880   1.84278   1.84495
 Alpha virt. eigenvalues --    1.85850   1.86416   1.87767   1.88134   1.89948
 Alpha virt. eigenvalues --    1.90050   1.91570   1.93094   1.93708   1.95338
 Alpha virt. eigenvalues --    1.95451   1.95995   1.96381   1.97336   1.97734
 Alpha virt. eigenvalues --    1.98580   1.99506   1.99676   2.00329   2.00729
 Alpha virt. eigenvalues --    2.01912   2.02610   2.03928   2.04989   2.06827
 Alpha virt. eigenvalues --    2.08633   2.08899   2.10364   2.10933   2.12067
 Alpha virt. eigenvalues --    2.13508   2.13726   2.14703   2.15615   2.17210
 Alpha virt. eigenvalues --    2.17677   2.19200   2.19318   2.21383   2.21739
 Alpha virt. eigenvalues --    2.22751   2.24199   2.25156   2.26215   2.26723
 Alpha virt. eigenvalues --    2.28366   2.29306   2.29920   2.30586   2.31664
 Alpha virt. eigenvalues --    2.32454   2.33618   2.34510   2.36184   2.37363
 Alpha virt. eigenvalues --    2.38082   2.39279   2.40103   2.40295   2.40890
 Alpha virt. eigenvalues --    2.42230   2.42762   2.43478   2.45726   2.47746
 Alpha virt. eigenvalues --    2.49998   2.50844   2.52844   2.55053   2.57759
 Alpha virt. eigenvalues --    2.59463   2.60989   2.62931   2.64868   2.65608
 Alpha virt. eigenvalues --    2.67545   2.68719   2.72168   2.76797   2.79073
 Alpha virt. eigenvalues --    2.81394   2.82024   2.82531   2.83586   2.84407
 Alpha virt. eigenvalues --    2.87876   2.89911   2.91349   2.96520   2.96774
 Alpha virt. eigenvalues --    2.98833   3.00983   3.02125   3.05003   3.09243
 Alpha virt. eigenvalues --    3.13906   3.15948   3.17096   3.17764   3.20774
 Alpha virt. eigenvalues --    3.23297   3.30126   3.31690   3.35039   3.39671
 Alpha virt. eigenvalues --    3.40170   3.47714   3.48880   3.67179   3.70865
 Alpha virt. eigenvalues --    3.77551   3.85174   3.86723   3.87799   3.89155
 Alpha virt. eigenvalues --    3.94403   3.97751   4.08362   4.22631   4.82655
 Alpha virt. eigenvalues --    4.85965
          Condensed to atoms (all electrons):
 Mulliken charges:
               1
     1  C    0.245716
     2  C    0.784519
     3  C    0.668847
     4  C    0.151699
     5  C    0.329549
     6  C    0.439939
     7  H   -0.663036
     8  H   -0.478796
     9  H   -0.639734
    10  H   -0.477470
    11  H   -0.441511
    12  C    0.105537
    13  O   -0.919421
    14  C    1.289350
    15  C    0.800938
    16  H   -0.157727
    17  H   -0.171849
    18  C    0.870352
    19  C   -0.023654
    20  C    0.424423
    21  C    0.083662
    22  C    0.518032
    23  H   -0.440380
    24  H   -0.439565
    25  H   -0.638076
    26  H   -0.736357
    27  H   -0.484985
 Sum of Mulliken charges =  -0.00000
 Mulliken charges with hydrogens summed into heavy atoms:
               1
     1  C   -0.231754
     2  C    0.121482
     3  C    0.227335
     4  C   -0.327096
     5  C   -0.310185
     6  C    0.439939
    12  C    0.105537
    13  O   -0.919421
    14  C    1.289350
    15  C    0.471362
    18  C    0.133995
    19  C   -0.661729
    20  C   -0.015958
    21  C   -0.401323
    22  C    0.078467
 Electronic spatial extent (au):  <R**2>=           3586.9303
 Charge=             -0.0000 electrons
 Dipole moment (field-independent basis, Debye):
    X=              0.3226    Y=             -3.0956    Z=             -0.5274  Tot=              3.1567
 Unable to Open any file for archive entry.
 1\1\GINC-SE435\Stability\RHF\Aug-CC-pVDZ\C14H12O1\OHZDE\08-Apr-2025\0\
 \#t hf aug-cc-pvdz symm=none int=(grid=ultrafine) guess=(read,tcheck) 
 stable=(opt,rrhf)\\title\\0,1\C,0,-3.278489,-1.550364,-0.140694\C,0,-2
 .249359,-0.984774,-0.891547\C,0,-3.799779,-0.867429,0.954665\C,0,-3.28
 7771,0.38488,1.290911\C,0,-2.261667,0.949425,0.538978\C,0,-1.7285,0.26
 9489,-0.562341\H,0,-1.854857,-1.521367,-1.748836\H,0,-3.689525,0.92525
 8,2.14085\H,0,-1.867093,1.924191,0.803523\H,0,-3.671928,-2.523324,-0.4
 13606\H,0,-4.599498,-1.305617,1.540926\C,0,0.566417,1.347259,-0.542947
 \O,0,0.618684,2.494474,-0.141549\C,0,1.645164,0.366205,-0.194106\C,0,-
 0.624217,0.902029,-1.396066\H,0,-0.997705,1.809201,-1.877167\H,0,-0.31
 0479,0.211742,-2.181597\C,0,1.596187,-0.986177,-0.553931\C,0,2.749062,
 0.837711,0.530708\C,0,3.782283,-0.020594,0.880847\C,0,2.629727,-1.8481
 4,-0.196976\C,0,3.724425,-1.366963,0.517243\H,0,4.633152,0.35516,1.437
 745\H,0,4.530119,-2.038748,0.791734\H,0,2.769676,1.884909,0.80555\H,0,
 0.747998,-1.377938,-1.099885\H,0,2.579772,-2.894594,-0.475323\\Version
 =ES64L-G16RevC.01\HF=-612.0863132\RMSD=3.886e-09\Dipole=0.1269319,-1.2
 179073,-0.2074808\Quadrupole=4.1506763,-3.7665575,-0.3841188,-1.159664
 ,0.4346755,2.2805233\PG=Unknown\\@
 The archive entry for this job was punched.


 HE WHO LAUGHS LAST PROBABLY DIDN'T GET THE JOKE.
 Job cpu time:       0 days  2 hours  9 minutes 28.9 seconds.
 Elapsed time:       0 days  0 hours  8 minutes 19.2 seconds.
 File lengths (MBytes):  RWF=    855 Int=      0 D2E=      0 Chk=     26 Scr=      1
 Normal termination of Gaussian 16 at Tue Apr  8 22:43:37 2025.
 Initial command:
 /arc/software/Gaussian/g16.c01/l1.exe "/tmp/slurm/4840944/Gau-1548103.inp" -scrdir="/tmp/slurm/4840944/"
 Entering Link 1 = /arc/software/Gaussian/g16.c01/l1.exe PID=   1550642.
  
 Copyright (c) 1988-2019, Gaussian, Inc.  All Rights Reserved.
  
 This is part of the Gaussian(R) 16 program.  It is based on
 the Gaussian(R) 09 system (copyright 2009, Gaussian, Inc.),
 the Gaussian(R) 03 system (copyright 2003, Gaussian, Inc.),
 the Gaussian(R) 98 system (copyright 1998, Gaussian, Inc.),
 the Gaussian(R) 94 system (copyright 1995, Gaussian, Inc.),
 the Gaussian 92(TM) system (copyright 1992, Gaussian, Inc.),
 the Gaussian 90(TM) system (copyright 1990, Gaussian, Inc.),
 the Gaussian 88(TM) system (copyright 1988, Gaussian, Inc.),
 the Gaussian 86(TM) system (copyright 1986, Carnegie Mellon
 University), and the Gaussian 82(TM) system (copyright 1983,
 Carnegie Mellon University). Gaussian is a federally registered
 trademark of Gaussian, Inc.
  
 This software contains proprietary and confidential information,
 including trade secrets, belonging to Gaussian, Inc.
  
 This software is provided under written license and may be
 used, copied, transmitted, or stored only in accord with that
 written license.
  
 The following legend is applicable only to US Government
 contracts under FAR:
  
                    RESTRICTED RIGHTS LEGEND
  
 Use, reproduction and disclosure by the US Government is
 subject to restrictions as set forth in subparagraphs (a)
 and (c) of the Commercial Computer Software - Restricted
 Rights clause in FAR 52.227-19.
  
 Gaussian, Inc.
 340 Quinnipiac St., Bldg. 40, Wallingford CT 06492
  
  
 ---------------------------------------------------------------
 Warning -- This program may not be used in any manner that
 competes with the business of Gaussian, Inc. or will provide
 assistance to any competitor of Gaussian, Inc.  The licensee
 of this program is prohibited from giving any competitor of
 Gaussian, Inc. access to this program.  By using this program,
 the user acknowledges that Gaussian, Inc. is engaged in the
 business of creating and licensing software in the field of
 computational chemistry and represents and warrants to the
 licensee that it is not a competitor of Gaussian, Inc. and that
 it will not use this program in any manner prohibited above.
 ---------------------------------------------------------------
  

 Cite this work as:
 Gaussian 16, Revision C.01,
 M. J. Frisch, G. W. Trucks, H. B. Schlegel, G. E. Scuseria, 
 M. A. Robb, J. R. Cheeseman, G. Scalmani, V. Barone, 
 G. A. Petersson, H. Nakatsuji, X. Li, M. Caricato, A. V. Marenich, 
 J. Bloino, B. G. Janesko, R. Gomperts, B. Mennucci, H. P. Hratchian, 
 J. V. Ortiz, A. F. Izmaylov, J. L. Sonnenberg, D. Williams-Young, 
 F. Ding, F. Lipparini, F. Egidi, J. Goings, B. Peng, A. Petrone, 
 T. Henderson, D. Ranasinghe, V. G. Zakrzewski, J. Gao, N. Rega, 
 G. Zheng, W. Liang, M. Hada, M. Ehara, K. Toyota, R. Fukuda, 
 J. Hasegawa, M. Ishida, T. Nakajima, Y. Honda, O. Kitao, H. Nakai, 
 T. Vreven, K. Throssell, J. A. Montgomery, Jr., J. E. Peralta, 
 F. Ogliaro, M. J. Bearpark, J. J. Heyd, E. N. Brothers, K. N. Kudin, 
 V. N. Staroverov, T. A. Keith, R. Kobayashi, J. Normand, 
 K. Raghavachari, A. P. Rendell, J. C. Burant, S. S. Iyengar, 
 J. Tomasi, M. Cossi, J. M. Millam, M. Klene, C. Adamo, R. Cammi, 
 J. W. Ochterski, R. L. Martin, K. Morokuma, O. Farkas, 
 J. B. Foresman, and D. J. Fox, Gaussian, Inc., Wallingford CT, 2019.
 
 ******************************************
 Gaussian 16:  ES64L-G16RevC.01  3-Jul-2019
                 8-Apr-2025 
 ******************************************
 %nprocs=16
 Will use up to   16 processors via shared memory.
 %mem=30GB
 %chk=BDE49_expt_1097_mol1.chk
 ----------------------------------------------------------------------
 #t hf aug-cc-pvdz iop(5/13=1,5/36=2,99/5=2) pseudo=read geom=check gue
 ss=(read,tcheck) scf=(maxcycle=1)
 ----------------------------------------------------------------------
 -----
 title
 -----
 Structure from the checkpoint file:  "BDE49_expt_1097_mol1.chk"
 Charge =  0 Multiplicity = 1
 Z-Matrix found in chk file.
 C,0,-3.278489,-1.550364,-0.140694
 C,0,-2.249359,-0.984774,-0.891547
 C,0,-3.799779,-0.867429,0.954665
 C,0,-3.287771,0.38488,1.290911
 C,0,-2.261667,0.949425,0.538978
 C,0,-1.7285,0.269489,-0.562341
 H,0,-1.854857,-1.521367,-1.748836
 H,0,-3.689525,0.925258,2.14085
 H,0,-1.867093,1.924191,0.803523
 H,0,-3.671928,-2.523324,-0.413606
 H,0,-4.599498,-1.305617,1.540926
 C,0,0.566417,1.347259,-0.542947
 O,0,0.618684,2.494474,-0.141549
 C,0,1.645164,0.366205,-0.194106
 C,0,-0.624217,0.902029,-1.396066
 H,0,-0.997705,1.809201,-1.877167
 H,0,-0.310479,0.211742,-2.181597
 C,0,1.596187,-0.986177,-0.553931
 C,0,2.749062,0.837711,0.530708
 C,0,3.782283,-0.020594,0.880847
 C,0,2.629727,-1.84814,-0.196976
 C,0,3.724425,-1.366963,0.517243
 H,0,4.633152,0.35516,1.437745
 H,0,4.530119,-2.038748,0.791734
 H,0,2.769676,1.884909,0.80555
 H,0,0.747998,-1.377938,-1.099885
 H,0,2.579772,-2.894594,-0.475323
 Recover connectivity data from disk.
                    Distance matrix (angstroms):
                    1          2          3          4          5
     1  C    0.000000
     2  C    1.393837   0.000000
     3  C    1.392104   2.413725   0.000000
     4  C    2.407228   2.778016   1.394092   0.000000
     5  C    2.782953   2.405760   2.416515   1.391763   0.000000
     6  C    2.427368   1.397443   2.807862   2.424703   1.399816
     7  H    2.147950   1.085591   3.394006   3.863558   3.391814
     8  H    3.391622   3.862348   2.152421   1.084348   2.146009
     9  H    3.867314   3.388431   3.398715   2.150663   1.084362
    10  H    1.084401   2.149248   2.151860   3.392728   3.867330
    11  H    2.152397   3.397502   1.084095   2.154278   3.399201
    12  C    4.831286   3.672669   5.119702   4.375383   3.053996
    13  O    5.616821   4.570923   5.659231   4.665053   3.338670
    14  C    5.283791   4.180775   5.699906   5.151647   4.017572
    15  C    3.825618   2.540797   4.329101   3.818613   2.535327
    16  H    4.416332   3.216268   4.799504   4.160506   2.859121
    17  H    4.009911   2.618231   4.814142   4.577396   3.428241
    18  C    4.924585   3.860338   5.604142   5.397804   4.452420
    19  C    6.518056   5.507129   6.780454   6.101337   5.011981
    20  C    7.296454   6.360167   7.629564   7.093534   6.130835
    21  C    5.915983   5.003330   6.605045   6.497459   5.682758
    22  C    7.036144   6.149541   7.553444   7.269003   6.418678
    23  H    8.289545   7.388503   8.534777   7.922340   6.978500
    24  H    7.879232   7.064391   8.413426   8.200156   7.424380
    25  H    7.019742   6.025440   7.124278   6.259259   5.124510
    26  H    4.142750   3.030203   5.016380   5.011074   4.142532
    27  H    6.019813   5.209718   6.844920   6.950007   6.264569
                    6          7          8          9         10
     6  C    0.000000
     7  H    2.151953   0.000000
     8  H    3.403365   4.947892   0.000000
     9  H    2.150077   4.287955   2.471350   0.000000
    10  H    3.405707   2.467489   4.291652   4.951689   0.000000
    11  H    3.891956   4.289771   2.482894   4.294352   2.482618
    12  C    2.535470   3.942810   5.049148   2.840388   5.741229
    13  O    3.261426   4.982846   5.121762   2.719829   6.607697
    14  C    3.395079   4.269691   5.850083   3.969702   6.055495
    15  C    1.521396   2.740761   4.680430   2.725389   4.689010
    16  H    2.152566   3.441491   4.916473   2.820489   5.297570
    17  H    2.153162   2.361367   5.532685   3.777098   4.680354
    18  C    3.553915   3.691061   6.233312   4.723053   5.489585
    19  C    4.643942   5.653109   6.637441   4.750132   7.308721
    20  C    5.704005   6.398820   7.636109   5.975250   7.968973
    21  C    4.859217   4.756737   7.286296   5.954231   6.341424
    22  C    5.794641   6.023898   7.928243   6.494515   7.543851
    23  H    6.669205   7.467926   8.371757   6.716940   8.982623
    24  H    6.806746   6.891306   8.841266   7.525247   8.304290
    25  H    4.971347   6.286009   6.665226   4.636936   7.900198
    26  H    3.022584   2.686366   5.958077   4.622307   4.617211
    27  H    5.346045   4.813888   7.793569   6.680625   6.263019
                   11         12         13         14         15
    11  H    0.000000
    12  C    6.169842   0.000000
    13  O    6.670895   1.216534   0.000000
    14  C    6.693365   1.499284   2.363462   0.000000
    15  C    5.413177   1.530899   2.377919   2.623339   0.000000
    16  H    5.861601   2.107133   2.468741   3.449592   1.092663
    17  H    5.878371   2.177962   3.199376   2.792583   1.091781
    18  C    6.548052   2.550582   3.638750   1.400289   3.033926
    19  C    7.721122   2.485219   2.781241   1.402235   3.885306
    20  C    8.505365   3.773593   4.168839   2.423307   5.045078
    21  C    7.454953   3.819361   4.785986   2.423365   4.425991
    22  C    8.386858   4.296978   4.999033   2.798788   5.264956
    23  H    9.381399   4.630954   4.815266   3.404575   5.997456
    24  H    9.189596   5.381203   6.059739   3.883123   6.324699
    25  H    8.063806   2.638534   2.428031   2.137826   4.163133
    26  H    5.964464   2.787445   3.991329   2.160411   2.677489
    27  H    7.624436   4.695901   5.744504   3.403731   5.052490
                   16         17         18         19         20
    16  H    0.000000
    17  H    1.765455   0.000000
    18  C    4.036504   2.778432   0.000000
    19  C    4.558500   4.136330   2.414980   0.000000
    20  C    5.814041   5.116957   2.787464   1.388103   0.000000
    21  C    5.418251   4.102029   1.392337   2.785240   2.414542
    22  C    6.174118   5.104557   2.412842   2.410830   1.395803
    23  H    6.693984   6.128596   3.871578   2.146012   1.084115
    24  H    7.244762   6.110384   3.395096   3.393275   2.154100
    25  H    4.625566   4.605420   3.386503   1.082860   2.159163
    26  H    3.716114   2.194893   1.082112   3.401792   3.869440
    27  H    6.073648   4.573210   2.148412   3.869219   3.397809
                   21         22         23         24         25
    21  C    0.000000
    22  C    1.392840   0.000000
    23  H    3.397139   2.153791   0.000000
    24  H    2.150667   1.084335   2.481681   0.000000
    25  H    3.867855   3.401373   2.492458   4.300516   0.000000
    26  H    2.139448   3.387380   4.953546   4.280109   4.285328
    27  H    1.083992   2.151528   4.293844   2.478257   4.951803
                   26         27
    26  H    0.000000
    27  H    2.458804   0.000000
 Framework group  C1[X(C14H12O)]
 Deg. of freedom    75
                         Standard orientation:                         
 ---------------------------------------------------------------------
 Center     Atomic      Atomic             Coordinates (Angstroms)
 Number     Number       Type             X           Y           Z
 ---------------------------------------------------------------------
      1          6           0        3.278489   -1.550364    0.140694
      2          6           0        2.249359   -0.984774    0.891547
      3          6           0        3.799779   -0.867429   -0.954665
      4          6           0        3.287771    0.384880   -1.290911
      5          6           0        2.261667    0.949425   -0.538978
      6          6           0        1.728500    0.269489    0.562341
      7          1           0        1.854857   -1.521367    1.748836
      8          1           0        3.689525    0.925258   -2.140850
      9          1           0        1.867093    1.924191   -0.803523
     10          1           0        3.671928   -2.523324    0.413606
     11          1           0        4.599498   -1.305617   -1.540926
     12          6           0       -0.566417    1.347259    0.542947
     13          8           0       -0.618684    2.494474    0.141549
     14          6           0       -1.645164    0.366205    0.194106
     15          6           0        0.624217    0.902029    1.396066
     16          1           0        0.997705    1.809201    1.877167
     17          1           0        0.310479    0.211742    2.181597
     18          6           0       -1.596187   -0.986177    0.553931
     19          6           0       -2.749062    0.837711   -0.530708
     20          6           0       -3.782283   -0.020594   -0.880847
     21          6           0       -2.629727   -1.848140    0.196976
     22          6           0       -3.724425   -1.366963   -0.517243
     23          1           0       -4.633152    0.355160   -1.437745
     24          1           0       -4.530119   -2.038748   -0.791734
     25          1           0       -2.769676    1.884909   -0.805550
     26          1           0       -0.747998   -1.377938    1.099885
     27          1           0       -2.579772   -2.894594    0.475323
 ---------------------------------------------------------------------
 Rotational constants (GHZ):           1.1603606           0.3576314           0.3140465
 ======================================================================================================
                                       Pseudopotential Parameters
 ======================================================================================================
  Center     Atomic      Valence      Angular      Power
  Number     Number     Electrons     Momentum     of R      Exponent        Coefficient   SO-Coeffient
 ======================================================================================================
    1          6            6
                                      G and up 
                                                     0        0.0000010       -0.00007288    0.00000000
                                                     2        0.1200000        0.10466671    0.00000000
                                                     2        0.1400000       -0.65716157    0.00000000
                                                     2        0.1600000        1.18890794    0.00000000
                                                     2        0.2000000       -1.25772850    0.00000000
                                                     2        0.2600000        1.01188378    0.00000000
                                                     2        0.4000000       -1.09380874    0.00000000
                                                     2        0.5000000        0.96944888    0.00000000
                                                     2        1.0000000       -0.79256938    0.00000000
                                                     2        3.0000000        1.06443276    0.00000000
                                      S - G
                                                     0        0.0000010       -0.00635295    0.00000000
                                                     2        0.1200000        0.16918955    0.00000000
                                                     2        0.1600000       -0.38862576    0.00000000
                                                     2        0.2800000        0.25638263    0.00000000
                                                     2        0.5000000        0.29628419    0.00000000
                                                     2        0.9000000       -0.28791512    0.00000000
                                      P - G
                                                     0        0.0000010       -0.04756931    0.00000000
                                                     2        0.1200000        0.28430375    0.00000000
                                                     2        0.1600000       -0.69640032    0.00000000
                                                     2        0.2600000        1.13005668    0.00000000
                                                     2        0.4000000       -1.31433324    0.00000000
                                                     2        0.7000000        0.91526469    0.00000000
                                      D - G
                                                     0        0.0000010       -0.11496411    0.00000000
                                                     2        0.1200000        0.16620776    0.00000000
                                                     2        0.1800000       -0.30959819    0.00000000
                                                     2        0.3000000        0.16621458    0.00000000
                                                     2        0.6000000        0.27350556    0.00000000
                                      F - G
                                                     0        0.0000010        0.12037550    0.00000000
                                                     2        0.1200000       -0.48737077    0.00000000
                                                     2        0.1400000        0.58315350    0.00000000
                                                     2        0.3000000        0.00005188    0.00000000
                                                     2        0.5000000       -1.16063549    0.00000000
                                                     2        0.8000000        2.09053308    0.00000000
    2          6            6
                                      G and up 
                                                     0        0.0000010       -0.00007288    0.00000000
                                                     2        0.1200000        0.10466671    0.00000000
                                                     2        0.1400000       -0.65716157    0.00000000
                                                     2        0.1600000        1.18890794    0.00000000
                                                     2        0.2000000       -1.25772850    0.00000000
                                                     2        0.2600000        1.01188378    0.00000000
                                                     2        0.4000000       -1.09380874    0.00000000
                                                     2        0.5000000        0.96944888    0.00000000
                                                     2        1.0000000       -0.79256938    0.00000000
                                                     2        3.0000000        1.06443276    0.00000000
                                      S - G
                                                     0        0.0000010       -0.00635295    0.00000000
                                                     2        0.1200000        0.16918955    0.00000000
                                                     2        0.1600000       -0.38862576    0.00000000
                                                     2        0.2800000        0.25638263    0.00000000
                                                     2        0.5000000        0.29628419    0.00000000
                                                     2        0.9000000       -0.28791512    0.00000000
                                      P - G
                                                     0        0.0000010       -0.04756931    0.00000000
                                                     2        0.1200000        0.28430375    0.00000000
                                                     2        0.1600000       -0.69640032    0.00000000
                                                     2        0.2600000        1.13005668    0.00000000
                                                     2        0.4000000       -1.31433324    0.00000000
                                                     2        0.7000000        0.91526469    0.00000000
                                      D - G
                                                     0        0.0000010       -0.11496411    0.00000000
                                                     2        0.1200000        0.16620776    0.00000000
                                                     2        0.1800000       -0.30959819    0.00000000
                                                     2        0.3000000        0.16621458    0.00000000
                                                     2        0.6000000        0.27350556    0.00000000
                                      F - G
                                                     0        0.0000010        0.12037550    0.00000000
                                                     2        0.1200000       -0.48737077    0.00000000
                                                     2        0.1400000        0.58315350    0.00000000
                                                     2        0.3000000        0.00005188    0.00000000
                                                     2        0.5000000       -1.16063549    0.00000000
                                                     2        0.8000000        2.09053308    0.00000000
    3          6            6
                                      G and up 
                                                     0        0.0000010       -0.00007288    0.00000000
                                                     2        0.1200000        0.10466671    0.00000000
                                                     2        0.1400000       -0.65716157    0.00000000
                                                     2        0.1600000        1.18890794    0.00000000
                                                     2        0.2000000       -1.25772850    0.00000000
                                                     2        0.2600000        1.01188378    0.00000000
                                                     2        0.4000000       -1.09380874    0.00000000
                                                     2        0.5000000        0.96944888    0.00000000
                                                     2        1.0000000       -0.79256938    0.00000000
                                                     2        3.0000000        1.06443276    0.00000000
                                      S - G
                                                     0        0.0000010       -0.00635295    0.00000000
                                                     2        0.1200000        0.16918955    0.00000000
                                                     2        0.1600000       -0.38862576    0.00000000
                                                     2        0.2800000        0.25638263    0.00000000
                                                     2        0.5000000        0.29628419    0.00000000
                                                     2        0.9000000       -0.28791512    0.00000000
                                      P - G
                                                     0        0.0000010       -0.04756931    0.00000000
                                                     2        0.1200000        0.28430375    0.00000000
                                                     2        0.1600000       -0.69640032    0.00000000
                                                     2        0.2600000        1.13005668    0.00000000
                                                     2        0.4000000       -1.31433324    0.00000000
                                                     2        0.7000000        0.91526469    0.00000000
                                      D - G
                                                     0        0.0000010       -0.11496411    0.00000000
                                                     2        0.1200000        0.16620776    0.00000000
                                                     2        0.1800000       -0.30959819    0.00000000
                                                     2        0.3000000        0.16621458    0.00000000
                                                     2        0.6000000        0.27350556    0.00000000
                                      F - G
                                                     0        0.0000010        0.12037550    0.00000000
                                                     2        0.1200000       -0.48737077    0.00000000
                                                     2        0.1400000        0.58315350    0.00000000
                                                     2        0.3000000        0.00005188    0.00000000
                                                     2        0.5000000       -1.16063549    0.00000000
                                                     2        0.8000000        2.09053308    0.00000000
    4          6            6
                                      G and up 
                                                     0        0.0000010       -0.00007288    0.00000000
                                                     2        0.1200000        0.10466671    0.00000000
                                                     2        0.1400000       -0.65716157    0.00000000
                                                     2        0.1600000        1.18890794    0.00000000
                                                     2        0.2000000       -1.25772850    0.00000000
                                                     2        0.2600000        1.01188378    0.00000000
                                                     2        0.4000000       -1.09380874    0.00000000
                                                     2        0.5000000        0.96944888    0.00000000
                                                     2        1.0000000       -0.79256938    0.00000000
                                                     2        3.0000000        1.06443276    0.00000000
                                      S - G
                                                     0        0.0000010       -0.00635295    0.00000000
                                                     2        0.1200000        0.16918955    0.00000000
                                                     2        0.1600000       -0.38862576    0.00000000
                                                     2        0.2800000        0.25638263    0.00000000
                                                     2        0.5000000        0.29628419    0.00000000
                                                     2        0.9000000       -0.28791512    0.00000000
                                      P - G
                                                     0        0.0000010       -0.04756931    0.00000000
                                                     2        0.1200000        0.28430375    0.00000000
                                                     2        0.1600000       -0.69640032    0.00000000
                                                     2        0.2600000        1.13005668    0.00000000
                                                     2        0.4000000       -1.31433324    0.00000000
                                                     2        0.7000000        0.91526469    0.00000000
                                      D - G
                                                     0        0.0000010       -0.11496411    0.00000000
                                                     2        0.1200000        0.16620776    0.00000000
                                                     2        0.1800000       -0.30959819    0.00000000
                                                     2        0.3000000        0.16621458    0.00000000
                                                     2        0.6000000        0.27350556    0.00000000
                                      F - G
                                                     0        0.0000010        0.12037550    0.00000000
                                                     2        0.1200000       -0.48737077    0.00000000
                                                     2        0.1400000        0.58315350    0.00000000
                                                     2        0.3000000        0.00005188    0.00000000
                                                     2        0.5000000       -1.16063549    0.00000000
                                                     2        0.8000000        2.09053308    0.00000000
    5          6            6
                                      G and up 
                                                     0        0.0000010       -0.00007288    0.00000000
                                                     2        0.1200000        0.10466671    0.00000000
                                                     2        0.1400000       -0.65716157    0.00000000
                                                     2        0.1600000        1.18890794    0.00000000
                                                     2        0.2000000       -1.25772850    0.00000000
                                                     2        0.2600000        1.01188378    0.00000000
                                                     2        0.4000000       -1.09380874    0.00000000
                                                     2        0.5000000        0.96944888    0.00000000
                                                     2        1.0000000       -0.79256938    0.00000000
                                                     2        3.0000000        1.06443276    0.00000000
                                      S - G
                                                     0        0.0000010       -0.00635295    0.00000000
                                                     2        0.1200000        0.16918955    0.00000000
                                                     2        0.1600000       -0.38862576    0.00000000
                                                     2        0.2800000        0.25638263    0.00000000
                                                     2        0.5000000        0.29628419    0.00000000
                                                     2        0.9000000       -0.28791512    0.00000000
                                      P - G
                                                     0        0.0000010       -0.04756931    0.00000000
                                                     2        0.1200000        0.28430375    0.00000000
                                                     2        0.1600000       -0.69640032    0.00000000
                                                     2        0.2600000        1.13005668    0.00000000
                                                     2        0.4000000       -1.31433324    0.00000000
                                                     2        0.7000000        0.91526469    0.00000000
                                      D - G
                                                     0        0.0000010       -0.11496411    0.00000000
                                                     2        0.1200000        0.16620776    0.00000000
                                                     2        0.1800000       -0.30959819    0.00000000
                                                     2        0.3000000        0.16621458    0.00000000
                                                     2        0.6000000        0.27350556    0.00000000
                                      F - G
                                                     0        0.0000010        0.12037550    0.00000000
                                                     2        0.1200000       -0.48737077    0.00000000
                                                     2        0.1400000        0.58315350    0.00000000
                                                     2        0.3000000        0.00005188    0.00000000
                                                     2        0.5000000       -1.16063549    0.00000000
                                                     2        0.8000000        2.09053308    0.00000000
    6          6            6
                                      G and up 
                                                     0        0.0000010       -0.00007288    0.00000000
                                                     2        0.1200000        0.10466671    0.00000000
                                                     2        0.1400000       -0.65716157    0.00000000
                                                     2        0.1600000        1.18890794    0.00000000
                                                     2        0.2000000       -1.25772850    0.00000000
                                                     2        0.2600000        1.01188378    0.00000000
                                                     2        0.4000000       -1.09380874    0.00000000
                                                     2        0.5000000        0.96944888    0.00000000
                                                     2        1.0000000       -0.79256938    0.00000000
                                                     2        3.0000000        1.06443276    0.00000000
                                      S - G
                                                     0        0.0000010       -0.00635295    0.00000000
                                                     2        0.1200000        0.16918955    0.00000000
                                                     2        0.1600000       -0.38862576    0.00000000
                                                     2        0.2800000        0.25638263    0.00000000
                                                     2        0.5000000        0.29628419    0.00000000
                                                     2        0.9000000       -0.28791512    0.00000000
                                      P - G
                                                     0        0.0000010       -0.04756931    0.00000000
                                                     2        0.1200000        0.28430375    0.00000000
                                                     2        0.1600000       -0.69640032    0.00000000
                                                     2        0.2600000        1.13005668    0.00000000
                                                     2        0.4000000       -1.31433324    0.00000000
                                                     2        0.7000000        0.91526469    0.00000000
                                      D - G
                                                     0        0.0000010       -0.11496411    0.00000000
                                                     2        0.1200000        0.16620776    0.00000000
                                                     2        0.1800000       -0.30959819    0.00000000
                                                     2        0.3000000        0.16621458    0.00000000
                                                     2        0.6000000        0.27350556    0.00000000
                                      F - G
                                                     0        0.0000010        0.12037550    0.00000000
                                                     2        0.1200000       -0.48737077    0.00000000
                                                     2        0.1400000        0.58315350    0.00000000
                                                     2        0.3000000        0.00005188    0.00000000
                                                     2        0.5000000       -1.16063549    0.00000000
                                                     2        0.8000000        2.09053308    0.00000000
    7          1            1
                                      F and up 
                                                     0        0.0000010       -0.00007675    0.00000000
                                                     2        0.1200000        0.05352699    0.00000000
                                                     2        0.1400000       -0.25123645    0.00000000
                                                     2        0.1600000        0.32188106    0.00000000
                                                     2        0.2200000       -0.25206857    0.00000000
                                                     2        0.3000000        0.19290477    0.00000000
                                                     2        0.5000000       -0.10129770    0.00000000
                                                     2        0.9000000        0.00314995    0.00000000
                                                     2        1.5000000        0.18401192    0.00000000
                                      S - F
                                                     0        0.0000010        0.08065976    0.00000000
                                                     2        0.1200000       -0.09231673    0.00000000
                                                     2        0.1600000       -0.03278082    0.00000000
                                                     2        0.2800000        0.38423402    0.00000000
                                                     2        0.6000000       -1.09357590    0.00000000
                                                     2        1.1000000        1.53099489    0.00000000
                                                     2        3.0000000       -2.63300202    0.00000000
                                      P - F
                                                     0        0.0000010       -0.11638665    0.00000000
                                                     2        0.1200000        0.35468655    0.00000000
                                                     2        0.1600000       -0.59160923    0.00000000
                                                     2        0.3000000        0.49390547    0.00000000
                                                     2        0.6000000       -0.37949835    0.00000000
                                                     2        1.6000000        0.89304688    0.00000000
                                      D - F
                                                     0        0.0000010        0.05443663    0.00000000
                                                     2        0.1200000       -0.29679479    0.00000000
                                                     2        0.1400000        0.36849872    0.00000000
                                                     2        0.2400000        0.02793449    0.00000000
                                                     2        0.4000000       -0.46312857    0.00000000
                                                     2        0.7000000        0.97587598    0.00000000
                                                     2        1.5000000       -2.43431102    0.00000000
    8          1            1
                                      F and up 
                                                     0        0.0000010       -0.00007675    0.00000000
                                                     2        0.1200000        0.05352699    0.00000000
                                                     2        0.1400000       -0.25123645    0.00000000
                                                     2        0.1600000        0.32188106    0.00000000
                                                     2        0.2200000       -0.25206857    0.00000000
                                                     2        0.3000000        0.19290477    0.00000000
                                                     2        0.5000000       -0.10129770    0.00000000
                                                     2        0.9000000        0.00314995    0.00000000
                                                     2        1.5000000        0.18401192    0.00000000
                                      S - F
                                                     0        0.0000010        0.08065976    0.00000000
                                                     2        0.1200000       -0.09231673    0.00000000
                                                     2        0.1600000       -0.03278082    0.00000000
                                                     2        0.2800000        0.38423402    0.00000000
                                                     2        0.6000000       -1.09357590    0.00000000
                                                     2        1.1000000        1.53099489    0.00000000
                                                     2        3.0000000       -2.63300202    0.00000000
                                      P - F
                                                     0        0.0000010       -0.11638665    0.00000000
                                                     2        0.1200000        0.35468655    0.00000000
                                                     2        0.1600000       -0.59160923    0.00000000
                                                     2        0.3000000        0.49390547    0.00000000
                                                     2        0.6000000       -0.37949835    0.00000000
                                                     2        1.6000000        0.89304688    0.00000000
                                      D - F
                                                     0        0.0000010        0.05443663    0.00000000
                                                     2        0.1200000       -0.29679479    0.00000000
                                                     2        0.1400000        0.36849872    0.00000000
                                                     2        0.2400000        0.02793449    0.00000000
                                                     2        0.4000000       -0.46312857    0.00000000
                                                     2        0.7000000        0.97587598    0.00000000
                                                     2        1.5000000       -2.43431102    0.00000000
    9          1            1
                                      F and up 
                                                     0        0.0000010       -0.00007675    0.00000000
                                                     2        0.1200000        0.05352699    0.00000000
                                                     2        0.1400000       -0.25123645    0.00000000
                                                     2        0.1600000        0.32188106    0.00000000
                                                     2        0.2200000       -0.25206857    0.00000000
                                                     2        0.3000000        0.19290477    0.00000000
                                                     2        0.5000000       -0.10129770    0.00000000
                                                     2        0.9000000        0.00314995    0.00000000
                                                     2        1.5000000        0.18401192    0.00000000
                                      S - F
                                                     0        0.0000010        0.08065976    0.00000000
                                                     2        0.1200000       -0.09231673    0.00000000
                                                     2        0.1600000       -0.03278082    0.00000000
                                                     2        0.2800000        0.38423402    0.00000000
                                                     2        0.6000000       -1.09357590    0.00000000
                                                     2        1.1000000        1.53099489    0.00000000
                                                     2        3.0000000       -2.63300202    0.00000000
                                      P - F
                                                     0        0.0000010       -0.11638665    0.00000000
                                                     2        0.1200000        0.35468655    0.00000000
                                                     2        0.1600000       -0.59160923    0.00000000
                                                     2        0.3000000        0.49390547    0.00000000
                                                     2        0.6000000       -0.37949835    0.00000000
                                                     2        1.6000000        0.89304688    0.00000000
                                      D - F
                                                     0        0.0000010        0.05443663    0.00000000
                                                     2        0.1200000       -0.29679479    0.00000000
                                                     2        0.1400000        0.36849872    0.00000000
                                                     2        0.2400000        0.02793449    0.00000000
                                                     2        0.4000000       -0.46312857    0.00000000
                                                     2        0.7000000        0.97587598    0.00000000
                                                     2        1.5000000       -2.43431102    0.00000000
   10          1            1
                                      F and up 
                                                     0        0.0000010       -0.00007675    0.00000000
                                                     2        0.1200000        0.05352699    0.00000000
                                                     2        0.1400000       -0.25123645    0.00000000
                                                     2        0.1600000        0.32188106    0.00000000
                                                     2        0.2200000       -0.25206857    0.00000000
                                                     2        0.3000000        0.19290477    0.00000000
                                                     2        0.5000000       -0.10129770    0.00000000
                                                     2        0.9000000        0.00314995    0.00000000
                                                     2        1.5000000        0.18401192    0.00000000
                                      S - F
                                                     0        0.0000010        0.08065976    0.00000000
                                                     2        0.1200000       -0.09231673    0.00000000
                                                     2        0.1600000       -0.03278082    0.00000000
[...]
                                                     2        0.1600000        0.32188106    0.00000000
                                                     2        0.2200000       -0.25206857    0.00000000
                                                     2        0.3000000        0.19290477    0.00000000
                                                     2        0.5000000       -0.10129770    0.00000000
                                                     2        0.9000000        0.00314995    0.00000000
                                                     2        1.5000000        0.18401192    0.00000000
                                      S - F
                                                     0        0.0000010        0.08065976    0.00000000
                                                     2        0.1200000       -0.09231673    0.00000000
                                                     2        0.1600000       -0.03278082    0.00000000
                                                     2        0.2800000        0.38423402    0.00000000
                                                     2        0.6000000       -1.09357590    0.00000000
                                                     2        1.1000000        1.53099489    0.00000000
                                                     2        3.0000000       -2.63300202    0.00000000
                                      P - F
                                                     0        0.0000010       -0.11638665    0.00000000
                                                     2        0.1200000        0.35468655    0.00000000
                                                     2        0.1600000       -0.59160923    0.00000000
                                                     2        0.3000000        0.49390547    0.00000000
                                                     2        0.6000000       -0.37949835    0.00000000
                                                     2        1.6000000        0.89304688    0.00000000
                                      D - F
                                                     0        0.0000010        0.05443663    0.00000000
                                                     2        0.1200000       -0.29679479    0.00000000
                                                     2        0.1400000        0.36849872    0.00000000
                                                     2        0.2400000        0.02793449    0.00000000
                                                     2        0.4000000       -0.46312857    0.00000000
                                                     2        0.7000000        0.97587598    0.00000000
                                                     2        1.5000000       -2.43431102    0.00000000
   27          1            1
                                      F and up 
                                                     0        0.0000010       -0.00007675    0.00000000
                                                     2        0.1200000        0.05352699    0.00000000
                                                     2        0.1400000       -0.25123645    0.00000000
                                                     2        0.1600000        0.32188106    0.00000000
                                                     2        0.2200000       -0.25206857    0.00000000
                                                     2        0.3000000        0.19290477    0.00000000
                                                     2        0.5000000       -0.10129770    0.00000000
                                                     2        0.9000000        0.00314995    0.00000000
                                                     2        1.5000000        0.18401192    0.00000000
                                      S - F
                                                     0        0.0000010        0.08065976    0.00000000
                                                     2        0.1200000       -0.09231673    0.00000000
                                                     2        0.1600000       -0.03278082    0.00000000
                                                     2        0.2800000        0.38423402    0.00000000
                                                     2        0.6000000       -1.09357590    0.00000000
                                                     2        1.1000000        1.53099489    0.00000000
                                                     2        3.0000000       -2.63300202    0.00000000
                                      P - F
                                                     0        0.0000010       -0.11638665    0.00000000
                                                     2        0.1200000        0.35468655    0.00000000
                                                     2        0.1600000       -0.59160923    0.00000000
                                                     2        0.3000000        0.49390547    0.00000000
                                                     2        0.6000000       -0.37949835    0.00000000
                                                     2        1.6000000        0.89304688    0.00000000
                                      D - F
                                                     0        0.0000010        0.05443663    0.00000000
                                                     2        0.1200000       -0.29679479    0.00000000
                                                     2        0.1400000        0.36849872    0.00000000
                                                     2        0.2400000        0.02793449    0.00000000
                                                     2        0.4000000       -0.46312857    0.00000000
                                                     2        0.7000000        0.97587598    0.00000000
                                                     2        1.5000000       -2.43431102    0.00000000
 ======================================================================================================
   453 basis functions,   777 primitive gaussians,   483 cartesian basis functions
    52 alpha electrons       52 beta electrons
       nuclear repulsion energy       876.7117804008 Hartrees.
 NAtoms=   27 NActive=   27 NUniq=   27 SFac= 1.00D+00 NAtFMM=   60 NAOKFM=F Big=F
   1 Symmetry operations used in ECPInt.
 ECPInt:  NShTT=   19110 NPrTT=   92946 LenC2=   18725 LenP2D=   62653.
 LDataN:  DoStor=T MaxTD1= 6 Len=  172
 Initial guess from the checkpoint file:  "BDE49_expt_1097_mol1.chk"
 B after Tr=     0.000000   -0.000000   -0.000000
         Rot=    0.000000    0.000000    1.000000    0.000000 Ang= 180.00 deg.
 >>>>>>>>>> Convergence criterion not met.
 SCF Done:  E(RHF) =  -612.709667174     A.U. after    2 cycles
            NFock=  1  Conv=0.45D-01     -V/T= 2.0009

 **********************************************************************

            Population analysis using the SCF Density.

 **********************************************************************

 Orbital symmetries:
       Occupied  (A) (A) (A) (A) (A) (A) (A) (A) (A) (A) (A) (A)
                 (A) (A) (A) (A) (A) (A) (A) (A) (A) (A) (A) (A)
                 (A) (A) (A) (A) (A) (A) (A) (A) (A) (A) (A) (A)
                 (A) (A) (A) (A) (A) (A) (A) (A) (A) (A) (A) (A)
                 (A) (A) (A) (A)
       Virtual   (A) (A) (A) (A) (A) (A) (A) (A) (A) (A) (A) (A)
                 (A) (A) (A) (A) (A) (A) (A) (A) (A) (A) (A) (A)
                 (A) (A) (A) (A) (A) (A) (A) (A) (A) (A) (A) (A)
                 (A) (A) (A) (A) (A) (A) (A) (A) (A) (A) (A) (A)
                 (A) (A) (A) (A) (A) (A) (A) (A) (A) (A) (A) (A)
                 (A) (A) (A) (A) (A) (A) (A) (A) (A) (A) (A) (A)
                 (A) (A) (A) (A) (A) (A) (A) (A) (A) (A) (A) (A)
                 (A) (A) (A) (A) (A) (A) (A) (A) (A) (A) (A) (A)
                 (A) (A) (A) (A) (A) (A) (A) (A) (A) (A) (A) (A)
                 (A) (A) (A) (A) (A) (A) (A) (A) (A) (A) (A) (A)
                 (A) (A) (A) (A) (A) (A) (A) (A) (A) (A) (A) (A)
                 (A) (A) (A) (A) (A) (A) (A) (A) (A) (A) (A) (A)
                 (A) (A) (A) (A) (A) (A) (A) (A) (A) (A) (A) (A)
                 (A) (A) (A) (A) (A) (A) (A) (A) (A) (A) (A) (A)
                 (A) (A) (A) (A) (A) (A) (A) (A) (A) (A) (A) (A)
                 (A) (A) (A) (A) (A) (A) (A) (A) (A) (A) (A) (A)
                 (A) (A) (A) (A) (A) (A) (A) (A) (A) (A) (A) (A)
                 (A) (A) (A) (A) (A) (A) (A) (A) (A) (A) (A) (A)
                 (A) (A) (A) (A) (A) (A) (A) (A) (A) (A) (A) (A)
                 (A) (A) (A) (A) (A) (A) (A) (A) (A) (A) (A) (A)
                 (A) (A) (A) (A) (A) (A) (A) (A) (A) (A) (A) (A)
                 (A) (A) (A) (A) (A) (A) (A) (A) (A) (A) (A) (A)
                 (A) (A) (A) (A) (A) (A) (A) (A) (A) (A) (A) (A)
                 (A) (A) (A) (A) (A) (A) (A) (A) (A) (A) (A) (A)
                 (A) (A) (A) (A) (A) (A) (A) (A) (A) (A) (A) (A)
                 (A) (A) (A) (A) (A) (A) (A) (A) (A) (A) (A) (A)
                 (A) (A) (A) (A) (A) (A) (A) (A) (A) (A) (A) (A)
                 (A) (A) (A) (A) (A) (A) (A) (A) (A) (A) (A) (A)
                 (A) (A) (A) (A) (A) (A) (A) (A) (A) (A) (A) (A)
                 (A) (A) (A) (A) (A) (A) (A) (A) (A) (A) (A) (A)
                 (A) (A) (A) (A) (A) (A) (A) (A) (A) (A) (A) (A)
                 (A) (A) (A) (A) (A) (A) (A) (A) (A) (A) (A) (A)
                 (A) (A) (A) (A) (A) (A) (A) (A) (A) (A) (A) (A)
                 (A) (A) (A) (A) (A)
 The electronic state is 1-A.
 Alpha  occ. eigenvalues --  -20.53498 -11.34526 -11.26174 -11.26000 -11.25875
 Alpha  occ. eigenvalues --  -11.25506 -11.25408 -11.25359 -11.25294 -11.25094
 Alpha  occ. eigenvalues --  -11.24782 -11.24697 -11.24602 -11.24448 -11.24154
 Alpha  occ. eigenvalues --   -1.46975  -1.16970  -1.16276  -1.07348  -1.03899
 Alpha  occ. eigenvalues --   -1.02884  -1.01973  -0.97014  -0.87683  -0.84678
 Alpha  occ. eigenvalues --   -0.84129  -0.82047  -0.77343  -0.72651  -0.70972
 Alpha  occ. eigenvalues --   -0.67323  -0.66531  -0.65298  -0.64366  -0.63198
 Alpha  occ. eigenvalues --   -0.61297  -0.60885  -0.60325  -0.59940  -0.56372
 Alpha  occ. eigenvalues --   -0.54518  -0.53446  -0.51529  -0.51318  -0.50833
 Alpha  occ. eigenvalues --   -0.50310  -0.49188  -0.41859  -0.35996  -0.35443
 Alpha  occ. eigenvalues --   -0.34935  -0.34035
 Alpha virt. eigenvalues --    0.02680   0.03093   0.03396   0.03824   0.04366
 Alpha virt. eigenvalues --    0.04784   0.05388   0.05705   0.06095   0.07086
 Alpha virt. eigenvalues --    0.07639   0.08237   0.08899   0.09499   0.09827
 Alpha virt. eigenvalues --    0.10452   0.10707   0.11166   0.11527   0.12537
 Alpha virt. eigenvalues --    0.13069   0.13233   0.13734   0.14142   0.14186
 Alpha virt. eigenvalues --    0.14384   0.14582   0.14773   0.15396   0.15749
 Alpha virt. eigenvalues --    0.15892   0.16180   0.16602   0.17015   0.17092
 Alpha virt. eigenvalues --    0.17344   0.17780   0.18068   0.18389   0.18856
 Alpha virt. eigenvalues --    0.19426   0.19712   0.20322   0.20649   0.21082
 Alpha virt. eigenvalues --    0.21251   0.21503   0.22127   0.22509   0.22915
 Alpha virt. eigenvalues --    0.23051   0.24127   0.25023   0.25479   0.25895
 Alpha virt. eigenvalues --    0.26532   0.27076   0.27875   0.28126   0.28301
 Alpha virt. eigenvalues --    0.29720   0.30126   0.30720   0.31289   0.31806
 Alpha virt. eigenvalues --    0.32234   0.32563   0.32878   0.32935   0.33178
 Alpha virt. eigenvalues --    0.33749   0.33833   0.34303   0.34570   0.35034
 Alpha virt. eigenvalues --    0.35752   0.36327   0.36491   0.36521   0.37002
 Alpha virt. eigenvalues --    0.37197   0.37739   0.38171   0.38438   0.38902
 Alpha virt. eigenvalues --    0.39175   0.40077   0.40274   0.40419   0.41203
 Alpha virt. eigenvalues --    0.41675   0.42645   0.42925   0.43213   0.43894
 Alpha virt. eigenvalues --    0.44343   0.45009   0.45514   0.45812   0.45964
 Alpha virt. eigenvalues --    0.47514   0.47806   0.48675   0.49307   0.49555
 Alpha virt. eigenvalues --    0.50231   0.50927   0.51393   0.53419   0.53570
 Alpha virt. eigenvalues --    0.54155   0.55216   0.55627   0.56059   0.56531
 Alpha virt. eigenvalues --    0.57131   0.57694   0.58821   0.59117   0.59562
 Alpha virt. eigenvalues --    0.59633   0.60345   0.61133   0.61385   0.61732
 Alpha virt. eigenvalues --    0.62329   0.62844   0.63486   0.64399   0.65006
 Alpha virt. eigenvalues --    0.65731   0.66026   0.66631   0.66965   0.67206
 Alpha virt. eigenvalues --    0.67546   0.67915   0.68534   0.68689   0.68912
 Alpha virt. eigenvalues --    0.69269   0.69620   0.70227   0.70552   0.70799
 Alpha virt. eigenvalues --    0.71554   0.71663   0.72056   0.72163   0.72761
 Alpha virt. eigenvalues --    0.73574   0.74350   0.75129   0.75582   0.76198
 Alpha virt. eigenvalues --    0.76805   0.77126   0.78197   0.78556   0.78927
 Alpha virt. eigenvalues --    0.79247   0.80043   0.81408   0.82194   0.82561
 Alpha virt. eigenvalues --    0.83224   0.84363   0.84917   0.86032   0.86337
 Alpha virt. eigenvalues --    0.86726   0.87819   0.88464   0.88779   0.89427
 Alpha virt. eigenvalues --    0.89941   0.90390   0.91064   0.92499   0.92754
 Alpha virt. eigenvalues --    0.93432   0.94055   0.94326   0.94746   0.94840
 Alpha virt. eigenvalues --    0.95886   0.96418   0.96945   0.97445   0.97646
 Alpha virt. eigenvalues --    0.98277   0.98640   0.99293   0.99710   1.00110
 Alpha virt. eigenvalues --    1.00315   1.01833   1.02389   1.02902   1.03705
 Alpha virt. eigenvalues --    1.04103   1.04825   1.05882   1.06107   1.06954
 Alpha virt. eigenvalues --    1.08027   1.09942   1.10567   1.11699   1.12555
 Alpha virt. eigenvalues --    1.14257   1.14945   1.16135   1.17174   1.18553
 Alpha virt. eigenvalues --    1.19402   1.19500   1.21029   1.21861   1.23195
 Alpha virt. eigenvalues --    1.23885   1.24805   1.26612   1.28639   1.29129
 Alpha virt. eigenvalues --    1.30629   1.32175   1.33246   1.36012   1.36754
 Alpha virt. eigenvalues --    1.39204   1.40522   1.41319   1.45631   1.47473
 Alpha virt. eigenvalues --    1.48399   1.50940   1.51139   1.51589   1.52892
 Alpha virt. eigenvalues --    1.53850   1.53968   1.55204   1.56413   1.57143
 Alpha virt. eigenvalues --    1.57779   1.58641   1.59607   1.60318   1.61076
 Alpha virt. eigenvalues --    1.62244   1.62287   1.63082   1.63724   1.64355
 Alpha virt. eigenvalues --    1.65040   1.65572   1.66727   1.67270   1.68036
 Alpha virt. eigenvalues --    1.69062   1.69492   1.71130   1.72382   1.72907
 Alpha virt. eigenvalues --    1.73328   1.73777   1.74365   1.74813   1.75321
 Alpha virt. eigenvalues --    1.75549   1.77958   1.78434   1.79527   1.81443
 Alpha virt. eigenvalues --    1.82717   1.83861   1.84966   1.85473   1.86198
 Alpha virt. eigenvalues --    1.86721   1.87476   1.89003   1.89513   1.91068
 Alpha virt. eigenvalues --    1.91793   1.93448   1.94546   1.95283   1.96526
 Alpha virt. eigenvalues --    1.96909   1.97571   1.97816   1.98831   1.98956
 Alpha virt. eigenvalues --    2.00544   2.01172   2.01760   2.01944   2.02424
 Alpha virt. eigenvalues --    2.03684   2.05459   2.06403   2.08136   2.09698
 Alpha virt. eigenvalues --    2.10917   2.11275   2.12997   2.13697   2.14688
 Alpha virt. eigenvalues --    2.16171   2.17144   2.17626   2.18652   2.20071
 Alpha virt. eigenvalues --    2.20507   2.21468   2.21652   2.23092   2.23634
 Alpha virt. eigenvalues --    2.24772   2.25335   2.26677   2.27472   2.29007
 Alpha virt. eigenvalues --    2.31012   2.31896   2.32430   2.33522   2.34372
 Alpha virt. eigenvalues --    2.35224   2.36395   2.37956   2.38013   2.39096
 Alpha virt. eigenvalues --    2.40678   2.41530   2.41929   2.42961   2.43069
 Alpha virt. eigenvalues --    2.44782   2.45619   2.46295   2.48628   2.50421
 Alpha virt. eigenvalues --    2.52602   2.53545   2.55959   2.57457   2.60043
 Alpha virt. eigenvalues --    2.61595   2.63311   2.63412   2.65764   2.66868
 Alpha virt. eigenvalues --    2.69946   2.70531   2.73473   2.78517   2.82318
 Alpha virt. eigenvalues --    2.84076   2.85017   2.86406   2.86898   2.87953
 Alpha virt. eigenvalues --    2.90299   2.93027   2.93607   3.00330   3.00453
 Alpha virt. eigenvalues --    3.03249   3.03777   3.05178   3.07081   3.12203
 Alpha virt. eigenvalues --    3.15248   3.17647   3.18161   3.18844   3.23683
 Alpha virt. eigenvalues --    3.26238   3.32584   3.34254   3.38623   3.40376
 Alpha virt. eigenvalues --    3.41063   3.50606   3.51401   3.71526   3.74345
 Alpha virt. eigenvalues --    3.78577   3.89006   3.90830   3.95325   3.97841
 Alpha virt. eigenvalues --    4.00018   4.04162   4.17210   4.32293   4.82983
 Alpha virt. eigenvalues --    4.86007
          Condensed to atoms (all electrons):
 Mulliken charges:
               1
     1  C    0.075394
     2  C    0.383457
     3  C    0.219983
     4  C   -0.006298
     5  C    0.028753
     6  C    1.133181
     7  H   -0.334961
     8  H   -0.244847
     9  H   -0.330851
    10  H   -0.254515
    11  H   -0.219533
    12  C    0.880487
    13  O   -1.643561
    14  C    1.770695
    15  C   -0.643279
    16  H    0.028990
    17  H    0.101762
    18  C    0.538825
    19  C   -0.297469
    20  C    0.281568
    21  C   -0.097376
    22  C    0.023852
    23  H   -0.224967
    24  H   -0.219509
    25  H   -0.324325
    26  H   -0.369138
    27  H   -0.256317
 Sum of Mulliken charges =  -0.00000
 Mulliken charges with hydrogens summed into heavy atoms:
               1
     1  C   -0.179121
     2  C    0.048497
     3  C    0.000450
     4  C   -0.251145
     5  C   -0.302098
     6  C    1.133181
    12  C    0.880487
    13  O   -1.643561
    14  C    1.770695
    15  C   -0.512527
    18  C    0.169687
    19  C   -0.621794
    20  C    0.056601
    21  C   -0.353693
    22  C   -0.195657
 Electronic spatial extent (au):  <R**2>=           3585.2914
 Charge=             -0.0000 electrons
 Dipole moment (field-independent basis, Debye):
    X=             -0.3112    Y=             -2.9192    Z=              0.4736  Tot=              2.9737

 Test job not archived.
 1\1\GINC-SE435\SP\RHF\Aug-CC-pVDZ\C14H12O1\OHZDE\08-Apr-2025\0\\#t hf 
 aug-cc-pvdz iop(5/13=1,5/36=2,99/5=2) pseudo=read geom=check guess=(re
 ad,tcheck) scf=(maxcycle=1)\\title\\0,1\C,0,-3.278489,-1.550364,-0.140
 694\C,0,-2.249359,-0.984774,-0.891547\C,0,-3.799779,-0.867429,0.954665
 \C,0,-3.287771,0.38488,1.290911\C,0,-2.261667,0.949425,0.538978\C,0,-1
 .7285,0.269489,-0.562341\H,0,-1.854857,-1.521367,-1.748836\H,0,-3.6895
 25,0.925258,2.14085\H,0,-1.867093,1.924191,0.803523\H,0,-3.671928,-2.5
 23324,-0.413606\H,0,-4.599498,-1.305617,1.540926\C,0,0.566417,1.347259
 ,-0.542947\O,0,0.618684,2.494474,-0.141549\C,0,1.645164,0.366205,-0.19
 4106\C,0,-0.624217,0.902029,-1.396066\H,0,-0.997705,1.809201,-1.877167
 \H,0,-0.310479,0.211742,-2.181597\C,0,1.596187,-0.986177,-0.553931\C,0
 ,2.749062,0.837711,0.530708\C,0,3.782283,-0.020594,0.880847\C,0,2.6297
 27,-1.84814,-0.196976\C,0,3.724425,-1.366963,0.517243\H,0,4.633152,0.3
 5516,1.437745\H,0,4.530119,-2.038748,0.791734\H,0,2.769676,1.884909,0.
 80555\H,0,0.747998,-1.377938,-1.099885\H,0,2.579772,-2.894594,-0.47532
 3\\Version=ES64L-G16RevC.01\State=1-A\HF=-612.7096672\RMSD=4.493e-02\D
 ipole=0.1224424,-1.1484923,-0.1863121\Quadrupole=4.0073894,-3.2714996,
 -0.7358898,-0.983402,0.4434492,2.4565469\PG=C01 [X(C14H12O1)]\\@


 Mondays are the potholes in the road of life.
                                -- Tom Wilson
 Job cpu time:       0 days  0 hours  7 minutes 10.3 seconds.
 Elapsed time:       0 days  0 hours  0 minutes 29.0 seconds.
 File lengths (MBytes):  RWF=     31 Int=      0 D2E=      0 Chk=     26 Scr=      1
 Normal termination of Gaussian 16 at Tue Apr  8 22:44:06 2025.
