 Entering Gaussian System, Link 0=g16
 Input=BDE49_nonexpt_1575_mol2.gjf
 Output=BDE49_nonexpt_1575_mol2.log
 Initial command:
 /arc/software/Gaussian/g16.c01/l1.exe "/tmp/slurm/4846188/Gau-3441117.inp" -scrdir="/tmp/slurm/4846188/"
 Entering Link 1 = /arc/software/Gaussian/g16.c01/l1.exe PID=   3441120.
  
 Copyright (c) 1988-2019, Gaussian, Inc.  All Rights Reserved.
  
 This is part of the Gaussian(R) 16 program.  It is based on
 the Gaussian(R) 09 system (copyright 2009, Gaussian, Inc.),
 the Gaussian(R) 03 system (copyright 2003, Gaussian, Inc.),
 the Gaussian(R) 98 system (copyright 1998, Gaussian, Inc.),
 the Gaussian(R) 94 system (copyright 1995, Gaussian, Inc.),
 the Gaussian 92(TM) system (copyright 1992, Gaussian, Inc.),
 the Gaussian 90(TM) system (copyright 1990, Gaussian, Inc.),
 the Gaussian 88(TM) system (copyright 1988, Gaussian, Inc.),
 the Gaussian 86(TM) system (copyright 1986, Carnegie Mellon
 University), and the Gaussian 82(TM) system (copyright 1983,
 Carnegie Mellon University). Gaussian is a federally registered
 trademark of Gaussian, Inc.
  
 This software contains proprietary and confidential information,
 including trade secrets, belonging to Gaussian, Inc.
  
 This software is provided under written license and may be
 used, copied, transmitted, or stored only in accord with that
 written license.
  
 The following legend is applicable only to US Government
 contracts under FAR:
  
                    RESTRICTED RIGHTS LEGEND
  
 Use, reproduction and disclosure by the US Government is
 subject to restrictions as set forth in subparagraphs (a)
 and (c) of the Commercial Computer Software - Restricted
 Rights clause in FAR 52.227-19.
  
 Gaussian, Inc.
 340 Quinnipiac St., Bldg. 40, Wallingford CT 06492
  
  
 ---------------------------------------------------------------
 Warning -- This program may not be used in any manner that
 competes with the business of Gaussian, Inc. or will provide
 assistance to any competitor of Gaussian, Inc.  The licensee
 of this program is prohibited from giving any competitor of
 Gaussian, Inc. access to this program.  By using this program,
 the user acknowledges that Gaussian, Inc. is engaged in the
 business of creating and licensing software in the field of
 computational chemistry and represents and warrants to the
 licensee that it is not a competitor of Gaussian, Inc. and that
 it will not use this program in any manner prohibited above.
 ---------------------------------------------------------------
  

 Cite this work as:
 Gaussian 16, Revision C.01,
 M. J. Frisch, G. W. Trucks, H. B. Schlegel, G. E. Scuseria, 
 M. A. Robb, J. R. Cheeseman, G. Scalmani, V. Barone, 
 G. A. Petersson, H. Nakatsuji, X. Li, M. Caricato, A. V. Marenich, 
 J. Bloino, B. G. Janesko, R. Gomperts, B. Mennucci, H. P. Hratchian, 
 J. V. Ortiz, A. F. Izmaylov, J. L. Sonnenberg, D. Williams-Young, 
 F. Ding, F. Lipparini, F. Egidi, J. Goings, B. Peng, A. Petrone, 
 T. Henderson, D. Ranasinghe, V. G. Zakrzewski, J. Gao, N. Rega, 
 G. Zheng, W. Liang, M. Hada, M. Ehara, K. Toyota, R. Fukuda, 
 J. Hasegawa, M. Ishida, T. Nakajima, Y. Honda, O. Kitao, H. Nakai, 
 T. Vreven, K. Throssell, J. A. Montgomery, Jr., J. E. Peralta, 
 F. Ogliaro, M. J. Bearpark, J. J. Heyd, E. N. Brothers, K. N. Kudin, 
 V. N. Staroverov, T. A. Keith, R. Kobayashi, J. Normand, 
 K. Raghavachari, A. P. Rendell, J. C. Burant, S. S. Iyengar, 
 J. Tomasi, M. Cossi, J. M. Millam, M. Klene, C. Adamo, R. Cammi, 
 J. W. Ochterski, R. L. Martin, K. Morokuma, O. Farkas, 
 J. B. Foresman, and D. J. Fox, Gaussian, Inc., Wallingford CT, 2019.
 
 ******************************************
 Gaussian 16:  ES64L-G16RevC.01  3-Jul-2019
                 8-Apr-2025 
 ******************************************
 %nprocs=16
 Will use up to   16 processors via shared memory.
 %mem=30GB
 %chk=BDE49_nonexpt_1575_mol2.chk
 ----------------------------------------------------------------------
 #t hf aug-cc-pvdz symm=none int=(grid=ultrafine) guess=(read,tcheck) s
 table=opt
 ----------------------------------------------------------------------
 -----
 title
 -----
 Symbolic Z-matrix:
 Charge =  0 Multiplicity = 2
 C                    -0.47642   0.1325   -0.00001 
 P                     1.37543  -0.14345  0. 
 O                    -1.05378   1.18816  0. 
 O                    -1.11396  -1.06508   0.00001 
 H                    -2.06697  -0.87886   0.00001 
 H                     1.63599   1.25104   0.00005 
 
                    Distance matrix (angstroms):
                    1          2          3          4          5
     1  C    0.000000
     2  P    1.872301   0.000000
     3  O    1.203227   2.770247   0.000000
     4  O    1.356704   2.654516   2.254035   0.000000
     5  H    1.884858   3.520079   2.301973   0.971036   0.000000
     6  H    2.390277   1.418631   2.690509   3.595363   4.271814
                    6
     6  H    0.000000
 Symmetry turned off by external request.
 Rotational constants (GHZ):          11.5736462           4.7609397           3.3732984
   114 basis functions,   232 primitive gaussians,   122 cartesian basis functions
    20 alpha electrons       19 beta electrons
       nuclear repulsion energy       147.0760818238 Hartrees.
 NAtoms=    6 NActive=    6 NUniq=    6 SFac= 1.00D+00 NAtFMM=   60 NAOKFM=F Big=F
 ExpMin= 2.97D-02 ExpMax= 9.48D+04 ExpMxC= 3.24D+03 IAcc=3 IRadAn=         5 AccDes= 0.00D+00
 Harris functional with IExCor=  205 and IRadAn=       5 diagonalized for initial guess.
 HarFok:  IExCor=  205 AccDes= 0.00D+00 IRadAn=         5 IDoV= 1 UseB2=F ITyADJ=14
 ICtDFT=  3500011 ScaDFX=  1.000000  1.000000  1.000000  1.000000
 FoFCou: FMM=F IPFlag=           0 FMFlag=      100000 FMFlg1=           0
         NFxFlg=           0 DoJE=T BraDBF=F KetDBF=T FulRan=T
         wScrn=  0.000000 ICntrl=       500 IOpCl=  0 I1Cent=   200000004 NGrid=           0
         NMat0=    1 NMatS0=      1 NMatT0=    0 NMatD0=    1 NMtDS0=    0 NMtDT0=    0
 Symmetry not used in FoFCou.
 Initial guess <Sx>= 0.0000 <Sy>= 0.0000 <Sz>= 0.5000 <S**2>= 0.7500 S= 0.5000
 SCF Done:  E(UHF) =  -529.512029031     A.U. after   19 cycles
            NFock= 19  Conv=0.66D-08     -V/T= 2.0007
 <Sx>= 0.0000 <Sy>= 0.0000 <Sz>= 0.5000 <S**2>= 0.7778 S= 0.5138
 <L.S>=  0.00000000000    
 Annihilation of the first spin contaminant:
 S**2 before annihilation     0.7778,   after     0.7505

 **********************************************************************

            Population analysis using the SCF Density.

 **********************************************************************

 Alpha  occ. eigenvalues --  -79.99320 -20.63437 -20.58599 -11.40816  -7.53422
 Alpha  occ. eigenvalues --   -5.43805  -5.42515  -5.42307  -1.48212  -1.38730
 Alpha  occ. eigenvalues --   -0.94585  -0.81195  -0.72211  -0.66637  -0.64601
 Alpha  occ. eigenvalues --   -0.56786  -0.51575  -0.50232  -0.41976  -0.39695
 Alpha virt. eigenvalues --    0.03538   0.04931   0.07537   0.09327   0.09424
 Alpha virt. eigenvalues --    0.11239   0.11287   0.13226   0.15420   0.15536
 Alpha virt. eigenvalues --    0.17884   0.18954   0.20498   0.20741   0.22342
 Alpha virt. eigenvalues --    0.25534   0.28286   0.28372   0.30925   0.31074
 Alpha virt. eigenvalues --    0.32977   0.35051   0.35864   0.37580   0.41459
 Alpha virt. eigenvalues --    0.43682   0.43709   0.45331   0.49505   0.50477
 Alpha virt. eigenvalues --    0.53384   0.55213   0.56343   0.58672   0.61664
 Alpha virt. eigenvalues --    0.63984   0.64520   0.67430   0.69970   0.77489
 Alpha virt. eigenvalues --    0.81380   0.83628   0.84581   0.86719   0.88077
 Alpha virt. eigenvalues --    0.90050   0.93613   0.94397   0.96460   0.98150
 Alpha virt. eigenvalues --    1.03329   1.12426   1.13808   1.15937   1.16148
 Alpha virt. eigenvalues --    1.24781   1.26041   1.28429   1.31860   1.34393
 Alpha virt. eigenvalues --    1.36813   1.45507   1.51266   1.59486   1.61403
 Alpha virt. eigenvalues --    1.69403   1.75265   1.84220   1.90262   1.90275
 Alpha virt. eigenvalues --    1.91945   2.02497   2.04008   2.07201   2.14326
 Alpha virt. eigenvalues --    2.17518   2.21408   2.30594   2.40911   2.50610
 Alpha virt. eigenvalues --    2.63698   2.91189   3.08234   3.17006   3.64386
 Alpha virt. eigenvalues --    3.67322   3.70461   3.71059   3.75201   3.75421
 Alpha virt. eigenvalues --    3.81949   3.96298   4.09564   4.25762
  Beta  occ. eigenvalues --  -79.98627 -20.63477 -20.57972 -11.41198  -7.52588
  Beta  occ. eigenvalues --   -5.42026  -5.41950  -5.40653  -1.47958  -1.37823
  Beta  occ. eigenvalues --   -0.91448  -0.78448  -0.71789  -0.65674  -0.63779
  Beta  occ. eigenvalues --   -0.56364  -0.48734  -0.48558  -0.40652
  Beta virt. eigenvalues --   -0.00087   0.03608   0.05009   0.07702   0.09412
  Beta virt. eigenvalues --    0.11091   0.11284   0.11728   0.13552   0.16692
  Beta virt. eigenvalues --    0.18262   0.18701   0.19689   0.20608   0.21683
  Beta virt. eigenvalues --    0.22577   0.27113   0.28446   0.30907   0.31402
  Beta virt. eigenvalues --    0.31683   0.33226   0.35219   0.37357   0.39050
  Beta virt. eigenvalues --    0.41732   0.44304   0.44860   0.45466   0.50479
  Beta virt. eigenvalues --    0.51229   0.53968   0.55238   0.57074   0.59168
  Beta virt. eigenvalues --    0.61715   0.64571   0.65557   0.67811   0.75767
  Beta virt. eigenvalues --    0.77706   0.81906   0.84322   0.85544   0.88158
  Beta virt. eigenvalues --    0.91156   0.91317   0.94540   0.96855   0.97027
  Beta virt. eigenvalues --    0.99518   1.04988   1.12741   1.13864   1.16098
  Beta virt. eigenvalues --    1.16623   1.26222   1.26798   1.28834   1.32057
  Beta virt. eigenvalues --    1.35017   1.37021   1.45746   1.51385   1.59339
  Beta virt. eigenvalues --    1.61806   1.69396   1.76884   1.84247   1.90224
  Beta virt. eigenvalues --    1.90715   1.92062   2.02577   2.03858   2.07096
  Beta virt. eigenvalues --    2.14367   2.17519   2.21562   2.30790   2.41026
  Beta virt. eigenvalues --    2.50621   2.63740   2.91136   3.08326   3.17246
  Beta virt. eigenvalues --    3.64800   3.67512   3.71338   3.71609   3.75853
  Beta virt. eigenvalues --    3.76397   3.82039   3.96429   4.10165   4.25766
          Condensed to atoms (all electrons):
          Atomic-Atomic Spin Densities.
 Mulliken charges and spin densities:
               1          2
     1  C    0.589976  -0.183993
     2  P    0.243175   1.197935
     3  O   -0.614474   0.145209
     4  O   -0.551029  -0.005815
     5  H    0.149203  -0.000157
     6  H    0.183148  -0.153179
 Sum of Mulliken charges =  -0.00000   1.00000
 Mulliken charges and spin densities with hydrogens summed into heavy atoms:
               1          2
     1  C    0.589976  -0.183993
     2  P    0.426323   1.044756
     3  O   -0.614474   0.145209
     4  O   -0.401825  -0.005972
 Electronic spatial extent (au):  <R**2>=            349.0424
 Charge=             -0.0000 electrons
 Dipole moment (field-independent basis, Debye):
    X=              0.2718    Y=             -0.8544    Z=              0.0000  Tot=              0.8966
                          Isotropic Fermi Contact Couplings
        Atom                 a.u.       MegaHertz       Gauss      10(-4) cm-1
     1  C(13)             -0.05972     -67.13615     -23.95585     -22.39421
     2  P(31)              0.21035     380.96945     135.93937     127.07773
     3  O(17)              0.05131     -31.10670     -11.09964     -10.37608
     4  O(17)             -0.01346       8.16184       2.91235       2.72250
     5  H(1)              -0.00061      -2.74408      -0.97916      -0.91533
     6  H(1)              -0.01598     -71.43281     -25.48900     -23.82742
 --------------------------------------------------------
       Center         ----  Spin Dipole Couplings  ----
                      3XX-RR        3YY-RR        3ZZ-RR
 --------------------------------------------------------
     1   Atom        0.032969      0.059230     -0.092199
     2   Atom       -1.232212     -1.297453      2.529665
     3   Atom       -0.262497     -0.258428      0.520925
     4   Atom        0.015765      0.007964     -0.023729
     5   Atom        0.002257     -0.000381     -0.001876
     6   Atom       -0.030078      0.025105      0.004973
 --------------------------------------------------------
                        XY            XZ            YZ
 --------------------------------------------------------
     1   Atom       -0.003071     -0.000000     -0.000000
     2   Atom        0.087435     -0.000040     -0.000134
     3   Atom        0.002254      0.000000     -0.000002
     4   Atom        0.002333      0.000003     -0.000000
     5   Atom        0.002114      0.000000      0.000000
     6   Atom        0.015369      0.000000      0.000001
 --------------------------------------------------------


 ---------------------------------------------------------------------------------
              Anisotropic Spin Dipole Couplings in Principal Axis System
 ---------------------------------------------------------------------------------

       Atom             a.u.   MegaHertz   Gauss  10(-4) cm-1        Axes

              Baa    -0.0922   -12.372    -4.415    -4.127  0.0000  0.0000  1.0000
     1 C(13)  Bbb     0.0326     4.377     1.562     1.460  0.9934  0.1146 -0.0000
              Bcc     0.0596     7.996     2.853     2.667 -0.1146  0.9934 -0.0000
 
              Baa    -1.3582  -293.611  -104.768   -97.938 -0.5703  0.8214  0.0000
     2 P(31)  Bbb    -1.1715  -253.262   -90.370   -84.479  0.8214  0.5703  0.0000
              Bcc     2.5297   546.873   195.138   182.417 -0.0000 -0.0000  1.0000
 
              Baa    -0.2635    19.067     6.803     6.360  0.9138 -0.4062 -0.0000
     3 O(17)  Bbb    -0.2574    18.627     6.647     6.213  0.4062  0.9138  0.0000
              Bcc     0.5209   -37.694   -13.450   -12.573  0.0000 -0.0000  1.0000
 
              Baa    -0.0237     1.717     0.613     0.573 -0.0001  0.0000  1.0000
     4 O(17)  Bbb     0.0073    -0.530    -0.189    -0.177 -0.2662  0.9639 -0.0000
              Bcc     0.0164    -1.187    -0.424    -0.396  0.9639  0.2662  0.0001
 
              Baa    -0.0019    -1.001    -0.357    -0.334  0.0000 -0.0001  1.0000
     5 H(1)   Bbb    -0.0016    -0.829    -0.296    -0.277 -0.4851  0.8745  0.0001
              Bcc     0.0034     1.830     0.653     0.610  0.8745  0.4851  0.0000
 
              Baa    -0.0341   -18.178    -6.486    -6.063  0.9679 -0.2514  0.0000
     6 H(1)   Bbb     0.0050     2.653     0.947     0.885 -0.0000 -0.0000  1.0000
              Bcc     0.0291    15.525     5.540     5.179  0.2514  0.9679  0.0000
 

 ---------------------------------------------------------------------------------

 NROrb=    114 NOA=    20 NOB=    19 NVA=    94 NVB=    95

 **** Warning!!: The largest alpha MO coefficient is  0.13424740D+02


 **** Warning!!: The largest beta MO coefficient is  0.15231751D+02

    12 initial guesses have been made.
 Iteration     1 Dimension    12 NMult     0 NNew     12
 Iteration     2 Dimension    24 NMult    12 NNew     12
 Iteration     3 Dimension    27 NMult    24 NNew      3
 Iteration     4 Dimension    30 NMult    27 NNew      3
 Iteration     5 Dimension    33 NMult    30 NNew      3
 Iteration     6 Dimension    36 NMult    33 NNew      3
 New state      1 was old state      2
 Iteration     7 Dimension    39 NMult    36 NNew      3
 Iteration     8 Dimension    42 NMult    39 NNew      3
 Iteration     9 Dimension    45 NMult    42 NNew      3
 Iteration    10 Dimension    48 NMult    45 NNew      3
 ***********************************************************************
 Stability analysis using <AA,BB:AA,BB> singles matrix:
 ***********************************************************************
 Ground to excited state transition densities written to RWF  633

 Eigenvectors of the stability matrix:
 
 Excited state symmetry could not be determined.
 Eigenvector   1:  3.261-?Sym  Eigenvalue= 0.0719227  <S**2>=2.409
     15A -> 30A       -0.22163
     17A -> 25A       -0.11647
     17A -> 27A        0.17561
     17A -> 30A        0.37889
     17A -> 39A       -0.11802
     17A -> 43A        0.14985
     20A -> 30A        0.11169
     15B -> 20B        0.13270
     15B -> 25B       -0.12469
     15B -> 31B        0.16815
     18B -> 20B        0.41636
     18B -> 25B       -0.30566
     18B -> 27B        0.15614
     18B -> 31B        0.40904
     18B -> 34B       -0.12208
     18B -> 40B       -0.16566
     18B -> 43B        0.13217
 The wavefunction is stable under the perturbations considered.
 The wavefunction is already stable.

 **********************************************************************

            Population analysis using the SCF Density.

 **********************************************************************

 Alpha  occ. eigenvalues --  -79.99320 -20.63437 -20.58599 -11.40816  -7.53422
 Alpha  occ. eigenvalues --   -5.43805  -5.42515  -5.42307  -1.48212  -1.38730
 Alpha  occ. eigenvalues --   -0.94585  -0.81195  -0.72211  -0.66637  -0.64601
 Alpha  occ. eigenvalues --   -0.56786  -0.51575  -0.50232  -0.41976  -0.39695
 Alpha virt. eigenvalues --    0.03538   0.04931   0.07537   0.09327   0.09424
 Alpha virt. eigenvalues --    0.11239   0.11287   0.13226   0.15420   0.15536
 Alpha virt. eigenvalues --    0.17884   0.18954   0.20498   0.20741   0.22342
 Alpha virt. eigenvalues --    0.25534   0.28286   0.28372   0.30925   0.31074
 Alpha virt. eigenvalues --    0.32977   0.35051   0.35864   0.37580   0.41459
 Alpha virt. eigenvalues --    0.43682   0.43709   0.45331   0.49505   0.50477
 Alpha virt. eigenvalues --    0.53384   0.55213   0.56343   0.58672   0.61664
 Alpha virt. eigenvalues --    0.63984   0.64520   0.67430   0.69970   0.77489
 Alpha virt. eigenvalues --    0.81380   0.83628   0.84581   0.86719   0.88077
 Alpha virt. eigenvalues --    0.90050   0.93613   0.94397   0.96460   0.98150
 Alpha virt. eigenvalues --    1.03329   1.12426   1.13808   1.15937   1.16148
 Alpha virt. eigenvalues --    1.24781   1.26041   1.28429   1.31860   1.34393
 Alpha virt. eigenvalues --    1.36813   1.45507   1.51266   1.59486   1.61403
 Alpha virt. eigenvalues --    1.69403   1.75265   1.84220   1.90262   1.90275
 Alpha virt. eigenvalues --    1.91945   2.02497   2.04008   2.07201   2.14326
 Alpha virt. eigenvalues --    2.17518   2.21408   2.30594   2.40911   2.50610
 Alpha virt. eigenvalues --    2.63698   2.91189   3.08234   3.17006   3.64386
 Alpha virt. eigenvalues --    3.67322   3.70461   3.71059   3.75201   3.75421
 Alpha virt. eigenvalues --    3.81949   3.96298   4.09564   4.25762
  Beta  occ. eigenvalues --  -79.98627 -20.63477 -20.57972 -11.41198  -7.52588
  Beta  occ. eigenvalues --   -5.42026  -5.41950  -5.40653  -1.47958  -1.37823
  Beta  occ. eigenvalues --   -0.91448  -0.78448  -0.71789  -0.65674  -0.63779
  Beta  occ. eigenvalues --   -0.56364  -0.48734  -0.48558  -0.40652
  Beta virt. eigenvalues --   -0.00087   0.03608   0.05009   0.07702   0.09412
  Beta virt. eigenvalues --    0.11091   0.11284   0.11728   0.13552   0.16692
  Beta virt. eigenvalues --    0.18262   0.18701   0.19689   0.20608   0.21683
  Beta virt. eigenvalues --    0.22577   0.27113   0.28446   0.30907   0.31402
  Beta virt. eigenvalues --    0.31683   0.33226   0.35219   0.37357   0.39050
  Beta virt. eigenvalues --    0.41732   0.44304   0.44860   0.45466   0.50479
  Beta virt. eigenvalues --    0.51229   0.53968   0.55238   0.57074   0.59168
  Beta virt. eigenvalues --    0.61715   0.64571   0.65557   0.67811   0.75767
  Beta virt. eigenvalues --    0.77706   0.81906   0.84322   0.85544   0.88158
  Beta virt. eigenvalues --    0.91156   0.91317   0.94540   0.96855   0.97027
  Beta virt. eigenvalues --    0.99518   1.04988   1.12741   1.13864   1.16098
  Beta virt. eigenvalues --    1.16623   1.26222   1.26798   1.28834   1.32057
  Beta virt. eigenvalues --    1.35017   1.37021   1.45746   1.51385   1.59339
  Beta virt. eigenvalues --    1.61806   1.69396   1.76884   1.84247   1.90224
  Beta virt. eigenvalues --    1.90715   1.92062   2.02577   2.03858   2.07096
  Beta virt. eigenvalues --    2.14367   2.17519   2.21562   2.30790   2.41026
  Beta virt. eigenvalues --    2.50621   2.63740   2.91136   3.08326   3.17246
  Beta virt. eigenvalues --    3.64800   3.67512   3.71338   3.71609   3.75853
  Beta virt. eigenvalues --    3.76397   3.82039   3.96429   4.10165   4.25766
          Condensed to atoms (all electrons):
          Atomic-Atomic Spin Densities.
 Mulliken charges and spin densities:
               1          2
     1  C    0.589976  -0.183993
     2  P    0.243175   1.197935
     3  O   -0.614474   0.145209
     4  O   -0.551029  -0.005815
     5  H    0.149203  -0.000157
     6  H    0.183148  -0.153179
 Sum of Mulliken charges =  -0.00000   1.00000
 Mulliken charges and spin densities with hydrogens summed into heavy atoms:
               1          2
     1  C    0.589976  -0.183993
     2  P    0.426323   1.044756
     3  O   -0.614474   0.145209
     4  O   -0.401825  -0.005972
 Electronic spatial extent (au):  <R**2>=            349.0424
 Charge=             -0.0000 electrons
 Dipole moment (field-independent basis, Debye):
    X=              0.2718    Y=             -0.8544    Z=              0.0000  Tot=              0.8966
                          Isotropic Fermi Contact Couplings
        Atom                 a.u.       MegaHertz       Gauss      10(-4) cm-1
     1  C(13)             -0.05972     -67.13615     -23.95585     -22.39421
     2  P(31)              0.21035     380.96945     135.93937     127.07773
     3  O(17)              0.05131     -31.10670     -11.09964     -10.37608
     4  O(17)             -0.01346       8.16184       2.91235       2.72250
     5  H(1)              -0.00061      -2.74408      -0.97916      -0.91533
     6  H(1)              -0.01598     -71.43281     -25.48900     -23.82742
 --------------------------------------------------------
       Center         ----  Spin Dipole Couplings  ----
                      3XX-RR        3YY-RR        3ZZ-RR
 --------------------------------------------------------
     1   Atom        0.032969      0.059230     -0.092199
     2   Atom       -1.232212     -1.297453      2.529665
     3   Atom       -0.262497     -0.258428      0.520925
     4   Atom        0.015765      0.007964     -0.023729
     5   Atom        0.002257     -0.000381     -0.001876
     6   Atom       -0.030078      0.025105      0.004973
 --------------------------------------------------------
                        XY            XZ            YZ
 --------------------------------------------------------
     1   Atom       -0.003071     -0.000000     -0.000000
     2   Atom        0.087435     -0.000040     -0.000134
     3   Atom        0.002254      0.000000     -0.000002
     4   Atom        0.002333      0.000003     -0.000000
     5   Atom        0.002114      0.000000      0.000000
     6   Atom        0.015369      0.000000      0.000001
 --------------------------------------------------------


 ---------------------------------------------------------------------------------
              Anisotropic Spin Dipole Couplings in Principal Axis System
 ---------------------------------------------------------------------------------

       Atom             a.u.   MegaHertz   Gauss  10(-4) cm-1        Axes

              Baa    -0.0922   -12.372    -4.415    -4.127  0.0000  0.0000  1.0000
     1 C(13)  Bbb     0.0326     4.377     1.562     1.460  0.9934  0.1146 -0.0000
              Bcc     0.0596     7.996     2.853     2.667 -0.1146  0.9934 -0.0000
 
              Baa    -1.3582  -293.611  -104.768   -97.938 -0.5703  0.8214  0.0000
     2 P(31)  Bbb    -1.1715  -253.262   -90.370   -84.479  0.8214  0.5703  0.0000
              Bcc     2.5297   546.873   195.138   182.417 -0.0000 -0.0000  1.0000
 
              Baa    -0.2635    19.067     6.803     6.360  0.9138 -0.4062 -0.0000
     3 O(17)  Bbb    -0.2574    18.627     6.647     6.213  0.4062  0.9138  0.0000
              Bcc     0.5209   -37.694   -13.450   -12.573  0.0000 -0.0000  1.0000
 
              Baa    -0.0237     1.717     0.613     0.573 -0.0001  0.0000  1.0000
     4 O(17)  Bbb     0.0073    -0.530    -0.189    -0.177 -0.2662  0.9639 -0.0000
              Bcc     0.0164    -1.187    -0.424    -0.396  0.9639  0.2662  0.0001
 
              Baa    -0.0019    -1.001    -0.357    -0.334  0.0000 -0.0001  1.0000
     5 H(1)   Bbb    -0.0016    -0.829    -0.296    -0.277 -0.4851  0.8745  0.0001
              Bcc     0.0034     1.830     0.653     0.610  0.8745  0.4851  0.0000
 
              Baa    -0.0341   -18.178    -6.486    -6.063  0.9679 -0.2514  0.0000
     6 H(1)   Bbb     0.0050     2.653     0.947     0.885 -0.0000 -0.0000  1.0000
              Bcc     0.0291    15.525     5.540     5.179  0.2514  0.9679  0.0000
 

 ---------------------------------------------------------------------------------

 Unable to Open any file for archive entry.
 1\1\GINC-SE343\Stability\UHF\Aug-CC-pVDZ\C1H2O2P1\OHZDE\08-Apr-2025\0\
 \#t hf aug-cc-pvdz symm=none int=(grid=ultrafine) guess=(read,tcheck) 
 stable=opt\\title\\0,2\C,0,-0.476422,0.1325,-0.000009\P,0,1.375431,-0.
 143454,-0.000003\O,0,-1.053784,1.188155,-0.000002\O,0,-1.11396,-1.0650
 77,0.000006\H,0,-2.066972,-0.878855,0.000011\H,0,1.63599,1.251043,0.00
 0047\\Version=ES64L-G16RevC.01\HF=-529.512029\S2=0.777794\S2-1=0.\S2A=
 0.750502\RMSD=6.567e-09\Dipole=0.1069169,-0.336161,0.0000068\Quadrupol
 e=3.1030281,-3.5055651,0.402537,3.7773229,0.00003,0.0000077\PG=Unknown
 \\@
 The archive entry for this job was punched.


 WORK FAITHFULLY FOR EIGHT HOURS A DAY AND DON'T WORRY.
 IN TIME YOU MAY BECOME BOSS AND WORK TWELVE HOURS A DAY
 AND HAVE ALL THE WORRY.
 Job cpu time:       0 days  0 hours  0 minutes 42.8 seconds.
 Elapsed time:       0 days  0 hours  0 minutes  4.7 seconds.
 File lengths (MBytes):  RWF=    105 Int=      0 D2E=      0 Chk=      3 Scr=      1
 Normal termination of Gaussian 16 at Tue Apr  8 23:38:07 2025.
 Initial command:
 /arc/software/Gaussian/g16.c01/l1.exe "/tmp/slurm/4846188/Gau-3441117.inp" -scrdir="/tmp/slurm/4846188/"
 Entering Link 1 = /arc/software/Gaussian/g16.c01/l1.exe PID=   3441452.
  
 Copyright (c) 1988-2019, Gaussian, Inc.  All Rights Reserved.
  
 This is part of the Gaussian(R) 16 program.  It is based on
 the Gaussian(R) 09 system (copyright 2009, Gaussian, Inc.),
 the Gaussian(R) 03 system (copyright 2003, Gaussian, Inc.),
 the Gaussian(R) 98 system (copyright 1998, Gaussian, Inc.),
 the Gaussian(R) 94 system (copyright 1995, Gaussian, Inc.),
 the Gaussian 92(TM) system (copyright 1992, Gaussian, Inc.),
 the Gaussian 90(TM) system (copyright 1990, Gaussian, Inc.),
 the Gaussian 88(TM) system (copyright 1988, Gaussian, Inc.),
 the Gaussian 86(TM) system (copyright 1986, Carnegie Mellon
 University), and the Gaussian 82(TM) system (copyright 1983,
 Carnegie Mellon University). Gaussian is a federally registered
 trademark of Gaussian, Inc.
  
 This software contains proprietary and confidential information,
 including trade secrets, belonging to Gaussian, Inc.
  
 This software is provided under written license and may be
 used, copied, transmitted, or stored only in accord with that
 written license.
  
 The following legend is applicable only to US Government
 contracts under FAR:
  
                    RESTRICTED RIGHTS LEGEND
  
 Use, reproduction and disclosure by the US Government is
 subject to restrictions as set forth in subparagraphs (a)
 and (c) of the Commercial Computer Software - Restricted
 Rights clause in FAR 52.227-19.
  
 Gaussian, Inc.
 340 Quinnipiac St., Bldg. 40, Wallingford CT 06492
  
  
 ---------------------------------------------------------------
 Warning -- This program may not be used in any manner that
 competes with the business of Gaussian, Inc. or will provide
 assistance to any competitor of Gaussian, Inc.  The licensee
 of this program is prohibited from giving any competitor of
 Gaussian, Inc. access to this program.  By using this program,
 the user acknowledges that Gaussian, Inc. is engaged in the
 business of creating and licensing software in the field of
 computational chemistry and represents and warrants to the
 licensee that it is not a competitor of Gaussian, Inc. and that
 it will not use this program in any manner prohibited above.
 ---------------------------------------------------------------
  

 Cite this work as:
 Gaussian 16, Revision C.01,
 M. J. Frisch, G. W. Trucks, H. B. Schlegel, G. E. Scuseria, 
 M. A. Robb, J. R. Cheeseman, G. Scalmani, V. Barone, 
 G. A. Petersson, H. Nakatsuji, X. Li, M. Caricato, A. V. Marenich, 
 J. Bloino, B. G. Janesko, R. Gomperts, B. Mennucci, H. P. Hratchian, 
 J. V. Ortiz, A. F. Izmaylov, J. L. Sonnenberg, D. Williams-Young, 
 F. Ding, F. Lipparini, F. Egidi, J. Goings, B. Peng, A. Petrone, 
 T. Henderson, D. Ranasinghe, V. G. Zakrzewski, J. Gao, N. Rega, 
 G. Zheng, W. Liang, M. Hada, M. Ehara, K. Toyota, R. Fukuda, 
 J. Hasegawa, M. Ishida, T. Nakajima, Y. Honda, O. Kitao, H. Nakai, 
 T. Vreven, K. Throssell, J. A. Montgomery, Jr., J. E. Peralta, 
 F. Ogliaro, M. J. Bearpark, J. J. Heyd, E. N. Brothers, K. N. Kudin, 
 V. N. Staroverov, T. A. Keith, R. Kobayashi, J. Normand, 
 K. Raghavachari, A. P. Rendell, J. C. Burant, S. S. Iyengar, 
 J. Tomasi, M. Cossi, J. M. Millam, M. Klene, C. Adamo, R. Cammi, 
 J. W. Ochterski, R. L. Martin, K. Morokuma, O. Farkas, 
 J. B. Foresman, and D. J. Fox, Gaussian, Inc., Wallingford CT, 2019.
 
 ******************************************
 Gaussian 16:  ES64L-G16RevC.01  3-Jul-2019
                 8-Apr-2025 
 ******************************************
 %nprocs=16
 Will use up to   16 processors via shared memory.
 %mem=30GB
 %chk=BDE49_nonexpt_1575_mol2.chk
 ----------------------------------------------------------------------
 #t hf aug-cc-pvdz iop(5/13=1,5/36=2,99/5=2) pseudo=read geom=check gue
 ss=(read,tcheck) scf=(maxcycle=1)
 ----------------------------------------------------------------------
 -----
 title
 -----
 Structure from the checkpoint file:  "BDE49_nonexpt_1575_mol2.chk"
 Charge =  0 Multiplicity = 2
 Z-Matrix found in chk file.
 C,0,-0.476422,0.1325,-0.000009
 P,0,1.375431,-0.143454,-0.000003
 O,0,-1.053784,1.188155,-0.000002
 O,0,-1.11396,-1.065077,0.000006
 H,0,-2.066972,-0.878855,0.000011
 H,0,1.63599,1.251043,0.000047
 Recover connectivity data from disk.
                    Distance matrix (angstroms):
                    1          2          3          4          5
     1  C    0.000000
     2  P    1.872301   0.000000
     3  O    1.203227   2.770247   0.000000
     4  O    1.356704   2.654516   2.254035   0.000000
     5  H    1.884858   3.520079   2.301973   0.971036   0.000000
     6  H    2.390277   1.418631   2.690509   3.595363   4.271814
                    6
     6  H    0.000000
 Framework group  C1[X(CH2O2P)]
 Deg. of freedom    12
                         Standard orientation:                         
 ---------------------------------------------------------------------
 Center     Atomic      Atomic             Coordinates (Angstroms)
 Number     Number       Type             X           Y           Z
 ---------------------------------------------------------------------
      1          6           0       -0.476422    0.132500   -0.000009
      2         15           0        1.375431   -0.143454   -0.000003
      3          8           0       -1.053784    1.188155   -0.000002
      4          8           0       -1.113960   -1.065077    0.000006
      5          1           0       -2.066972   -0.878855    0.000011
      6          1           0        1.635990    1.251043    0.000047
 ---------------------------------------------------------------------
 Rotational constants (GHZ):          11.5736462           4.7609397           3.3732984
 ======================================================================================================
                                       Pseudopotential Parameters
 ======================================================================================================
  Center     Atomic      Valence      Angular      Power
  Number     Number     Electrons     Momentum     of R      Exponent        Coefficient   SO-Coeffient
 ======================================================================================================
    1          6            6
                                      G and up 
                                                     0        0.0000010       -0.00007288    0.00000000
                                                     2        0.1200000        0.10466671    0.00000000
                                                     2        0.1400000       -0.65716157    0.00000000
                                                     2        0.1600000        1.18890794    0.00000000
                                                     2        0.2000000       -1.25772850    0.00000000
                                                     2        0.2600000        1.01188378    0.00000000
                                                     2        0.4000000       -1.09380874    0.00000000
                                                     2        0.5000000        0.96944888    0.00000000
                                                     2        1.0000000       -0.79256938    0.00000000
                                                     2        3.0000000        1.06443276    0.00000000
                                      S - G
                                                     0        0.0000010       -0.00635295    0.00000000
                                                     2        0.1200000        0.16918955    0.00000000
                                                     2        0.1600000       -0.38862576    0.00000000
                                                     2        0.2800000        0.25638263    0.00000000
                                                     2        0.5000000        0.29628419    0.00000000
                                                     2        0.9000000       -0.28791512    0.00000000
                                      P - G
                                                     0        0.0000010       -0.04756931    0.00000000
                                                     2        0.1200000        0.28430375    0.00000000
                                                     2        0.1600000       -0.69640032    0.00000000
                                                     2        0.2600000        1.13005668    0.00000000
                                                     2        0.4000000       -1.31433324    0.00000000
                                                     2        0.7000000        0.91526469    0.00000000
                                      D - G
                                                     0        0.0000010       -0.11496411    0.00000000
                                                     2        0.1200000        0.16620776    0.00000000
                                                     2        0.1800000       -0.30959819    0.00000000
                                                     2        0.3000000        0.16621458    0.00000000
                                                     2        0.6000000        0.27350556    0.00000000
                                      F - G
                                                     0        0.0000010        0.12037550    0.00000000
                                                     2        0.1200000       -0.48737077    0.00000000
                                                     2        0.1400000        0.58315350    0.00000000
                                                     2        0.3000000        0.00005188    0.00000000
                                                     2        0.5000000       -1.16063549    0.00000000
                                                     2        0.8000000        2.09053308    0.00000000
    2         15           15
                                      G and up 
                                                     0        0.0000010       -0.00016516    0.00000000
                                                     2        0.1200000       -0.08406156    0.00000000
                                                     2        0.1400000        0.35563553    0.00000000
                                                     2        0.1600000       -0.37362088    0.00000000
                                                     2        0.2400000        0.19669494    0.00000000
                                                     2        0.4000000       -0.20020603    0.00000000
                                      S - G
                                                     0        0.0000010       -0.01385993    0.00000000
                                                     2        0.1200000        0.05630526    0.00000000
                                                     2        0.2000000       -0.09537588    0.00000000
                                                     2        0.4000000       -0.53985714    0.00000000
                                                     2        1.1000000        2.43552452    0.00000000
                                      P - G
                                                     0        0.0000010        0.17843185    0.00000000
                                                     2        0.1200000       -0.31077649    0.00000000
                                                     2        0.2200000        0.64937126    0.00000000
                                                     2        0.5000000       -0.99645722    0.00000000
                                      D - G
                                                     0        0.0000010       -0.08963584    0.00000000
                                                     2        0.1200000        0.16512367    0.00000000
                                                     2        0.1800000       -0.31793327    0.00000000
                                                     2        0.4000000        0.42496203    0.00000000
                                      F - G
                                                     0        0.0000010        0.02339588    0.00000000
                                                     2        0.1200000       -0.03495660    0.00000000
                                                     2        0.2400000        0.12863886    0.00000000
    3          8            8
                                      G and up 
                                                     0        0.0000010        0.00049668    0.00000000
                                                     2        0.1200000       -0.01803391    0.00000000
                                                     2        0.1400000        0.04014195    0.00000000
                                                     2        0.2000000       -0.02692147    0.00000000
                                                     2        0.2800000       -0.04241843    0.00000000
                                                     2        0.4000000        0.15412145    0.00000000
                                                     2        0.7000000       -0.40587006    0.00000000
                                                     2        1.1000000        1.75666647    0.00000000
                                      S - G
                                                     0        0.0000010       -0.01088195    0.00000000
                                                     2        0.1200000        0.09867335    0.00000000
                                                     2        0.2400000       -0.08484177    0.00000000
                                                     2        0.6000000       -1.39011554    0.00000000
                                                     2        2.5000000        1.36225910    0.00000000
                                      P - G
                                                     0        0.0000010        0.05874028    0.00000000
                                                     2        0.1200000       -0.11700340    0.00000000
                                                     2        0.1600000        0.08847775    0.00000000
                                                     2        0.3000000        0.04709907    0.00000000
                                                     2        1.2000000       -1.80388338    0.00000000
                                      D - G
                                                     0        0.0000010       -0.00541262    0.00000000
                                                     2        0.1200000       -0.26547906    0.00000000
                                                     2        0.1600000        1.04289661    0.00000000
                                                     2        0.2400000       -1.92800913    0.00000000
                                                     2        0.4000000        2.26691633    0.00000000
                                                     2        0.7000000       -1.97391482    0.00000000
                                      F - G
                                                     0        0.0000010       -0.02604870    0.00000000
                                                     2        0.1200000        0.37362552    0.00000000
                                                     2        0.1600000       -1.43526367    0.00000000
                                                     2        0.2200000        1.76778079    0.00000000
                                                     2        0.5000000       -1.90846303    0.00000000
    4          8            8
                                      G and up 
                                                     0        0.0000010        0.00049668    0.00000000
                                                     2        0.1200000       -0.01803391    0.00000000
                                                     2        0.1400000        0.04014195    0.00000000
                                                     2        0.2000000       -0.02692147    0.00000000
                                                     2        0.2800000       -0.04241843    0.00000000
                                                     2        0.4000000        0.15412145    0.00000000
                                                     2        0.7000000       -0.40587006    0.00000000
                                                     2        1.1000000        1.75666647    0.00000000
                                      S - G
                                                     0        0.0000010       -0.01088195    0.00000000
                                                     2        0.1200000        0.09867335    0.00000000
                                                     2        0.2400000       -0.08484177    0.00000000
                                                     2        0.6000000       -1.39011554    0.00000000
                                                     2        2.5000000        1.36225910    0.00000000
                                      P - G
                                                     0        0.0000010        0.05874028    0.00000000
                                                     2        0.1200000       -0.11700340    0.00000000
                                                     2        0.1600000        0.08847775    0.00000000
                                                     2        0.3000000        0.04709907    0.00000000
                                                     2        1.2000000       -1.80388338    0.00000000
                                      D - G
                                                     0        0.0000010       -0.00541262    0.00000000
                                                     2        0.1200000       -0.26547906    0.00000000
                                                     2        0.1600000        1.04289661    0.00000000
                                                     2        0.2400000       -1.92800913    0.00000000
                                                     2        0.4000000        2.26691633    0.00000000
                                                     2        0.7000000       -1.97391482    0.00000000
                                      F - G
                                                     0        0.0000010       -0.02604870    0.00000000
                                                     2        0.1200000        0.37362552    0.00000000
                                                     2        0.1600000       -1.43526367    0.00000000
                                                     2        0.2200000        1.76778079    0.00000000
                                                     2        0.5000000       -1.90846303    0.00000000
    5          1            1
                                      F and up 
                                                     0        0.0000010       -0.00007675    0.00000000
                                                     2        0.1200000        0.05352699    0.00000000
                                                     2        0.1400000       -0.25123645    0.00000000
                                                     2        0.1600000        0.32188106    0.00000000
                                                     2        0.2200000       -0.25206857    0.00000000
                                                     2        0.3000000        0.19290477    0.00000000
                                                     2        0.5000000       -0.10129770    0.00000000
                                                     2        0.9000000        0.00314995    0.00000000
                                                     2        1.5000000        0.18401192    0.00000000
                                      S - F
                                                     0        0.0000010        0.08065976    0.00000000
                                                     2        0.1200000       -0.09231673    0.00000000
                                                     2        0.1600000       -0.03278082    0.00000000
                                                     2        0.2800000        0.38423402    0.00000000
                                                     2        0.6000000       -1.09357590    0.00000000
                                                     2        1.1000000        1.53099489    0.00000000
                                                     2        3.0000000       -2.63300202    0.00000000
                                      P - F
                                                     0        0.0000010       -0.11638665    0.00000000
                                                     2        0.1200000        0.35468655    0.00000000
                                                     2        0.1600000       -0.59160923    0.00000000
                                                     2        0.3000000        0.49390547    0.00000000
                                                     2        0.6000000       -0.37949835    0.00000000
                                                     2        1.6000000        0.89304688    0.00000000
                                      D - F
                                                     0        0.0000010        0.05443663    0.00000000
                                                     2        0.1200000       -0.29679479    0.00000000
                                                     2        0.1400000        0.36849872    0.00000000
                                                     2        0.2400000        0.02793449    0.00000000
                                                     2        0.4000000       -0.46312857    0.00000000
                                                     2        0.7000000        0.97587598    0.00000000
                                                     2        1.5000000       -2.43431102    0.00000000
    6          1            1
                                      F and up 
                                                     0        0.0000010       -0.00007675    0.00000000
                                                     2        0.1200000        0.05352699    0.00000000
                                                     2        0.1400000       -0.25123645    0.00000000
                                                     2        0.1600000        0.32188106    0.00000000
                                                     2        0.2200000       -0.25206857    0.00000000
                                                     2        0.3000000        0.19290477    0.00000000
                                                     2        0.5000000       -0.10129770    0.00000000
                                                     2        0.9000000        0.00314995    0.00000000
                                                     2        1.5000000        0.18401192    0.00000000
                                      S - F
                                                     0        0.0000010        0.08065976    0.00000000
                                                     2        0.1200000       -0.09231673    0.00000000
                                                     2        0.1600000       -0.03278082    0.00000000
                                                     2        0.2800000        0.38423402    0.00000000
                                                     2        0.6000000       -1.09357590    0.00000000
                                                     2        1.1000000        1.53099489    0.00000000
                                                     2        3.0000000       -2.63300202    0.00000000
                                      P - F
                                                     0        0.0000010       -0.11638665    0.00000000
                                                     2        0.1200000        0.35468655    0.00000000
                                                     2        0.1600000       -0.59160923    0.00000000
                                                     2        0.3000000        0.49390547    0.00000000
                                                     2        0.6000000       -0.37949835    0.00000000
                                                     2        1.6000000        0.89304688    0.00000000
                                      D - F
                                                     0        0.0000010        0.05443663    0.00000000
                                                     2        0.1200000       -0.29679479    0.00000000
                                                     2        0.1400000        0.36849872    0.00000000
                                                     2        0.2400000        0.02793449    0.00000000
                                                     2        0.4000000       -0.46312857    0.00000000
                                                     2        0.7000000        0.97587598    0.00000000
                                                     2        1.5000000       -2.43431102    0.00000000
 ======================================================================================================
   114 basis functions,   232 primitive gaussians,   122 cartesian basis functions
    20 alpha electrons       19 beta electrons
       nuclear repulsion energy       147.0760818238 Hartrees.
 NAtoms=    6 NActive=    6 NUniq=    6 SFac= 1.00D+00 NAtFMM=   60 NAOKFM=F Big=F
   1 Symmetry operations used in ECPInt.
 ECPInt:  NShTT=    1176 NPrTT=    8264 LenC2=    1175 LenP2D=    6391.
 LDataN:  DoStor=T MaxTD1= 6 Len=  172
 Initial guess from the checkpoint file:  "BDE49_nonexpt_1575_mol2.chk"
 B after Tr=     0.000000   -0.000000    0.000000
         Rot=    1.000000    0.000000    0.000000   -0.000000 Ang=  -0.00 deg.
 Initial guess <Sx>= 0.0000 <Sy>= 0.0000 <Sz>= 0.5000 <S**2>= 0.7778 S= 0.5138
 >>>>>>>>>> Convergence criterion not met.
 SCF Done:  E(UHF) =  -529.730942748     A.U. after    2 cycles
            NFock=  1  Conv=0.17D-01     -V/T= 2.0162
 <Sx>= 0.0000 <Sy>= 0.0000 <Sz>= 0.5000 <S**2>= 0.7778 S= 0.5138
 <L.S>=  0.00000000000    
 Annihilation of the first spin contaminant:
 S**2 before annihilation     0.7778,   after     0.7505

 **********************************************************************

            Population analysis using the SCF Density.

 **********************************************************************

 Orbital symmetries:
 Alpha Orbitals:
       Occupied  (A) (A) (A) (A) (A) (A) (A) (A) (A) (A) (A) (A)
                 (A) (A) (A) (A) (A) (A) (A) (A)
       Virtual   (A) (A) (A) (A) (A) (A) (A) (A) (A) (A) (A) (A)
                 (A) (A) (A) (A) (A) (A) (A) (A) (A) (A) (A) (A)
                 (A) (A) (A) (A) (A) (A) (A) (A) (A) (A) (A) (A)
                 (A) (A) (A) (A) (A) (A) (A) (A) (A) (A) (A) (A)
                 (A) (A) (A) (A) (A) (A) (A) (A) (A) (A) (A) (A)
                 (A) (A) (A) (A) (A) (A) (A) (A) (A) (A) (A) (A)
                 (A) (A) (A) (A) (A) (A) (A) (A) (A) (A) (A) (A)
                 (A) (A) (A) (A) (A) (A) (A) (A) (A) (A)
 Beta  Orbitals:
       Occupied  (A) (A) (A) (A) (A) (A) (A) (A) (A) (A) (A) (A)
                 (A) (A) (A) (A) (A) (A) (A)
       Virtual   (A) (A) (A) (A) (A) (A) (A) (A) (A) (A) (A) (A)
                 (A) (A) (A) (A) (A) (A) (A) (A) (A) (A) (A) (A)
                 (A) (A) (A) (A) (A) (A) (A) (A) (A) (A) (A) (A)
                 (A) (A) (A) (A) (A) (A) (A) (A) (A) (A) (A) (A)
                 (A) (A) (A) (A) (A) (A) (A) (A) (A) (A) (A) (A)
                 (A) (A) (A) (A) (A) (A) (A) (A) (A) (A) (A) (A)
                 (A) (A) (A) (A) (A) (A) (A) (A) (A) (A) (A) (A)
                 (A) (A) (A) (A) (A) (A) (A) (A) (A) (A) (A)
 The electronic state is 2-A.
 Alpha  occ. eigenvalues --  -84.31457 -20.61364 -20.56384 -11.40825  -6.78683
 Alpha  occ. eigenvalues --   -4.30980  -4.30698  -4.30087  -1.56141  -1.47373
 Alpha  occ. eigenvalues --   -0.95506  -0.81269  -0.72345  -0.66330  -0.64361
 Alpha  occ. eigenvalues --   -0.55888  -0.50656  -0.48749  -0.39988  -0.36693
 Alpha virt. eigenvalues --    0.03702   0.05058   0.07591   0.09297   0.09429
 Alpha virt. eigenvalues --    0.11252   0.11268   0.13417   0.15421   0.15553
 Alpha virt. eigenvalues --    0.18507   0.19254   0.20555   0.20583   0.22317
 Alpha virt. eigenvalues --    0.25957   0.28150   0.28388   0.30794   0.31073
 Alpha virt. eigenvalues --    0.33098   0.35354   0.35873   0.37706   0.41605
 Alpha virt. eigenvalues --    0.43712   0.44127   0.45467   0.49587   0.51053
 Alpha virt. eigenvalues --    0.53711   0.55581   0.57260   0.58684   0.62106
 Alpha virt. eigenvalues --    0.64507   0.64994   0.68012   0.76036   0.78439
 Alpha virt. eigenvalues --    0.83059   0.85687   0.87285   0.87611   0.88902
 Alpha virt. eigenvalues --    0.90975   0.94212   0.95204   0.98304   1.00465
 Alpha virt. eigenvalues --    1.04672   1.13675   1.14649   1.16808   1.18098
 Alpha virt. eigenvalues --    1.26257   1.26879   1.29851   1.33462   1.35037
 Alpha virt. eigenvalues --    1.38454   1.47332   1.52828   1.62210   1.64209
 Alpha virt. eigenvalues --    1.70777   1.78774   1.84519   1.92256   1.93314
 Alpha virt. eigenvalues --    1.95095   2.01962   2.05197   2.09510   2.15609
 Alpha virt. eigenvalues --    2.19578   2.23340   2.34434   2.42644   2.54842
 Alpha virt. eigenvalues --    2.67316   3.00116   3.11733   3.20651   3.74735
 Alpha virt. eigenvalues --    3.77177   3.80941   3.81166   3.85269   3.85811
 Alpha virt. eigenvalues --    3.92311   4.06006   4.19842   4.36297
  Beta  occ. eigenvalues --  -84.30780 -20.61402 -20.55768 -11.41207  -6.77825
  Beta  occ. eigenvalues --   -4.30174  -4.29662  -4.27674  -1.55924  -1.46402
  Beta  occ. eigenvalues --   -0.92244  -0.78823  -0.71962  -0.65392  -0.63588
  Beta  occ. eigenvalues --   -0.55520  -0.47855  -0.47401  -0.38611
  Beta virt. eigenvalues --    0.00792   0.03762   0.05132   0.07785   0.09381
  Beta virt. eigenvalues --    0.11268   0.11312   0.11646   0.13756   0.16656
  Beta virt. eigenvalues --    0.18907   0.19122   0.19898   0.20639   0.21552
  Beta virt. eigenvalues --    0.22530   0.27597   0.28467   0.30811   0.31470
  Beta virt. eigenvalues --    0.31589   0.33455   0.35503   0.37351   0.39052
  Beta virt. eigenvalues --    0.41903   0.44547   0.44889   0.45636   0.50590
  Beta virt. eigenvalues --    0.51893   0.54270   0.55563   0.58311   0.59123
  Beta virt. eigenvalues --    0.62129   0.65032   0.65777   0.68399   0.78562
  Beta virt. eigenvalues --    0.82328   0.83798   0.87825   0.87907   0.89105
  Beta virt. eigenvalues --    0.91964   0.92290   0.95412   0.97429   0.98667
  Beta virt. eigenvalues --    1.02472   1.05719   1.14003   1.14696   1.16980
  Beta virt. eigenvalues --    1.18504   1.27638   1.27814   1.30233   1.33654
  Beta virt. eigenvalues --    1.35684   1.38651   1.47588   1.52908   1.62045
  Beta virt. eigenvalues --    1.64610   1.70728   1.80436   1.84523   1.92231
  Beta virt. eigenvalues --    1.93813   1.95187   2.01861   2.05261   2.09485
  Beta virt. eigenvalues --    2.15665   2.19591   2.23483   2.34652   2.42831
  Beta virt. eigenvalues --    2.54849   2.67375   3.00065   3.11867   3.20876
  Beta virt. eigenvalues --    3.75107   3.77386   3.81609   3.81824   3.86048
  Beta virt. eigenvalues --    3.86832   3.92407   4.06129   4.20474   4.36300
          Condensed to atoms (all electrons):
          Atomic-Atomic Spin Densities.
 Mulliken charges and spin densities:
               1          2
     1  C    1.078707  -0.187937
     2  P    0.384347   1.202035
     3  O   -1.001316   0.150165
     4  O   -1.009664  -0.003383
     5  H    0.334019  -0.000105
     6  H    0.213907  -0.160775
 Sum of Mulliken charges =  -0.00000   1.00000
 Mulliken charges and spin densities with hydrogens summed into heavy atoms:
               1          2
     1  C    1.078707  -0.187937
     2  P    0.598254   1.041260
     3  O   -1.001316   0.150165
     4  O   -0.675645  -0.003488
 Electronic spatial extent (au):  <R**2>=            351.6239
 Charge=             -0.0000 electrons
 Dipole moment (field-independent basis, Debye):
    X=              0.4782    Y=             -1.0541    Z=              0.0000  Tot=              1.1575
                          Isotropic Fermi Contact Couplings
        Atom                 a.u.       MegaHertz       Gauss      10(-4) cm-1
     1  C(13)             -0.05729     -64.40584     -22.98160     -21.48347
     2  P(31)              0.19055     345.11205     123.14456     115.11699
     3  O(17)              0.04597     -27.86786      -9.94395      -9.29572
     4  O(17)             -0.01198       7.26242       2.59141       2.42248
     5  H(1)              -0.00058      -2.59647      -0.92648      -0.86609
     6  H(1)              -0.01498     -66.96076     -23.89326     -22.33570
 --------------------------------------------------------
       Center         ----  Spin Dipole Couplings  ----
                      3XX-RR        3YY-RR        3ZZ-RR
 --------------------------------------------------------
     1   Atom        0.033236      0.058347     -0.091584
     2   Atom       -1.673481     -1.761571      3.435053
     3   Atom       -0.259392     -0.257047      0.516439
     4   Atom        0.014675      0.007046     -0.021721
     5   Atom        0.002241     -0.000368     -0.001873
     6   Atom       -0.028428      0.021499      0.006929
 --------------------------------------------------------
                        XY            XZ            YZ
 --------------------------------------------------------
     1   Atom       -0.003444     -0.000000     -0.000000
     2   Atom        0.119377     -0.000054     -0.000183
     3   Atom        0.002736      0.000000     -0.000002
     4   Atom        0.002676      0.000003     -0.000000
     5   Atom        0.002138      0.000000      0.000000
     6   Atom        0.014381      0.000000      0.000001
 --------------------------------------------------------


 ---------------------------------------------------------------------------------
              Anisotropic Spin Dipole Couplings in Principal Axis System
 ---------------------------------------------------------------------------------

       Atom             a.u.   MegaHertz   Gauss  10(-4) cm-1        Axes

              Baa    -0.0916   -12.290    -4.385    -4.099  0.0000  0.0000  1.0000
     1 C(13)  Bbb     0.0328     4.398     1.569     1.467  0.9911  0.1335 -0.0000
              Bcc     0.0588     7.892     2.816     2.632 -0.1335  0.9911 -0.0000
 
              Baa    -1.8448  -398.809  -142.305  -133.028 -0.5718  0.8204  0.0000
     2 P(31)  Bbb    -1.5903  -343.794  -122.674  -114.677  0.8204  0.5718  0.0000
              Bcc     3.4351   742.603   264.979   247.706 -0.0000 -0.0000  1.0000
 
              Baa    -0.2612    18.900     6.744     6.304  0.8348 -0.5505 -0.0000
     3 O(17)  Bbb    -0.2552    18.469     6.590     6.161  0.5505  0.8348  0.0000
              Bcc     0.5164   -37.369   -13.334   -12.465  0.0000 -0.0000  1.0000
 
              Baa    -0.0217     1.572     0.561     0.524 -0.0001  0.0000  1.0000
     4 O(17)  Bbb     0.0062    -0.449    -0.160    -0.150 -0.3012  0.9536 -0.0000
              Bcc     0.0155    -1.123    -0.401    -0.375  0.9536  0.3012  0.0001
 
              Baa    -0.0019    -0.999    -0.357    -0.333  0.0000 -0.0001  1.0000
     5 H(1)   Bbb    -0.0016    -0.837    -0.299    -0.279 -0.4895  0.8720  0.0001
              Bcc     0.0034     1.836     0.655     0.612  0.8720  0.4895  0.0000
 
              Baa    -0.0323   -17.220    -6.145    -5.744  0.9660 -0.2584  0.0000
     6 H(1)   Bbb     0.0069     3.697     1.319     1.233 -0.0000 -0.0000  1.0000
              Bcc     0.0253    13.523     4.825     4.511  0.2584  0.9660  0.0000
 

 ---------------------------------------------------------------------------------


 Test job not archived.
 1\1\GINC-SE343\SP\UHF\Aug-CC-pVDZ\C1H2O2P1(2)\OHZDE\08-Apr-2025\0\\#t 
 hf aug-cc-pvdz iop(5/13=1,5/36=2,99/5=2) pseudo=read geom=check guess=
 (read,tcheck) scf=(maxcycle=1)\\title\\0,2\C,0,-0.476422,0.1325,-0.000
 009\P,0,1.375431,-0.143454,-0.000003\O,0,-1.053784,1.188155,-0.000002\
 O,0,-1.11396,-1.065077,0.000006\H,0,-2.066972,-0.878855,0.000011\H,0,1
 .63599,1.251043,0.000047\\Version=ES64L-G16RevC.01\State=2-A\HF=-529.7
 309427\S2=0.777796\S2-1=0.\S2A=0.750498\RMSD=1.657e-02\Dipole=0.188139
 5,-0.4147105,0.0000053\Quadrupole=3.3457708,-3.5298031,0.1840323,3.466
 9318,0.0000228,0.0000058\PG=C01 [X(C1H2O2P1)]\\@


 The best way to pay for a lovely moment is to enjoy it.
 -- Richard Bach
 Job cpu time:       0 days  0 hours  0 minutes 16.2 seconds.
 Elapsed time:       0 days  0 hours  0 minutes  1.7 seconds.
 File lengths (MBytes):  RWF=      6 Int=      0 D2E=      0 Chk=      3 Scr=      1
 Normal termination of Gaussian 16 at Tue Apr  8 23:38:09 2025.
