 Entering Gaussian System, Link 0=g16
 Input=BDE49_nonexpt_659_mol1.gjf
 Output=BDE49_nonexpt_659_mol1.log
 Initial command:
 /arc/software/Gaussian/g16.c01/l1.exe "/tmp/slurm/4854660/Gau-1912148.inp" -scrdir="/tmp/slurm/4854660/"
 Entering Link 1 = /arc/software/Gaussian/g16.c01/l1.exe PID=   1912149.
  
 Copyright (c) 1988-2019, Gaussian, Inc.  All Rights Reserved.
  
 This is part of the Gaussian(R) 16 program.  It is based on
 the Gaussian(R) 09 system (copyright 2009, Gaussian, Inc.),
 the Gaussian(R) 03 system (copyright 2003, Gaussian, Inc.),
 the Gaussian(R) 98 system (copyright 1998, Gaussian, Inc.),
 the Gaussian(R) 94 system (copyright 1995, Gaussian, Inc.),
 the Gaussian 92(TM) system (copyright 1992, Gaussian, Inc.),
 the Gaussian 90(TM) system (copyright 1990, Gaussian, Inc.),
 the Gaussian 88(TM) system (copyright 1988, Gaussian, Inc.),
 the Gaussian 86(TM) system (copyright 1986, Carnegie Mellon
 University), and the Gaussian 82(TM) system (copyright 1983,
 Carnegie Mellon University). Gaussian is a federally registered
 trademark of Gaussian, Inc.
  
 This software contains proprietary and confidential information,
 including trade secrets, belonging to Gaussian, Inc.
  
 This software is provided under written license and may be
 used, copied, transmitted, or stored only in accord with that
 written license.
  
 The following legend is applicable only to US Government
 contracts under FAR:
  
                    RESTRICTED RIGHTS LEGEND
  
 Use, reproduction and disclosure by the US Government is
 subject to restrictions as set forth in subparagraphs (a)
 and (c) of the Commercial Computer Software - Restricted
 Rights clause in FAR 52.227-19.
  
 Gaussian, Inc.
 340 Quinnipiac St., Bldg. 40, Wallingford CT 06492
  
  
 ---------------------------------------------------------------
 Warning -- This program may not be used in any manner that
 competes with the business of Gaussian, Inc. or will provide
 assistance to any competitor of Gaussian, Inc.  The licensee
 of this program is prohibited from giving any competitor of
 Gaussian, Inc. access to this program.  By using this program,
 the user acknowledges that Gaussian, Inc. is engaged in the
 business of creating and licensing software in the field of
 computational chemistry and represents and warrants to the
 licensee that it is not a competitor of Gaussian, Inc. and that
 it will not use this program in any manner prohibited above.
 ---------------------------------------------------------------
  

 Cite this work as:
 Gaussian 16, Revision C.01,
 M. J. Frisch, G. W. Trucks, H. B. Schlegel, G. E. Scuseria, 
 M. A. Robb, J. R. Cheeseman, G. Scalmani, V. Barone, 
 G. A. Petersson, H. Nakatsuji, X. Li, M. Caricato, A. V. Marenich, 
 J. Bloino, B. G. Janesko, R. Gomperts, B. Mennucci, H. P. Hratchian, 
 J. V. Ortiz, A. F. Izmaylov, J. L. Sonnenberg, D. Williams-Young, 
 F. Ding, F. Lipparini, F. Egidi, J. Goings, B. Peng, A. Petrone, 
 T. Henderson, D. Ranasinghe, V. G. Zakrzewski, J. Gao, N. Rega, 
 G. Zheng, W. Liang, M. Hada, M. Ehara, K. Toyota, R. Fukuda, 
 J. Hasegawa, M. Ishida, T. Nakajima, Y. Honda, O. Kitao, H. Nakai, 
 T. Vreven, K. Throssell, J. A. Montgomery, Jr., J. E. Peralta, 
 F. Ogliaro, M. J. Bearpark, J. J. Heyd, E. N. Brothers, K. N. Kudin, 
 V. N. Staroverov, T. A. Keith, R. Kobayashi, J. Normand, 
 K. Raghavachari, A. P. Rendell, J. C. Burant, S. S. Iyengar, 
 J. Tomasi, M. Cossi, J. M. Millam, M. Klene, C. Adamo, R. Cammi, 
 J. W. Ochterski, R. L. Martin, K. Morokuma, O. Farkas, 
 J. B. Foresman, and D. J. Fox, Gaussian, Inc., Wallingford CT, 2019.
 
 ******************************************
 Gaussian 16:  ES64L-G16RevC.01  3-Jul-2019
                 9-Apr-2025 
 ******************************************
 %nprocs=16
 Will use up to   16 processors via shared memory.
 %mem=30GB
 %chk=BDE49_nonexpt_659_mol1.chk
 ----------------------------------------------------------------------
 #t hf aug-cc-pvdz symm=none int=(grid=ultrafine) guess=(read,tcheck) s
 table=(opt,rrhf)
 ----------------------------------------------------------------------
 -----
 title
 -----
 Symbolic Z-matrix:
 Charge =  0 Multiplicity = 1
 O                     0.60741  -0.82734  -0.01704 
 B                    -0.51609   0.00168  -0.00058 
 O                    -0.43928   1.35781   0.01406 
 O                    -1.69954  -0.66568   0.00464 
 O                     1.80418  -0.00341  -0.07441 
 H                     2.36129  -0.48359   0.55203 
 H                     0.48211   1.64314   0.01529 
 H                    -2.4451   -0.05904   0.01763 
 
                    Distance matrix (angstroms):
                    1          2          3          4          5
     1  O    0.000000
     2  B    1.396349   0.000000
     3  O    2.423096   1.358380   0.000000
     4  O    2.312706   1.358661   2.383876   0.000000
     5  O    1.454096   2.321445   2.625615   3.566634   0.000000
     6  H    1.875660   2.969876   3.394606   4.101599   0.966111
     7  H    2.473866   1.921209   0.964562   3.176537   2.113538
     8  H    3.147901   1.930052   2.455766   0.961270   4.250636
                    6          7          8
     6  H    0.000000
     7  H    2.888319   0.000000
     8  H    4.854604   3.386148   0.000000
 Symmetry turned off by external request.
 Rotational constants (GHZ):           9.9372756           4.1271565           2.9290997
   142 basis functions,   248 primitive gaussians,   152 cartesian basis functions
    20 alpha electrons       20 beta electrons
       nuclear repulsion energy       174.8623271258 Hartrees.
 NAtoms=    8 NActive=    8 NUniq=    8 SFac= 1.00D+00 NAtFMM=   60 NAOKFM=F Big=F
 ExpMin= 2.38D-02 ExpMax= 1.17D+04 ExpMxC= 4.01D+02 IAcc=3 IRadAn=         5 AccDes= 0.00D+00
 Harris functional with IExCor=  205 and IRadAn=       5 diagonalized for initial guess.
 HarFok:  IExCor=  205 AccDes= 0.00D+00 IRadAn=         5 IDoV= 1 UseB2=F ITyADJ=14
 ICtDFT=  3500011 ScaDFX=  1.000000  1.000000  1.000000  1.000000
 FoFCou: FMM=F IPFlag=           0 FMFlag=      100000 FMFlg1=           0
         NFxFlg=           0 DoJE=T BraDBF=F KetDBF=T FulRan=T
         wScrn=  0.000000 ICntrl=       500 IOpCl=  0 I1Cent=   200000004 NGrid=           0
         NMat0=    1 NMatS0=      1 NMatT0=    0 NMatD0=    1 NMtDS0=    0 NMtDT0=    0
 Symmetry not used in FoFCou.
 SCF Done:  E(RHF) =  -325.991128411     A.U. after   14 cycles
            NFock= 14  Conv=0.88D-08     -V/T= 2.0011

 **********************************************************************

            Population analysis using the SCF Density.

 **********************************************************************

 Alpha  occ. eigenvalues --  -20.66077 -20.64084 -20.58578 -20.58273  -7.68841
 Alpha  occ. eigenvalues --   -1.49735  -1.39593  -1.36340  -1.23447  -0.78136
 Alpha  occ. eigenvalues --   -0.75555  -0.74607  -0.69101  -0.63828  -0.59383
 Alpha  occ. eigenvalues --   -0.57858  -0.57228  -0.53494  -0.51343  -0.48176
 Alpha virt. eigenvalues --    0.03305   0.04687   0.05739   0.06001   0.07382
 Alpha virt. eigenvalues --    0.09479   0.09995   0.15087   0.18029   0.18786
 Alpha virt. eigenvalues --    0.20032   0.20311   0.21562   0.22443   0.23634
 Alpha virt. eigenvalues --    0.24130   0.24803   0.25181   0.26335   0.27010
 Alpha virt. eigenvalues --    0.28191   0.29156   0.32173   0.32909   0.34735
 Alpha virt. eigenvalues --    0.35404   0.39616   0.41556   0.44258   0.45763
 Alpha virt. eigenvalues --    0.48858   0.50615   0.51829   0.54594   0.55476
 Alpha virt. eigenvalues --    0.55989   0.57853   0.60002   0.60634   0.61494
 Alpha virt. eigenvalues --    0.63053   0.64159   0.65576   0.68039   0.71566
 Alpha virt. eigenvalues --    0.73774   0.74797   0.80641   0.88433   0.90364
 Alpha virt. eigenvalues --    0.96907   0.99136   1.00326   1.01961   1.08476
 Alpha virt. eigenvalues --    1.11320   1.13372   1.16890   1.17638   1.21393
 Alpha virt. eigenvalues --    1.23233   1.27388   1.29008   1.31802   1.34122
 Alpha virt. eigenvalues --    1.39045   1.43121   1.44804   1.45825   1.50375
 Alpha virt. eigenvalues --    1.51030   1.54187   1.57762   1.63125   1.64985
 Alpha virt. eigenvalues --    1.69692   1.74195   1.76926   1.78948   1.86182
 Alpha virt. eigenvalues --    1.87251   1.88874   1.96907   2.08405   2.16154
 Alpha virt. eigenvalues --    2.16514   2.19207   2.25707   2.33751   2.38174
 Alpha virt. eigenvalues --    2.41381   2.51861   2.53716   2.58288   2.64454
 Alpha virt. eigenvalues --    2.69271   2.76082   2.84148   3.00874   3.05893
 Alpha virt. eigenvalues --    3.45562   3.55065   3.60161   3.62366   3.63689
 Alpha virt. eigenvalues --    3.65521   3.66143   3.68518   3.70396   3.71378
 Alpha virt. eigenvalues --    3.74194   3.76584   3.82258   3.83546   3.89164
 Alpha virt. eigenvalues --    3.91892   3.96395   4.15438   4.22157   4.27038
 Alpha virt. eigenvalues --    4.30009   4.41828
          Condensed to atoms (all electrons):
 Mulliken charges:
               1
     1  O   -0.387369
     2  B    1.059517
     3  O   -0.490444
     4  O   -0.552256
     5  O   -0.375174
     6  H    0.283675
     7  H    0.283416
     8  H    0.178635
 Sum of Mulliken charges =  -0.00000
 Mulliken charges with hydrogens summed into heavy atoms:
               1
     1  O   -0.387369
     2  B    1.059517
     3  O   -0.207028
     4  O   -0.373621
     5  O   -0.091499
 Electronic spatial extent (au):  <R**2>=            394.0027
 Charge=             -0.0000 electrons
 Dipole moment (field-independent basis, Debye):
    X=              1.1635    Y=              1.0741    Z=              1.1376  Tot=              1.9497
 NROrb=    142 NOA=    20 NOB=    20 NVA=   122 NVB=   122

 **** Warning!!: The largest alpha MO coefficient is  0.19288729D+02

    12 initial guesses have been made.
 Iteration     1 Dimension    12 NMult     0 NNew     12
 Iteration     2 Dimension    24 NMult    12 NNew     12
 Iteration     3 Dimension    27 NMult    24 NNew      3
 Iteration     4 Dimension    30 NMult    27 NNew      3
 Iteration     5 Dimension    33 NMult    30 NNew      3
 Iteration     6 Dimension    36 NMult    33 NNew      3
 ***********************************************************************
 Stability analysis using <AA,BB:AA,BB> singles matrix:
 ***********************************************************************
 Ground to excited state transition densities written to RWF  633

 Eigenvectors of the stability matrix:
 
 Excited state symmetry could not be determined.
 Eigenvector   1:      Singlet-?Sym  Eigenvalue= 0.2473708  <S**2>=0.000
      20 -> 21         0.11687
      20 -> 22        -0.10747
      20 -> 28         0.36752
      20 -> 30        -0.19090
      20 -> 34        -0.15883
      20 -> 35        -0.10947
      20 -> 36        -0.14164
      20 -> 39        -0.25739
      20 -> 41        -0.21269
      20 -> 42         0.12278
      20 -> 46        -0.10242
 The wavefunction is stable under the perturbations considered.
 The wavefunction is already stable.

 **********************************************************************

            Population analysis using the SCF Density.

 **********************************************************************

 Alpha  occ. eigenvalues --  -20.66077 -20.64084 -20.58578 -20.58273  -7.68841
 Alpha  occ. eigenvalues --   -1.49735  -1.39593  -1.36340  -1.23447  -0.78136
 Alpha  occ. eigenvalues --   -0.75555  -0.74607  -0.69101  -0.63828  -0.59383
 Alpha  occ. eigenvalues --   -0.57858  -0.57228  -0.53494  -0.51343  -0.48176
 Alpha virt. eigenvalues --    0.03305   0.04687   0.05739   0.06001   0.07382
 Alpha virt. eigenvalues --    0.09479   0.09995   0.15087   0.18029   0.18786
 Alpha virt. eigenvalues --    0.20032   0.20311   0.21562   0.22443   0.23634
 Alpha virt. eigenvalues --    0.24130   0.24803   0.25181   0.26335   0.27010
 Alpha virt. eigenvalues --    0.28191   0.29156   0.32173   0.32909   0.34735
 Alpha virt. eigenvalues --    0.35404   0.39616   0.41556   0.44258   0.45763
 Alpha virt. eigenvalues --    0.48858   0.50615   0.51829   0.54594   0.55476
 Alpha virt. eigenvalues --    0.55989   0.57853   0.60002   0.60634   0.61494
 Alpha virt. eigenvalues --    0.63053   0.64159   0.65576   0.68039   0.71566
 Alpha virt. eigenvalues --    0.73774   0.74797   0.80641   0.88433   0.90364
 Alpha virt. eigenvalues --    0.96907   0.99136   1.00326   1.01961   1.08476
 Alpha virt. eigenvalues --    1.11320   1.13372   1.16890   1.17638   1.21393
 Alpha virt. eigenvalues --    1.23233   1.27388   1.29008   1.31802   1.34122
 Alpha virt. eigenvalues --    1.39045   1.43121   1.44804   1.45825   1.50375
 Alpha virt. eigenvalues --    1.51030   1.54187   1.57762   1.63125   1.64985
 Alpha virt. eigenvalues --    1.69692   1.74195   1.76926   1.78948   1.86182
 Alpha virt. eigenvalues --    1.87251   1.88874   1.96907   2.08405   2.16154
 Alpha virt. eigenvalues --    2.16514   2.19207   2.25707   2.33751   2.38174
 Alpha virt. eigenvalues --    2.41381   2.51861   2.53716   2.58288   2.64454
 Alpha virt. eigenvalues --    2.69271   2.76082   2.84148   3.00874   3.05893
 Alpha virt. eigenvalues --    3.45562   3.55065   3.60161   3.62366   3.63689
 Alpha virt. eigenvalues --    3.65521   3.66143   3.68518   3.70396   3.71378
 Alpha virt. eigenvalues --    3.74194   3.76584   3.82258   3.83546   3.89164
 Alpha virt. eigenvalues --    3.91892   3.96395   4.15438   4.22157   4.27038
 Alpha virt. eigenvalues --    4.30009   4.41828
          Condensed to atoms (all electrons):
 Mulliken charges:
               1
     1  O   -0.387369
     2  B    1.059517
     3  O   -0.490444
     4  O   -0.552256
     5  O   -0.375174
     6  H    0.283675
     7  H    0.283416
     8  H    0.178635
 Sum of Mulliken charges =  -0.00000
 Mulliken charges with hydrogens summed into heavy atoms:
               1
     1  O   -0.387369
     2  B    1.059517
     3  O   -0.207028
     4  O   -0.373621
     5  O   -0.091499
 Electronic spatial extent (au):  <R**2>=            394.0027
 Charge=             -0.0000 electrons
 Dipole moment (field-independent basis, Debye):
    X=              1.1635    Y=              1.0741    Z=              1.1376  Tot=              1.9497
 Unable to Open any file for archive entry.
 1\1\GINC-SE250\Stability\RHF\Aug-CC-pVDZ\B1H3O4\OHZDE\09-Apr-2025\0\\#
 t hf aug-cc-pvdz symm=none int=(grid=ultrafine) guess=(read,tcheck) st
 able=(opt,rrhf)\\title\\0,1\O,0,0.60741,-0.827335,-0.017044\B,0,-0.516
 088,0.001683,-0.000581\O,0,-0.439282,1.357811,0.014061\O,0,-1.699538,-
 0.665684,0.004637\O,0,1.804177,-0.003409,-0.074409\H,0,2.361289,-0.483
 586,0.552031\H,0,0.48211,1.643144,0.01529\H,0,-2.445098,-0.059044,0.01
 7631\\Version=ES64L-G16RevC.01\HF=-325.9911284\RMSD=8.829e-09\Dipole=0
 .4577431,0.4225736,0.4475646\Quadrupole=4.5958644,-3.5754332,-1.020431
 1,-1.069388,2.2455351,-0.550593\PG=Unknown\\@
 The archive entry for this job was punched.


 MICRO CREDO - NEVER TRUST A COMPUTER BIGGER
               BIGGER THAN YOU CAN LIFT.
 Job cpu time:       0 days  0 hours  0 minutes 35.8 seconds.
 Elapsed time:       0 days  0 hours  0 minutes  4.3 seconds.
 File lengths (MBytes):  RWF=    126 Int=      0 D2E=      0 Chk=      4 Scr=      1
 Normal termination of Gaussian 16 at Wed Apr  9 00:40:21 2025.
 Initial command:
 /arc/software/Gaussian/g16.c01/l1.exe "/tmp/slurm/4854660/Gau-1912148.inp" -scrdir="/tmp/slurm/4854660/"
 Entering Link 1 = /arc/software/Gaussian/g16.c01/l1.exe PID=   1912362.
  
 Copyright (c) 1988-2019, Gaussian, Inc.  All Rights Reserved.
  
 This is part of the Gaussian(R) 16 program.  It is based on
 the Gaussian(R) 09 system (copyright 2009, Gaussian, Inc.),
 the Gaussian(R) 03 system (copyright 2003, Gaussian, Inc.),
 the Gaussian(R) 98 system (copyright 1998, Gaussian, Inc.),
 the Gaussian(R) 94 system (copyright 1995, Gaussian, Inc.),
 the Gaussian 92(TM) system (copyright 1992, Gaussian, Inc.),
 the Gaussian 90(TM) system (copyright 1990, Gaussian, Inc.),
 the Gaussian 88(TM) system (copyright 1988, Gaussian, Inc.),
 the Gaussian 86(TM) system (copyright 1986, Carnegie Mellon
 University), and the Gaussian 82(TM) system (copyright 1983,
 Carnegie Mellon University). Gaussian is a federally registered
 trademark of Gaussian, Inc.
  
 This software contains proprietary and confidential information,
 including trade secrets, belonging to Gaussian, Inc.
  
 This software is provided under written license and may be
 used, copied, transmitted, or stored only in accord with that
 written license.
  
 The following legend is applicable only to US Government
 contracts under FAR:
  
                    RESTRICTED RIGHTS LEGEND
  
 Use, reproduction and disclosure by the US Government is
 subject to restrictions as set forth in subparagraphs (a)
 and (c) of the Commercial Computer Software - Restricted
 Rights clause in FAR 52.227-19.
  
 Gaussian, Inc.
 340 Quinnipiac St., Bldg. 40, Wallingford CT 06492
  
  
 ---------------------------------------------------------------
 Warning -- This program may not be used in any manner that
 competes with the business of Gaussian, Inc. or will provide
 assistance to any competitor of Gaussian, Inc.  The licensee
 of this program is prohibited from giving any competitor of
 Gaussian, Inc. access to this program.  By using this program,
 the user acknowledges that Gaussian, Inc. is engaged in the
 business of creating and licensing software in the field of
 computational chemistry and represents and warrants to the
 licensee that it is not a competitor of Gaussian, Inc. and that
 it will not use this program in any manner prohibited above.
 ---------------------------------------------------------------
  

 Cite this work as:
 Gaussian 16, Revision C.01,
 M. J. Frisch, G. W. Trucks, H. B. Schlegel, G. E. Scuseria, 
 M. A. Robb, J. R. Cheeseman, G. Scalmani, V. Barone, 
 G. A. Petersson, H. Nakatsuji, X. Li, M. Caricato, A. V. Marenich, 
 J. Bloino, B. G. Janesko, R. Gomperts, B. Mennucci, H. P. Hratchian, 
 J. V. Ortiz, A. F. Izmaylov, J. L. Sonnenberg, D. Williams-Young, 
 F. Ding, F. Lipparini, F. Egidi, J. Goings, B. Peng, A. Petrone, 
 T. Henderson, D. Ranasinghe, V. G. Zakrzewski, J. Gao, N. Rega, 
 G. Zheng, W. Liang, M. Hada, M. Ehara, K. Toyota, R. Fukuda, 
 J. Hasegawa, M. Ishida, T. Nakajima, Y. Honda, O. Kitao, H. Nakai, 
 T. Vreven, K. Throssell, J. A. Montgomery, Jr., J. E. Peralta, 
 F. Ogliaro, M. J. Bearpark, J. J. Heyd, E. N. Brothers, K. N. Kudin, 
 V. N. Staroverov, T. A. Keith, R. Kobayashi, J. Normand, 
 K. Raghavachari, A. P. Rendell, J. C. Burant, S. S. Iyengar, 
 J. Tomasi, M. Cossi, J. M. Millam, M. Klene, C. Adamo, R. Cammi, 
 J. W. Ochterski, R. L. Martin, K. Morokuma, O. Farkas, 
 J. B. Foresman, and D. J. Fox, Gaussian, Inc., Wallingford CT, 2019.
 
 ******************************************
 Gaussian 16:  ES64L-G16RevC.01  3-Jul-2019
                 9-Apr-2025 
 ******************************************
 %nprocs=16
 Will use up to   16 processors via shared memory.
 %mem=30GB
 %chk=BDE49_nonexpt_659_mol1.chk
 ----------------------------------------------------------------------
 #t hf aug-cc-pvdz iop(5/13=1,5/36=2,99/5=2) pseudo=read geom=check gue
 ss=(read,tcheck) scf=(maxcycle=1)
 ----------------------------------------------------------------------
 -----
 title
 -----
 Structure from the checkpoint file:  "BDE49_nonexpt_659_mol1.chk"
 Charge =  0 Multiplicity = 1
 Z-Matrix found in chk file.
 O,0,0.60741,-0.827335,-0.017044
 B,0,-0.516088,0.001683,-0.000581
 O,0,-0.439282,1.357811,0.014061
 O,0,-1.699538,-0.665684,0.004637
 O,0,1.804177,-0.003409,-0.074409
 H,0,2.361289,-0.483586,0.552031
 H,0,0.48211,1.643144,0.01529
 H,0,-2.445098,-0.059044,0.017631
 Recover connectivity data from disk.
                    Distance matrix (angstroms):
                    1          2          3          4          5
     1  O    0.000000
     2  B    1.396349   0.000000
     3  O    2.423096   1.358380   0.000000
     4  O    2.312706   1.358661   2.383876   0.000000
     5  O    1.454096   2.321445   2.625615   3.566634   0.000000
     6  H    1.875660   2.969876   3.394606   4.101599   0.966111
     7  H    2.473866   1.921209   0.964562   3.176537   2.113538
     8  H    3.147901   1.930052   2.455766   0.961270   4.250636
                    6          7          8
     6  H    0.000000
     7  H    2.888319   0.000000
     8  H    4.854604   3.386148   0.000000
 Framework group  C1[X(BH3O4)]
 Deg. of freedom    18
                         Standard orientation:                         
 ---------------------------------------------------------------------
 Center     Atomic      Atomic             Coordinates (Angstroms)
 Number     Number       Type             X           Y           Z
 ---------------------------------------------------------------------
      1          8           0        0.607410   -0.827335   -0.017044
      2          5           0       -0.516088    0.001683   -0.000581
      3          8           0       -0.439282    1.357811    0.014061
      4          8           0       -1.699538   -0.665684    0.004637
      5          8           0        1.804177   -0.003409   -0.074409
      6          1           0        2.361289   -0.483586    0.552031
      7          1           0        0.482110    1.643144    0.015290
      8          1           0       -2.445098   -0.059043    0.017631
 ---------------------------------------------------------------------
 Rotational constants (GHZ):           9.9372756           4.1271565           2.9290997
 ======================================================================================================
                                       Pseudopotential Parameters
 ======================================================================================================
  Center     Atomic      Valence      Angular      Power
  Number     Number     Electrons     Momentum     of R      Exponent        Coefficient   SO-Coeffient
 ======================================================================================================
    1          8            8
                                      G and up 
                                                     0        0.0000010        0.00049668    0.00000000
                                                     2        0.1200000       -0.01803391    0.00000000
                                                     2        0.1400000        0.04014195    0.00000000
                                                     2        0.2000000       -0.02692147    0.00000000
                                                     2        0.2800000       -0.04241843    0.00000000
                                                     2        0.4000000        0.15412145    0.00000000
                                                     2        0.7000000       -0.40587006    0.00000000
                                                     2        1.1000000        1.75666647    0.00000000
                                      S - G
                                                     0        0.0000010       -0.01088195    0.00000000
                                                     2        0.1200000        0.09867335    0.00000000
                                                     2        0.2400000       -0.08484177    0.00000000
                                                     2        0.6000000       -1.39011554    0.00000000
                                                     2        2.5000000        1.36225910    0.00000000
                                      P - G
                                                     0        0.0000010        0.05874028    0.00000000
                                                     2        0.1200000       -0.11700340    0.00000000
                                                     2        0.1600000        0.08847775    0.00000000
                                                     2        0.3000000        0.04709907    0.00000000
                                                     2        1.2000000       -1.80388338    0.00000000
                                      D - G
                                                     0        0.0000010       -0.00541262    0.00000000
                                                     2        0.1200000       -0.26547906    0.00000000
                                                     2        0.1600000        1.04289661    0.00000000
                                                     2        0.2400000       -1.92800913    0.00000000
                                                     2        0.4000000        2.26691633    0.00000000
                                                     2        0.7000000       -1.97391482    0.00000000
                                      F - G
                                                     0        0.0000010       -0.02604870    0.00000000
                                                     2        0.1200000        0.37362552    0.00000000
                                                     2        0.1600000       -1.43526367    0.00000000
                                                     2        0.2200000        1.76778079    0.00000000
                                                     2        0.5000000       -1.90846303    0.00000000
    2          5            5
                                      G and up 
                                                     0        0.0000010        0.00020763    0.00000000
                                                     2        0.1200000        0.03067755    0.00000000
                                                     2        0.1400000       -0.06903562    0.00000000
                                                     2        0.2200000        0.20686977    0.00000000
                                                     2        0.2800000       -0.28012699    0.00000000
                                                     2        0.4000000        0.15289287    0.00000000
                                                     2        0.9000000        0.23777548    0.00000000
                                      S - G
                                                     0        0.0000010       -0.01460145    0.00000000
                                                     2        0.1200000        0.61520407    0.00000000
                                                     2        0.1600000       -1.40324983    0.00000000
                                                     2        0.2600000        1.13743336    0.00000000
                                                     2        0.7000000       -0.82121849    0.00000000
                                                     2        3.0000000        1.14340087    0.00000000
                                      P - G
                                                     0        0.0000010       -0.15206468    0.00000000
                                                     2        0.1200000        0.05342385    0.00000000
                                                     2        0.1800000       -0.02150831    0.00000000
                                                     2        0.4000000       -0.11023892    0.00000000
                                                     2        1.0000000        0.38415171    0.00000000
                                      D - G
                                                     0        0.0000010        0.03877889    0.00000000
                                                     2        0.1200000        0.15497678    0.00000000
                                                     2        0.2000000       -0.61843740    0.00000000
                                                     2        0.4000000        1.25619759    0.00000000
                                                     2        0.8000000       -1.68748014    0.00000000
                                      F - G
                                                     0        0.0000010        0.04196027    0.00000000
                                                     2        0.1200000       -0.20480821    0.00000000
                                                     2        0.1600000        0.27131339    0.00000000
                                                     2        0.2400000        0.24945984    0.00000000
                                                     2        0.5000000       -1.37105438    0.00000000
    3          8            8
                                      G and up 
                                                     0        0.0000010        0.00049668    0.00000000
                                                     2        0.1200000       -0.01803391    0.00000000
                                                     2        0.1400000        0.04014195    0.00000000
                                                     2        0.2000000       -0.02692147    0.00000000
                                                     2        0.2800000       -0.04241843    0.00000000
                                                     2        0.4000000        0.15412145    0.00000000
                                                     2        0.7000000       -0.40587006    0.00000000
                                                     2        1.1000000        1.75666647    0.00000000
                                      S - G
                                                     0        0.0000010       -0.01088195    0.00000000
                                                     2        0.1200000        0.09867335    0.00000000
                                                     2        0.2400000       -0.08484177    0.00000000
                                                     2        0.6000000       -1.39011554    0.00000000
                                                     2        2.5000000        1.36225910    0.00000000
                                      P - G
                                                     0        0.0000010        0.05874028    0.00000000
                                                     2        0.1200000       -0.11700340    0.00000000
                                                     2        0.1600000        0.08847775    0.00000000
                                                     2        0.3000000        0.04709907    0.00000000
                                                     2        1.2000000       -1.80388338    0.00000000
                                      D - G
                                                     0        0.0000010       -0.00541262    0.00000000
                                                     2        0.1200000       -0.26547906    0.00000000
                                                     2        0.1600000        1.04289661    0.00000000
                                                     2        0.2400000       -1.92800913    0.00000000
                                                     2        0.4000000        2.26691633    0.00000000
                                                     2        0.7000000       -1.97391482    0.00000000
                                      F - G
                                                     0        0.0000010       -0.02604870    0.00000000
                                                     2        0.1200000        0.37362552    0.00000000
                                                     2        0.1600000       -1.43526367    0.00000000
                                                     2        0.2200000        1.76778079    0.00000000
                                                     2        0.5000000       -1.90846303    0.00000000
    4          8            8
                                      G and up 
                                                     0        0.0000010        0.00049668    0.00000000
                                                     2        0.1200000       -0.01803391    0.00000000
                                                     2        0.1400000        0.04014195    0.00000000
                                                     2        0.2000000       -0.02692147    0.00000000
                                                     2        0.2800000       -0.04241843    0.00000000
                                                     2        0.4000000        0.15412145    0.00000000
                                                     2        0.7000000       -0.40587006    0.00000000
                                                     2        1.1000000        1.75666647    0.00000000
                                      S - G
                                                     0        0.0000010       -0.01088195    0.00000000
                                                     2        0.1200000        0.09867335    0.00000000
                                                     2        0.2400000       -0.08484177    0.00000000
                                                     2        0.6000000       -1.39011554    0.00000000
                                                     2        2.5000000        1.36225910    0.00000000
                                      P - G
                                                     0        0.0000010        0.05874028    0.00000000
                                                     2        0.1200000       -0.11700340    0.00000000
                                                     2        0.1600000        0.08847775    0.00000000
                                                     2        0.3000000        0.04709907    0.00000000
                                                     2        1.2000000       -1.80388338    0.00000000
                                      D - G
                                                     0        0.0000010       -0.00541262    0.00000000
                                                     2        0.1200000       -0.26547906    0.00000000
                                                     2        0.1600000        1.04289661    0.00000000
                                                     2        0.2400000       -1.92800913    0.00000000
                                                     2        0.4000000        2.26691633    0.00000000
                                                     2        0.7000000       -1.97391482    0.00000000
                                      F - G
                                                     0        0.0000010       -0.02604870    0.00000000
                                                     2        0.1200000        0.37362552    0.00000000
                                                     2        0.1600000       -1.43526367    0.00000000
                                                     2        0.2200000        1.76778079    0.00000000
                                                     2        0.5000000       -1.90846303    0.00000000
    5          8            8
                                      G and up 
                                                     0        0.0000010        0.00049668    0.00000000
                                                     2        0.1200000       -0.01803391    0.00000000
                                                     2        0.1400000        0.04014195    0.00000000
                                                     2        0.2000000       -0.02692147    0.00000000
                                                     2        0.2800000       -0.04241843    0.00000000
                                                     2        0.4000000        0.15412145    0.00000000
                                                     2        0.7000000       -0.40587006    0.00000000
                                                     2        1.1000000        1.75666647    0.00000000
                                      S - G
                                                     0        0.0000010       -0.01088195    0.00000000
                                                     2        0.1200000        0.09867335    0.00000000
                                                     2        0.2400000       -0.08484177    0.00000000
                                                     2        0.6000000       -1.39011554    0.00000000
                                                     2        2.5000000        1.36225910    0.00000000
                                      P - G
                                                     0        0.0000010        0.05874028    0.00000000
                                                     2        0.1200000       -0.11700340    0.00000000
                                                     2        0.1600000        0.08847775    0.00000000
                                                     2        0.3000000        0.04709907    0.00000000
                                                     2        1.2000000       -1.80388338    0.00000000
                                      D - G
                                                     0        0.0000010       -0.00541262    0.00000000
                                                     2        0.1200000       -0.26547906    0.00000000
                                                     2        0.1600000        1.04289661    0.00000000
                                                     2        0.2400000       -1.92800913    0.00000000
                                                     2        0.4000000        2.26691633    0.00000000
                                                     2        0.7000000       -1.97391482    0.00000000
                                      F - G
                                                     0        0.0000010       -0.02604870    0.00000000
                                                     2        0.1200000        0.37362552    0.00000000
                                                     2        0.1600000       -1.43526367    0.00000000
                                                     2        0.2200000        1.76778079    0.00000000
                                                     2        0.5000000       -1.90846303    0.00000000
    6          1            1
                                      F and up 
                                                     0        0.0000010       -0.00007675    0.00000000
                                                     2        0.1200000        0.05352699    0.00000000
                                                     2        0.1400000       -0.25123645    0.00000000
                                                     2        0.1600000        0.32188106    0.00000000
                                                     2        0.2200000       -0.25206857    0.00000000
                                                     2        0.3000000        0.19290477    0.00000000
                                                     2        0.5000000       -0.10129770    0.00000000
                                                     2        0.9000000        0.00314995    0.00000000
                                                     2        1.5000000        0.18401192    0.00000000
                                      S - F
                                                     0        0.0000010        0.08065976    0.00000000
                                                     2        0.1200000       -0.09231673    0.00000000
                                                     2        0.1600000       -0.03278082    0.00000000
                                                     2        0.2800000        0.38423402    0.00000000
                                                     2        0.6000000       -1.09357590    0.00000000
                                                     2        1.1000000        1.53099489    0.00000000
                                                     2        3.0000000       -2.63300202    0.00000000
                                      P - F
                                                     0        0.0000010       -0.11638665    0.00000000
                                                     2        0.1200000        0.35468655    0.00000000
                                                     2        0.1600000       -0.59160923    0.00000000
                                                     2        0.3000000        0.49390547    0.00000000
                                                     2        0.6000000       -0.37949835    0.00000000
                                                     2        1.6000000        0.89304688    0.00000000
                                      D - F
                                                     0        0.0000010        0.05443663    0.00000000
                                                     2        0.1200000       -0.29679479    0.00000000
                                                     2        0.1400000        0.36849872    0.00000000
                                                     2        0.2400000        0.02793449    0.00000000
                                                     2        0.4000000       -0.46312857    0.00000000
                                                     2        0.7000000        0.97587598    0.00000000
                                                     2        1.5000000       -2.43431102    0.00000000
    7          1            1
                                      F and up 
                                                     0        0.0000010       -0.00007675    0.00000000
                                                     2        0.1200000        0.05352699    0.00000000
                                                     2        0.1400000       -0.25123645    0.00000000
                                                     2        0.1600000        0.32188106    0.00000000
                                                     2        0.2200000       -0.25206857    0.00000000
                                                     2        0.3000000        0.19290477    0.00000000
                                                     2        0.5000000       -0.10129770    0.00000000
                                                     2        0.9000000        0.00314995    0.00000000
                                                     2        1.5000000        0.18401192    0.00000000
                                      S - F
                                                     0        0.0000010        0.08065976    0.00000000
                                                     2        0.1200000       -0.09231673    0.00000000
                                                     2        0.1600000       -0.03278082    0.00000000
                                                     2        0.2800000        0.38423402    0.00000000
                                                     2        0.6000000       -1.09357590    0.00000000
                                                     2        1.1000000        1.53099489    0.00000000
                                                     2        3.0000000       -2.63300202    0.00000000
                                      P - F
                                                     0        0.0000010       -0.11638665    0.00000000
                                                     2        0.1200000        0.35468655    0.00000000
                                                     2        0.1600000       -0.59160923    0.00000000
                                                     2        0.3000000        0.49390547    0.00000000
                                                     2        0.6000000       -0.37949835    0.00000000
                                                     2        1.6000000        0.89304688    0.00000000
                                      D - F
                                                     0        0.0000010        0.05443663    0.00000000
                                                     2        0.1200000       -0.29679479    0.00000000
                                                     2        0.1400000        0.36849872    0.00000000
                                                     2        0.2400000        0.02793449    0.00000000
                                                     2        0.4000000       -0.46312857    0.00000000
                                                     2        0.7000000        0.97587598    0.00000000
                                                     2        1.5000000       -2.43431102    0.00000000
    8          1            1
                                      F and up 
                                                     0        0.0000010       -0.00007675    0.00000000
                                                     2        0.1200000        0.05352699    0.00000000
                                                     2        0.1400000       -0.25123645    0.00000000
                                                     2        0.1600000        0.32188106    0.00000000
                                                     2        0.2200000       -0.25206857    0.00000000
                                                     2        0.3000000        0.19290477    0.00000000
                                                     2        0.5000000       -0.10129770    0.00000000
                                                     2        0.9000000        0.00314995    0.00000000
                                                     2        1.5000000        0.18401192    0.00000000
                                      S - F
                                                     0        0.0000010        0.08065976    0.00000000
                                                     2        0.1200000       -0.09231673    0.00000000
                                                     2        0.1600000       -0.03278082    0.00000000
                                                     2        0.2800000        0.38423402    0.00000000
                                                     2        0.6000000       -1.09357590    0.00000000
                                                     2        1.1000000        1.53099489    0.00000000
                                                     2        3.0000000       -2.63300202    0.00000000
                                      P - F
                                                     0        0.0000010       -0.11638665    0.00000000
                                                     2        0.1200000        0.35468655    0.00000000
                                                     2        0.1600000       -0.59160923    0.00000000
                                                     2        0.3000000        0.49390547    0.00000000
                                                     2        0.6000000       -0.37949835    0.00000000
                                                     2        1.6000000        0.89304688    0.00000000
                                      D - F
                                                     0        0.0000010        0.05443663    0.00000000
                                                     2        0.1200000       -0.29679479    0.00000000
                                                     2        0.1400000        0.36849872    0.00000000
                                                     2        0.2400000        0.02793449    0.00000000
                                                     2        0.4000000       -0.46312857    0.00000000
                                                     2        0.7000000        0.97587598    0.00000000
                                                     2        1.5000000       -2.43431102    0.00000000
 ======================================================================================================
   142 basis functions,   248 primitive gaussians,   152 cartesian basis functions
    20 alpha electrons       20 beta electrons
       nuclear repulsion energy       174.8623271258 Hartrees.
 NAtoms=    8 NActive=    8 NUniq=    8 SFac= 1.00D+00 NAtFMM=   60 NAOKFM=F Big=F
   1 Symmetry operations used in ECPInt.
 ECPInt:  NShTT=    1830 NPrTT=    9550 LenC2=    1829 LenP2D=    7566.
 LDataN:  DoStor=T MaxTD1= 6 Len=  172
 Initial guess from the checkpoint file:  "BDE49_nonexpt_659_mol1.chk"
 B after Tr=     0.000000    0.000000   -0.000000
         Rot=    1.000000    0.000000    0.000000    0.000000 Ang=   0.00 deg.
 >>>>>>>>>> Convergence criterion not met.
 SCF Done:  E(RHF) =  -326.310046484     A.U. after    2 cycles
            NFock=  1  Conv=0.93D-02     -V/T= 2.0069

 **********************************************************************

            Population analysis using the SCF Density.

 **********************************************************************

 Orbital symmetries:
       Occupied  (A) (A) (A) (A) (A) (A) (A) (A) (A) (A) (A) (A)
                 (A) (A) (A) (A) (A) (A) (A) (A)
       Virtual   (A) (A) (A) (A) (A) (A) (A) (A) (A) (A) (A) (A)
                 (A) (A) (A) (A) (A) (A) (A) (A) (A) (A) (A) (A)
                 (A) (A) (A) (A) (A) (A) (A) (A) (A) (A) (A) (A)
                 (A) (A) (A) (A) (A) (A) (A) (A) (A) (A) (A) (A)
                 (A) (A) (A) (A) (A) (A) (A) (A) (A) (A) (A) (A)
                 (A) (A) (A) (A) (A) (A) (A) (A) (A) (A) (A) (A)
                 (A) (A) (A) (A) (A) (A) (A) (A) (A) (A) (A) (A)
                 (A) (A) (A) (A) (A) (A) (A) (A) (A) (A) (A) (A)
                 (A) (A) (A) (A) (A) (A) (A) (A) (A) (A) (A) (A)
                 (A) (A) (A) (A) (A) (A) (A) (A) (A) (A) (A) (A)
                 (A) (A)
 The electronic state is 1-A.
 Alpha  occ. eigenvalues --  -20.64084 -20.61862 -20.56484 -20.56192  -7.67849
 Alpha  occ. eigenvalues --   -1.60333  -1.48704  -1.45348  -1.30061  -0.78182
 Alpha  occ. eigenvalues --   -0.75321  -0.74361  -0.68600  -0.63088  -0.58774
 Alpha  occ. eigenvalues --   -0.57076  -0.56421  -0.52500  -0.50362  -0.47002
 Alpha virt. eigenvalues --    0.03525   0.04677   0.05554   0.05812   0.07419
 Alpha virt. eigenvalues --    0.09733   0.10031   0.15146   0.18086   0.18863
 Alpha virt. eigenvalues --    0.20193   0.20471   0.21423   0.22570   0.23571
 Alpha virt. eigenvalues --    0.23992   0.24665   0.25133   0.26526   0.26939
 Alpha virt. eigenvalues --    0.28539   0.29260   0.32261   0.32947   0.34770
 Alpha virt. eigenvalues --    0.35455   0.39489   0.41557   0.44083   0.45634
 Alpha virt. eigenvalues --    0.48713   0.50348   0.51617   0.54299   0.55118
 Alpha virt. eigenvalues --    0.55795   0.57671   0.59824   0.60109   0.61117
 Alpha virt. eigenvalues --    0.62808   0.64088   0.65416   0.67863   0.71419
 Alpha virt. eigenvalues --    0.73612   0.74756   0.80895   0.88754   0.90386
 Alpha virt. eigenvalues --    0.97421   0.99597   1.01098   1.02789   1.08751
 Alpha virt. eigenvalues --    1.11949   1.13801   1.17585   1.18419   1.21994
 Alpha virt. eigenvalues --    1.24099   1.27854   1.29602   1.32668   1.34949
 Alpha virt. eigenvalues --    1.40036   1.44363   1.45875   1.46704   1.50712
 Alpha virt. eigenvalues --    1.53003   1.55735   1.59245   1.65005   1.66658
 Alpha virt. eigenvalues --    1.71388   1.74776   1.77776   1.80088   1.86762
 Alpha virt. eigenvalues --    1.87954   1.89933   1.99591   2.08367   2.17941
 Alpha virt. eigenvalues --    2.18328   2.20547   2.26501   2.35355   2.42231
 Alpha virt. eigenvalues --    2.44340   2.54455   2.55932   2.60260   2.67577
 Alpha virt. eigenvalues --    2.72467   2.79051   2.92648   3.08953   3.14616
 Alpha virt. eigenvalues --    3.53807   3.63590   3.65217   3.72166   3.73845
 Alpha virt. eigenvalues --    3.75820   3.76390   3.78331   3.80337   3.81214
 Alpha virt. eigenvalues --    3.83886   3.86022   3.91897   3.93124   3.97902
 Alpha virt. eigenvalues --    4.00334   4.05853   4.18467   4.27308   4.37295
 Alpha virt. eigenvalues --    4.40844   4.50629
          Condensed to atoms (all electrons):
 Mulliken charges:
               1
     1  O   -0.638240
     2  B    1.883846
     3  O   -1.029778
     4  O   -1.070921
     5  O   -0.630628
     6  H    0.509056
     7  H    0.577809
     8  H    0.398856
 Sum of Mulliken charges =  -0.00000
 Mulliken charges with hydrogens summed into heavy atoms:
               1
     1  O   -0.638240
     2  B    1.883846
     3  O   -0.451969
     4  O   -0.672065
     5  O   -0.121572
 Electronic spatial extent (au):  <R**2>=            395.3875
 Charge=              0.0000 electrons
 Dipole moment (field-independent basis, Debye):
    X=              1.1432    Y=              1.0525    Z=              1.1097  Tot=              1.9095

 Test job not archived.
 1\1\GINC-SE250\SP\RHF\Aug-CC-pVDZ\B1H3O4\OHZDE\09-Apr-2025\0\\#t hf au
 g-cc-pvdz iop(5/13=1,5/36=2,99/5=2) pseudo=read geom=check guess=(read
 ,tcheck) scf=(maxcycle=1)\\title\\0,1\O,0,0.60741,-0.827335,-0.017044\
 B,0,-0.516088,0.001683,-0.000581\O,0,-0.439282,1.357811,0.014061\O,0,-
 1.699538,-0.665684,0.004637\O,0,1.804177,-0.003409,-0.074409\H,0,2.361
 289,-0.483586,0.552031\H,0,0.48211,1.643144,0.01529\H,0,-2.445098,-0.0
 59044,0.017631\\Version=ES64L-G16RevC.01\State=1-A\HF=-326.3100465\RMS
 D=9.278e-03\Dipole=0.4497639,0.414086,0.4365991\Quadrupole=4.6190107,-
 3.4622197,-1.156791,-1.0264761,2.2100121,-0.557339\PG=C01 [X(B1H3O4)]\
 \@


 NEVER TEACH A PIG TO SING.
 IT WASTES YOUR TIME AND ANNOYS THE PIG.
     -- SEEN ON A GREETING CARD
 Job cpu time:       0 days  0 hours  0 minutes 17.5 seconds.
 Elapsed time:       0 days  0 hours  0 minutes  1.9 seconds.
 File lengths (MBytes):  RWF=      6 Int=      0 D2E=      0 Chk=      4 Scr=      1
 Normal termination of Gaussian 16 at Wed Apr  9 00:40:23 2025.
