 Entering Gaussian System, Link 0=g16
 Input=BDE49_nonexpt_1407_mol1.gjf
 Output=BDE49_nonexpt_1407_mol1.log
 Initial command:
 /arc/software/Gaussian/g16.c01/l1.exe "/tmp/slurm/4845086/Gau-3480313.inp" -scrdir="/tmp/slurm/4845086/"
 Entering Link 1 = /arc/software/Gaussian/g16.c01/l1.exe PID=   3480314.
  
 Copyright (c) 1988-2019, Gaussian, Inc.  All Rights Reserved.
  
 This is part of the Gaussian(R) 16 program.  It is based on
 the Gaussian(R) 09 system (copyright 2009, Gaussian, Inc.),
 the Gaussian(R) 03 system (copyright 2003, Gaussian, Inc.),
 the Gaussian(R) 98 system (copyright 1998, Gaussian, Inc.),
 the Gaussian(R) 94 system (copyright 1995, Gaussian, Inc.),
 the Gaussian 92(TM) system (copyright 1992, Gaussian, Inc.),
 the Gaussian 90(TM) system (copyright 1990, Gaussian, Inc.),
 the Gaussian 88(TM) system (copyright 1988, Gaussian, Inc.),
 the Gaussian 86(TM) system (copyright 1986, Carnegie Mellon
 University), and the Gaussian 82(TM) system (copyright 1983,
 Carnegie Mellon University). Gaussian is a federally registered
 trademark of Gaussian, Inc.
  
 This software contains proprietary and confidential information,
 including trade secrets, belonging to Gaussian, Inc.
  
 This software is provided under written license and may be
 used, copied, transmitted, or stored only in accord with that
 written license.
  
 The following legend is applicable only to US Government
 contracts under FAR:
  
                    RESTRICTED RIGHTS LEGEND
  
 Use, reproduction and disclosure by the US Government is
 subject to restrictions as set forth in subparagraphs (a)
 and (c) of the Commercial Computer Software - Restricted
 Rights clause in FAR 52.227-19.
  
 Gaussian, Inc.
 340 Quinnipiac St., Bldg. 40, Wallingford CT 06492
  
  
 ---------------------------------------------------------------
 Warning -- This program may not be used in any manner that
 competes with the business of Gaussian, Inc. or will provide
 assistance to any competitor of Gaussian, Inc.  The licensee
 of this program is prohibited from giving any competitor of
 Gaussian, Inc. access to this program.  By using this program,
 the user acknowledges that Gaussian, Inc. is engaged in the
 business of creating and licensing software in the field of
 computational chemistry and represents and warrants to the
 licensee that it is not a competitor of Gaussian, Inc. and that
 it will not use this program in any manner prohibited above.
 ---------------------------------------------------------------
  

 Cite this work as:
 Gaussian 16, Revision C.01,
 M. J. Frisch, G. W. Trucks, H. B. Schlegel, G. E. Scuseria, 
 M. A. Robb, J. R. Cheeseman, G. Scalmani, V. Barone, 
 G. A. Petersson, H. Nakatsuji, X. Li, M. Caricato, A. V. Marenich, 
 J. Bloino, B. G. Janesko, R. Gomperts, B. Mennucci, H. P. Hratchian, 
 J. V. Ortiz, A. F. Izmaylov, J. L. Sonnenberg, D. Williams-Young, 
 F. Ding, F. Lipparini, F. Egidi, J. Goings, B. Peng, A. Petrone, 
 T. Henderson, D. Ranasinghe, V. G. Zakrzewski, J. Gao, N. Rega, 
 G. Zheng, W. Liang, M. Hada, M. Ehara, K. Toyota, R. Fukuda, 
 J. Hasegawa, M. Ishida, T. Nakajima, Y. Honda, O. Kitao, H. Nakai, 
 T. Vreven, K. Throssell, J. A. Montgomery, Jr., J. E. Peralta, 
 F. Ogliaro, M. J. Bearpark, J. J. Heyd, E. N. Brothers, K. N. Kudin, 
 V. N. Staroverov, T. A. Keith, R. Kobayashi, J. Normand, 
 K. Raghavachari, A. P. Rendell, J. C. Burant, S. S. Iyengar, 
 J. Tomasi, M. Cossi, J. M. Millam, M. Klene, C. Adamo, R. Cammi, 
 J. W. Ochterski, R. L. Martin, K. Morokuma, O. Farkas, 
 J. B. Foresman, and D. J. Fox, Gaussian, Inc., Wallingford CT, 2019.
 
 ******************************************
 Gaussian 16:  ES64L-G16RevC.01  3-Jul-2019
                 8-Apr-2025 
 ******************************************
 %nprocs=16
 Will use up to   16 processors via shared memory.
 %mem=30GB
 %chk=BDE49_nonexpt_1407_mol1.chk
 ----------------------------------------------------------------------
 #t hf aug-cc-pvdz symm=none int=(grid=ultrafine) guess=(read,tcheck) s
 table=(opt,rrhf)
 ----------------------------------------------------------------------
 -----
 title
 -----
 Symbolic Z-matrix:
 Charge =  0 Multiplicity = 1
 P                    -1.08364  -1.34015  -0.27538 
 P                     1.08365  -1.34015   0.27538 
 C                    -1.60896   0.47174  -0.08332 
 C                    -0.62221   1.5645   -0.45949 
 C                     0.6222    1.5645    0.45949 
 C                     1.60896   0.47174   0.0833 
 H                    -1.14955   2.51766  -0.38607 
 H                    -0.31131   1.42595  -1.50158 
 O                     2.7301    0.70656  -0.29 
 O                    -2.73009   0.70655   0.29002 
 H                     0.31131   1.42593   1.50157 
 H                     1.14954   2.51766   0.38607 
 H                    -1.59012  -1.71126   0.98938 
 H                     1.59012  -1.71127  -0.98938 
 
                    Distance matrix (angstroms):
                    1          2          3          4          5
     1  P    0.000000
     2  P    2.236180   0.000000
     3  C    1.896259   3.265236   0.000000
     4  C    2.946828   3.447744   1.519642   0.000000
     5  C    3.447738   2.946823   2.543000   1.546958   0.000000
     6  C    3.265229   1.896257   3.222233   2.542997   1.519641
     7  H    3.859956   4.506365   2.118604   1.091785   2.182333
     8  H    3.122711   3.571382   2.146123   1.096259   2.176331
     9  O    4.328260   2.686902   4.350322   3.464496   2.396042
    10  O    2.686903   4.328255   1.204759   2.396042   3.464484
    11  H    3.571366   3.122695   2.666421   2.176331   1.096258
    12  H    4.506362   3.859951   3.466331   2.182335   1.091785
    13  H    1.412044   2.792227   2.432397   3.710350   3.988198
    14  H    2.792227   1.412043   3.977513   3.988209   3.710351
                    6          7          8          9         10
     6  C    0.000000
     7  H    3.466328   0.000000
     8  H    2.666419   1.771675   0.000000
     9  O    1.204759   4.282636   3.351958   0.000000
    10  O    4.350312   2.497059   3.094804   5.490908   0.000000
    11  H    2.146122   2.624715   3.067006   3.094793   3.351936
    12  H    2.118604   2.425288   2.624717   2.497058   4.282626
    13  H    3.977508   4.468749   4.205030   5.113404   2.763056
    14  H    2.432394   5.074799   3.704040   2.763070   5.113406
                   11         12         13         14
    11  H    0.000000
    12  H    1.771675   0.000000
    13  H    3.704017   5.074787   0.000000
    14  H    4.205020   4.468753   3.745582   0.000000
 Symmetry turned off by external request.
 Rotational constants (GHZ):           2.1672929           1.2326471           0.8362796
   246 basis functions,   486 primitive gaussians,   262 cartesian basis functions
    38 alpha electrons       38 beta electrons
       nuclear repulsion energy       510.4431413367 Hartrees.
 NAtoms=   14 NActive=   14 NUniq=   14 SFac= 1.00D+00 NAtFMM=   60 NAOKFM=F Big=F
 ExpMin= 2.97D-02 ExpMax= 9.48D+04 ExpMxC= 3.24D+03 IAcc=3 IRadAn=         5 AccDes= 0.00D+00
 Harris functional with IExCor=  205 and IRadAn=       5 diagonalized for initial guess.
 HarFok:  IExCor=  205 AccDes= 0.00D+00 IRadAn=         5 IDoV= 1 UseB2=F ITyADJ=14
 ICtDFT=  3500011 ScaDFX=  1.000000  1.000000  1.000000  1.000000
 FoFCou: FMM=F IPFlag=           0 FMFlag=      100000 FMFlg1=           0
         NFxFlg=           0 DoJE=T BraDBF=F KetDBF=T FulRan=T
         wScrn=  0.000000 ICntrl=       500 IOpCl=  0 I1Cent=   200000004 NGrid=           0
         NMat0=    1 NMatS0=      1 NMatT0=    0 NMatD0=    1 NMtDS0=    0 NMtDT0=    0
 Symmetry not used in FoFCou.
 SCF Done:  E(RHF) =  -986.196027312     A.U. after   15 cycles
            NFock= 15  Conv=0.34D-08     -V/T= 2.0006

 **********************************************************************

            Population analysis using the SCF Density.

 **********************************************************************

 Alpha  occ. eigenvalues --  -79.98448 -79.98448 -20.59059 -20.59059 -11.37132
 Alpha  occ. eigenvalues --  -11.37132 -11.28001 -11.27946  -7.52535  -7.52522
 Alpha  occ. eigenvalues --   -5.41905  -5.41878  -5.41875  -5.41866  -5.41755
 Alpha  occ. eigenvalues --   -5.41750  -1.42629  -1.42535  -1.11141  -0.96693
 Alpha  occ. eigenvalues --   -0.94743  -0.84670  -0.77224  -0.73344  -0.67844
 Alpha  occ. eigenvalues --   -0.66670  -0.65255  -0.62145  -0.60737  -0.57016
 Alpha  occ. eigenvalues --   -0.55303  -0.54890  -0.51912  -0.50072  -0.47743
 Alpha  occ. eigenvalues --   -0.41598  -0.38185  -0.36252
 Alpha virt. eigenvalues --    0.03105   0.04392   0.04432   0.04972   0.05682
 Alpha virt. eigenvalues --    0.06632   0.07289   0.07860   0.08230   0.09734
 Alpha virt. eigenvalues --    0.10734   0.10906   0.10950   0.11756   0.11906
 Alpha virt. eigenvalues --    0.13361   0.13988   0.14351   0.14896   0.15329
 Alpha virt. eigenvalues --    0.15635   0.15966   0.16969   0.17374   0.18165
 Alpha virt. eigenvalues --    0.18319   0.18620   0.18950   0.19090   0.19941
 Alpha virt. eigenvalues --    0.21387   0.22983   0.23515   0.23638   0.26063
 Alpha virt. eigenvalues --    0.27858   0.28807   0.29669   0.31262   0.31702
 Alpha virt. eigenvalues --    0.31862   0.31898   0.33231   0.34780   0.34914
 Alpha virt. eigenvalues --    0.36034   0.36224   0.37676   0.39170   0.40724
 Alpha virt. eigenvalues --    0.40794   0.41130   0.41718   0.42303   0.43653
 Alpha virt. eigenvalues --    0.44632   0.44634   0.46583   0.47265   0.48022
 Alpha virt. eigenvalues --    0.48761   0.49174   0.49931   0.50834   0.51376
 Alpha virt. eigenvalues --    0.52337   0.52347   0.53371   0.54155   0.54886
 Alpha virt. eigenvalues --    0.56718   0.57062   0.58501   0.58733   0.59123
 Alpha virt. eigenvalues --    0.59725   0.60609   0.61470   0.64550   0.65150
 Alpha virt. eigenvalues --    0.66032   0.66698   0.67559   0.69231   0.70764
 Alpha virt. eigenvalues --    0.72301   0.72359   0.73509   0.75601   0.78475
 Alpha virt. eigenvalues --    0.79815   0.80618   0.82095   0.82565   0.83899
 Alpha virt. eigenvalues --    0.84084   0.86001   0.86694   0.87130   0.88135
 Alpha virt. eigenvalues --    0.89858   0.91617   0.93342   0.94943   0.96459
 Alpha virt. eigenvalues --    0.96615   0.98094   0.99266   1.00099   1.00466
 Alpha virt. eigenvalues --    1.01897   1.04741   1.05049   1.06835   1.07298
 Alpha virt. eigenvalues --    1.08637   1.09121   1.10955   1.14770   1.15410
 Alpha virt. eigenvalues --    1.18258   1.20536   1.22806   1.24769   1.26782
 Alpha virt. eigenvalues --    1.28072   1.29086   1.29892   1.31735   1.31923
 Alpha virt. eigenvalues --    1.34433   1.34460   1.37802   1.39372   1.39522
 Alpha virt. eigenvalues --    1.41592   1.42675   1.45063   1.51483   1.51492
 Alpha virt. eigenvalues --    1.53561   1.55340   1.60206   1.61015   1.63268
 Alpha virt. eigenvalues --    1.66727   1.68312   1.72493   1.76321   1.76678
 Alpha virt. eigenvalues --    1.80134   1.84309   1.85234   1.87084   1.89238
 Alpha virt. eigenvalues --    1.89315   1.92368   1.97100   1.97830   1.99132
 Alpha virt. eigenvalues --    2.00167   2.01207   2.03412   2.04635   2.05375
 Alpha virt. eigenvalues --    2.09185   2.10592   2.14346   2.16452   2.17740
 Alpha virt. eigenvalues --    2.20527   2.21732   2.23265   2.27864   2.30700
 Alpha virt. eigenvalues --    2.32725   2.34432   2.37686   2.39866   2.41220
 Alpha virt. eigenvalues --    2.45560   2.47409   2.51063   2.53432   2.58297
 Alpha virt. eigenvalues --    2.63753   2.63990   2.75878   2.76176   2.86736
 Alpha virt. eigenvalues --    2.92275   2.95080   3.03584   3.10702   3.11608
 Alpha virt. eigenvalues --    3.29540   3.30661   3.53620   3.75086   3.77126
 Alpha virt. eigenvalues --    3.77815   3.79180   3.81142   3.82611   3.89876
 Alpha virt. eigenvalues --    3.92236   4.11028   4.14427
          Condensed to atoms (all electrons):
 Mulliken charges:
               1
     1  P   -0.087116
     2  P   -0.087116
     3  C    0.405223
     4  C    0.211814
     5  C    0.211830
     6  C    0.405211
     7  H   -0.111120
     8  H   -0.013613
     9  O   -0.764345
    10  O   -0.764348
    11  H   -0.013614
    12  H   -0.111123
    13  H    0.359159
    14  H    0.359158
 Sum of Mulliken charges =  -0.00000
 Mulliken charges with hydrogens summed into heavy atoms:
               1
     1  P    0.272043
     2  P    0.272042
     3  C    0.405223
     4  C    0.087081
     5  C    0.087094
     6  C    0.405211
     9  O   -0.764345
    10  O   -0.764348
 Electronic spatial extent (au):  <R**2>=           1321.5757
 Charge=             -0.0000 electrons
 Dipole moment (field-independent basis, Debye):
    X=             -0.0000    Y=              0.3838    Z=             -0.0000  Tot=              0.3838
 NROrb=    246 NOA=    38 NOB=    38 NVA=   208 NVB=   208

 **** Warning!!: The largest alpha MO coefficient is  0.32182730D+02

    12 initial guesses have been made.
 Iteration     1 Dimension    12 NMult     0 NNew     12
 New state      1 was old state      7
 Iteration     2 Dimension    24 NMult    12 NNew     12
 Iteration     3 Dimension    27 NMult    24 NNew      3
 New state      1 was old state      2
 Iteration     4 Dimension    30 NMult    27 NNew      3
 Iteration     5 Dimension    33 NMult    30 NNew      3
 Iteration     6 Dimension    36 NMult    33 NNew      3
 Iteration     7 Dimension    39 NMult    36 NNew      3
 Iteration     8 Dimension    42 NMult    39 NNew      3
 ***********************************************************************
 Stability analysis using <AA,BB:AA,BB> singles matrix:
 ***********************************************************************
 Ground to excited state transition densities written to RWF  633

 Eigenvectors of the stability matrix:
 
 Excited state symmetry could not be determined.
 Eigenvector   1:      Singlet-?Sym  Eigenvalue= 0.1644879  <S**2>=0.000
      36 -> 48        -0.11693
      36 -> 51        -0.25669
      36 -> 52         0.17955
      36 -> 55        -0.10159
      36 -> 57        -0.11746
      37 -> 42         0.17854
      37 -> 45         0.21094
      37 -> 47         0.31731
      37 -> 50         0.14582
      38 -> 43        -0.10703
 The wavefunction is stable under the perturbations considered.
 The wavefunction is already stable.

 **********************************************************************

            Population analysis using the SCF Density.

 **********************************************************************

 Alpha  occ. eigenvalues --  -79.98448 -79.98448 -20.59059 -20.59059 -11.37132
 Alpha  occ. eigenvalues --  -11.37132 -11.28001 -11.27946  -7.52535  -7.52522
 Alpha  occ. eigenvalues --   -5.41905  -5.41878  -5.41875  -5.41866  -5.41755
 Alpha  occ. eigenvalues --   -5.41750  -1.42629  -1.42535  -1.11141  -0.96693
 Alpha  occ. eigenvalues --   -0.94743  -0.84670  -0.77224  -0.73344  -0.67844
 Alpha  occ. eigenvalues --   -0.66670  -0.65255  -0.62145  -0.60737  -0.57016
 Alpha  occ. eigenvalues --   -0.55303  -0.54890  -0.51912  -0.50072  -0.47743
 Alpha  occ. eigenvalues --   -0.41598  -0.38185  -0.36252
 Alpha virt. eigenvalues --    0.03105   0.04392   0.04432   0.04972   0.05682
 Alpha virt. eigenvalues --    0.06632   0.07289   0.07860   0.08230   0.09734
 Alpha virt. eigenvalues --    0.10734   0.10906   0.10950   0.11756   0.11906
 Alpha virt. eigenvalues --    0.13361   0.13988   0.14351   0.14896   0.15329
 Alpha virt. eigenvalues --    0.15635   0.15966   0.16969   0.17374   0.18165
 Alpha virt. eigenvalues --    0.18319   0.18620   0.18950   0.19090   0.19941
 Alpha virt. eigenvalues --    0.21387   0.22983   0.23515   0.23638   0.26063
 Alpha virt. eigenvalues --    0.27858   0.28807   0.29669   0.31262   0.31702
 Alpha virt. eigenvalues --    0.31862   0.31898   0.33231   0.34780   0.34914
 Alpha virt. eigenvalues --    0.36034   0.36224   0.37676   0.39170   0.40724
 Alpha virt. eigenvalues --    0.40794   0.41130   0.41718   0.42303   0.43653
 Alpha virt. eigenvalues --    0.44632   0.44634   0.46583   0.47265   0.48022
 Alpha virt. eigenvalues --    0.48761   0.49174   0.49931   0.50834   0.51376
 Alpha virt. eigenvalues --    0.52337   0.52347   0.53371   0.54155   0.54886
 Alpha virt. eigenvalues --    0.56718   0.57062   0.58501   0.58733   0.59123
 Alpha virt. eigenvalues --    0.59725   0.60609   0.61470   0.64550   0.65150
 Alpha virt. eigenvalues --    0.66032   0.66698   0.67559   0.69231   0.70764
 Alpha virt. eigenvalues --    0.72301   0.72359   0.73509   0.75601   0.78475
 Alpha virt. eigenvalues --    0.79815   0.80618   0.82095   0.82565   0.83899
 Alpha virt. eigenvalues --    0.84084   0.86001   0.86694   0.87130   0.88135
 Alpha virt. eigenvalues --    0.89858   0.91617   0.93342   0.94943   0.96459
 Alpha virt. eigenvalues --    0.96615   0.98094   0.99266   1.00099   1.00466
 Alpha virt. eigenvalues --    1.01897   1.04741   1.05049   1.06835   1.07298
 Alpha virt. eigenvalues --    1.08637   1.09121   1.10955   1.14770   1.15410
 Alpha virt. eigenvalues --    1.18258   1.20536   1.22806   1.24769   1.26782
 Alpha virt. eigenvalues --    1.28072   1.29086   1.29892   1.31735   1.31923
 Alpha virt. eigenvalues --    1.34433   1.34460   1.37802   1.39372   1.39522
 Alpha virt. eigenvalues --    1.41592   1.42675   1.45063   1.51483   1.51492
 Alpha virt. eigenvalues --    1.53561   1.55340   1.60206   1.61015   1.63268
 Alpha virt. eigenvalues --    1.66727   1.68312   1.72493   1.76321   1.76678
 Alpha virt. eigenvalues --    1.80134   1.84309   1.85234   1.87084   1.89238
 Alpha virt. eigenvalues --    1.89315   1.92368   1.97100   1.97830   1.99132
 Alpha virt. eigenvalues --    2.00167   2.01207   2.03412   2.04635   2.05375
 Alpha virt. eigenvalues --    2.09185   2.10592   2.14346   2.16452   2.17740
 Alpha virt. eigenvalues --    2.20527   2.21732   2.23265   2.27864   2.30700
 Alpha virt. eigenvalues --    2.32725   2.34432   2.37686   2.39866   2.41220
 Alpha virt. eigenvalues --    2.45560   2.47409   2.51063   2.53432   2.58297
 Alpha virt. eigenvalues --    2.63753   2.63990   2.75878   2.76176   2.86736
 Alpha virt. eigenvalues --    2.92275   2.95080   3.03584   3.10702   3.11608
 Alpha virt. eigenvalues --    3.29540   3.30661   3.53620   3.75086   3.77126
 Alpha virt. eigenvalues --    3.77815   3.79180   3.81142   3.82611   3.89876
 Alpha virt. eigenvalues --    3.92236   4.11028   4.14427
          Condensed to atoms (all electrons):
 Mulliken charges:
               1
     1  P   -0.087116
     2  P   -0.087116
     3  C    0.405223
     4  C    0.211814
     5  C    0.211830
     6  C    0.405211
     7  H   -0.111120
     8  H   -0.013613
     9  O   -0.764345
    10  O   -0.764348
    11  H   -0.013614
    12  H   -0.111123
    13  H    0.359159
    14  H    0.359158
 Sum of Mulliken charges =  -0.00000
 Mulliken charges with hydrogens summed into heavy atoms:
               1
     1  P    0.272043
     2  P    0.272042
     3  C    0.405223
     4  C    0.087081
     5  C    0.087094
     6  C    0.405211
     9  O   -0.764345
    10  O   -0.764348
 Electronic spatial extent (au):  <R**2>=           1321.5757
 Charge=             -0.0000 electrons
 Dipole moment (field-independent basis, Debye):
    X=             -0.0000    Y=              0.3838    Z=             -0.0000  Tot=              0.3838
 Unable to Open any file for archive entry.
 1\1\GINC-SE120\Stability\RHF\Aug-CC-pVDZ\C4H6O2P2\OHZDE\08-Apr-2025\0\
 \#t hf aug-cc-pvdz symm=none int=(grid=ultrafine) guess=(read,tcheck) 
 stable=(opt,rrhf)\\title\\0,1\P,0,-1.083645,-1.340148,-0.275384\P,0,1.
 083647,-1.340146,0.275383\C,0,-1.608964,0.471743,-0.083322\C,0,-0.6222
 06,1.564499,-0.459494\C,0,0.622201,1.564495,0.459489\C,0,1.608958,0.47
 1744,0.083304\H,0,-1.149549,2.517658,-0.386065\H,0,-0.311314,1.425947,
 -1.501575\O,0,2.730097,0.706556,-0.289998\O,0,-2.730091,0.706553,0.290
 017\H,0,0.311309,1.425932,1.501568\H,0,1.149544,2.517655,0.386071\H,0,
 -1.590117,-1.711262,0.98938\H,0,1.590119,-1.711268,-0.989378\\Version=
 ES64L-G16RevC.01\HF=-986.1960273\RMSD=3.384e-09\Dipole=-0.0000027,0.15
 09988,-0.0000152\Quadrupole=-11.460819,6.4775297,4.9832893,-0.000062,1
 .3500401,-0.0000557\PG=Unknown\\@
 The archive entry for this job was punched.


 NO SCIENCE HAS EVER MADE MORE RAPID PROGRESS IN A
 SHORTER TIME THAN CHEMISTRY.
   -- MARTIN HEINRICH KLOPROTH, 1791
 (FIRST PROFESSOR OF CHEMISTRY AT THE UNIVERSITY OF BERLIN)
 Job cpu time:       0 days  0 hours 11 minutes 32.3 seconds.
 Elapsed time:       0 days  0 hours  0 minutes 49.2 seconds.
 File lengths (MBytes):  RWF=    337 Int=      0 D2E=      0 Chk=      9 Scr=      1
 Normal termination of Gaussian 16 at Tue Apr  8 23:32:45 2025.
 Initial command:
 /arc/software/Gaussian/g16.c01/l1.exe "/tmp/slurm/4845086/Gau-3480313.inp" -scrdir="/tmp/slurm/4845086/"
 Entering Link 1 = /arc/software/Gaussian/g16.c01/l1.exe PID=   3480557.
  
 Copyright (c) 1988-2019, Gaussian, Inc.  All Rights Reserved.
  
 This is part of the Gaussian(R) 16 program.  It is based on
 the Gaussian(R) 09 system (copyright 2009, Gaussian, Inc.),
 the Gaussian(R) 03 system (copyright 2003, Gaussian, Inc.),
 the Gaussian(R) 98 system (copyright 1998, Gaussian, Inc.),
 the Gaussian(R) 94 system (copyright 1995, Gaussian, Inc.),
 the Gaussian 92(TM) system (copyright 1992, Gaussian, Inc.),
 the Gaussian 90(TM) system (copyright 1990, Gaussian, Inc.),
 the Gaussian 88(TM) system (copyright 1988, Gaussian, Inc.),
 the Gaussian 86(TM) system (copyright 1986, Carnegie Mellon
 University), and the Gaussian 82(TM) system (copyright 1983,
 Carnegie Mellon University). Gaussian is a federally registered
 trademark of Gaussian, Inc.
  
 This software contains proprietary and confidential information,
 including trade secrets, belonging to Gaussian, Inc.
  
 This software is provided under written license and may be
 used, copied, transmitted, or stored only in accord with that
 written license.
  
 The following legend is applicable only to US Government
 contracts under FAR:
  
                    RESTRICTED RIGHTS LEGEND
  
 Use, reproduction and disclosure by the US Government is
 subject to restrictions as set forth in subparagraphs (a)
 and (c) of the Commercial Computer Software - Restricted
 Rights clause in FAR 52.227-19.
  
 Gaussian, Inc.
 340 Quinnipiac St., Bldg. 40, Wallingford CT 06492
  
  
 ---------------------------------------------------------------
 Warning -- This program may not be used in any manner that
 competes with the business of Gaussian, Inc. or will provide
 assistance to any competitor of Gaussian, Inc.  The licensee
 of this program is prohibited from giving any competitor of
 Gaussian, Inc. access to this program.  By using this program,
 the user acknowledges that Gaussian, Inc. is engaged in the
 business of creating and licensing software in the field of
 computational chemistry and represents and warrants to the
 licensee that it is not a competitor of Gaussian, Inc. and that
 it will not use this program in any manner prohibited above.
 ---------------------------------------------------------------
  

 Cite this work as:
 Gaussian 16, Revision C.01,
 M. J. Frisch, G. W. Trucks, H. B. Schlegel, G. E. Scuseria, 
 M. A. Robb, J. R. Cheeseman, G. Scalmani, V. Barone, 
 G. A. Petersson, H. Nakatsuji, X. Li, M. Caricato, A. V. Marenich, 
 J. Bloino, B. G. Janesko, R. Gomperts, B. Mennucci, H. P. Hratchian, 
 J. V. Ortiz, A. F. Izmaylov, J. L. Sonnenberg, D. Williams-Young, 
 F. Ding, F. Lipparini, F. Egidi, J. Goings, B. Peng, A. Petrone, 
 T. Henderson, D. Ranasinghe, V. G. Zakrzewski, J. Gao, N. Rega, 
 G. Zheng, W. Liang, M. Hada, M. Ehara, K. Toyota, R. Fukuda, 
 J. Hasegawa, M. Ishida, T. Nakajima, Y. Honda, O. Kitao, H. Nakai, 
 T. Vreven, K. Throssell, J. A. Montgomery, Jr., J. E. Peralta, 
 F. Ogliaro, M. J. Bearpark, J. J. Heyd, E. N. Brothers, K. N. Kudin, 
 V. N. Staroverov, T. A. Keith, R. Kobayashi, J. Normand, 
 K. Raghavachari, A. P. Rendell, J. C. Burant, S. S. Iyengar, 
 J. Tomasi, M. Cossi, J. M. Millam, M. Klene, C. Adamo, R. Cammi, 
 J. W. Ochterski, R. L. Martin, K. Morokuma, O. Farkas, 
 J. B. Foresman, and D. J. Fox, Gaussian, Inc., Wallingford CT, 2019.
 
 ******************************************
 Gaussian 16:  ES64L-G16RevC.01  3-Jul-2019
                 8-Apr-2025 
 ******************************************
 %nprocs=16
 Will use up to   16 processors via shared memory.
 %mem=30GB
 %chk=BDE49_nonexpt_1407_mol1.chk
 ----------------------------------------------------------------------
 #t hf aug-cc-pvdz iop(5/13=1,5/36=2,99/5=2) pseudo=read geom=check gue
 ss=(read,tcheck) scf=(maxcycle=1)
 ----------------------------------------------------------------------
 -----
 title
 -----
 Structure from the checkpoint file:  "BDE49_nonexpt_1407_mol1.chk"
 Charge =  0 Multiplicity = 1
 Z-Matrix found in chk file.
 P,0,-1.083645,-1.340148,-0.275384
 P,0,1.083647,-1.340146,0.275383
 C,0,-1.608964,0.471743,-0.083322
 C,0,-0.622206,1.564499,-0.459494
 C,0,0.622201,1.564495,0.459489
 C,0,1.608958,0.471744,0.083304
 H,0,-1.149549,2.517658,-0.386065
 H,0,-0.311314,1.425947,-1.501575
 O,0,2.730097,0.706556,-0.289998
 O,0,-2.730091,0.706553,0.290017
 H,0,0.311309,1.425932,1.501568
 H,0,1.149544,2.517655,0.386071
 H,0,-1.590117,-1.711262,0.98938
 H,0,1.590119,-1.711268,-0.989378
 Recover connectivity data from disk.
                    Distance matrix (angstroms):
                    1          2          3          4          5
     1  P    0.000000
     2  P    2.236180   0.000000
     3  C    1.896259   3.265236   0.000000
     4  C    2.946828   3.447744   1.519642   0.000000
     5  C    3.447738   2.946823   2.543000   1.546958   0.000000
     6  C    3.265229   1.896257   3.222233   2.542997   1.519641
     7  H    3.859956   4.506365   2.118604   1.091785   2.182333
     8  H    3.122711   3.571382   2.146123   1.096259   2.176331
     9  O    4.328260   2.686902   4.350322   3.464496   2.396042
    10  O    2.686903   4.328255   1.204759   2.396042   3.464484
    11  H    3.571366   3.122695   2.666421   2.176331   1.096258
    12  H    4.506362   3.859951   3.466331   2.182335   1.091785
    13  H    1.412044   2.792227   2.432397   3.710350   3.988198
    14  H    2.792227   1.412043   3.977513   3.988209   3.710351
                    6          7          8          9         10
     6  C    0.000000
     7  H    3.466328   0.000000
     8  H    2.666419   1.771675   0.000000
     9  O    1.204759   4.282636   3.351958   0.000000
    10  O    4.350312   2.497059   3.094804   5.490908   0.000000
    11  H    2.146122   2.624715   3.067006   3.094793   3.351936
    12  H    2.118604   2.425288   2.624717   2.497058   4.282626
    13  H    3.977508   4.468749   4.205030   5.113404   2.763056
    14  H    2.432394   5.074799   3.704040   2.763070   5.113406
                   11         12         13         14
    11  H    0.000000
    12  H    1.771675   0.000000
    13  H    3.704017   5.074787   0.000000
    14  H    4.205020   4.468753   3.745582   0.000000
 Framework group  C1[X(C4H6O2P2)]
 Deg. of freedom    36
                         Standard orientation:                         
 ---------------------------------------------------------------------
 Center     Atomic      Atomic             Coordinates (Angstroms)
 Number     Number       Type             X           Y           Z
 ---------------------------------------------------------------------
      1         15           0        1.083645   -1.340148    0.275384
      2         15           0       -1.083647   -1.340146   -0.275383
      3          6           0        1.608964    0.471743    0.083322
      4          6           0        0.622206    1.564499    0.459494
      5          6           0       -0.622201    1.564495   -0.459489
      6          6           0       -1.608958    0.471744   -0.083304
      7          1           0        1.149550    2.517658    0.386065
      8          1           0        0.311314    1.425947    1.501575
      9          8           0       -2.730097    0.706556    0.289998
     10          8           0        2.730091    0.706552   -0.290017
     11          1           0       -0.311309    1.425932   -1.501568
     12          1           0       -1.149543    2.517655   -0.386071
     13          1           0        1.590117   -1.711262   -0.989380
     14          1           0       -1.590119   -1.711268    0.989378
 ---------------------------------------------------------------------
 Rotational constants (GHZ):           2.1672929           1.2326471           0.8362796
 ======================================================================================================
                                       Pseudopotential Parameters
 ======================================================================================================
  Center     Atomic      Valence      Angular      Power
  Number     Number     Electrons     Momentum     of R      Exponent        Coefficient   SO-Coeffient
 ======================================================================================================
    1         15           15
                                      G and up 
                                                     0        0.0000010       -0.00016516    0.00000000
                                                     2        0.1200000       -0.08406156    0.00000000
                                                     2        0.1400000        0.35563553    0.00000000
                                                     2        0.1600000       -0.37362088    0.00000000
                                                     2        0.2400000        0.19669494    0.00000000
                                                     2        0.4000000       -0.20020603    0.00000000
                                      S - G
                                                     0        0.0000010       -0.01385993    0.00000000
                                                     2        0.1200000        0.05630526    0.00000000
                                                     2        0.2000000       -0.09537588    0.00000000
                                                     2        0.4000000       -0.53985714    0.00000000
                                                     2        1.1000000        2.43552452    0.00000000
                                      P - G
                                                     0        0.0000010        0.17843185    0.00000000
                                                     2        0.1200000       -0.31077649    0.00000000
                                                     2        0.2200000        0.64937126    0.00000000
                                                     2        0.5000000       -0.99645722    0.00000000
                                      D - G
                                                     0        0.0000010       -0.08963584    0.00000000
                                                     2        0.1200000        0.16512367    0.00000000
                                                     2        0.1800000       -0.31793327    0.00000000
                                                     2        0.4000000        0.42496203    0.00000000
                                      F - G
                                                     0        0.0000010        0.02339588    0.00000000
                                                     2        0.1200000       -0.03495660    0.00000000
                                                     2        0.2400000        0.12863886    0.00000000
    2         15           15
                                      G and up 
                                                     0        0.0000010       -0.00016516    0.00000000
                                                     2        0.1200000       -0.08406156    0.00000000
                                                     2        0.1400000        0.35563553    0.00000000
                                                     2        0.1600000       -0.37362088    0.00000000
                                                     2        0.2400000        0.19669494    0.00000000
                                                     2        0.4000000       -0.20020603    0.00000000
                                      S - G
                                                     0        0.0000010       -0.01385993    0.00000000
                                                     2        0.1200000        0.05630526    0.00000000
                                                     2        0.2000000       -0.09537588    0.00000000
                                                     2        0.4000000       -0.53985714    0.00000000
                                                     2        1.1000000        2.43552452    0.00000000
                                      P - G
                                                     0        0.0000010        0.17843185    0.00000000
                                                     2        0.1200000       -0.31077649    0.00000000
                                                     2        0.2200000        0.64937126    0.00000000
                                                     2        0.5000000       -0.99645722    0.00000000
                                      D - G
                                                     0        0.0000010       -0.08963584    0.00000000
                                                     2        0.1200000        0.16512367    0.00000000
                                                     2        0.1800000       -0.31793327    0.00000000
                                                     2        0.4000000        0.42496203    0.00000000
                                      F - G
                                                     0        0.0000010        0.02339588    0.00000000
                                                     2        0.1200000       -0.03495660    0.00000000
                                                     2        0.2400000        0.12863886    0.00000000
    3          6            6
                                      G and up 
                                                     0        0.0000010       -0.00007288    0.00000000
                                                     2        0.1200000        0.10466671    0.00000000
                                                     2        0.1400000       -0.65716157    0.00000000
                                                     2        0.1600000        1.18890794    0.00000000
                                                     2        0.2000000       -1.25772850    0.00000000
                                                     2        0.2600000        1.01188378    0.00000000
                                                     2        0.4000000       -1.09380874    0.00000000
                                                     2        0.5000000        0.96944888    0.00000000
                                                     2        1.0000000       -0.79256938    0.00000000
                                                     2        3.0000000        1.06443276    0.00000000
                                      S - G
                                                     0        0.0000010       -0.00635295    0.00000000
                                                     2        0.1200000        0.16918955    0.00000000
                                                     2        0.1600000       -0.38862576    0.00000000
                                                     2        0.2800000        0.25638263    0.00000000
                                                     2        0.5000000        0.29628419    0.00000000
                                                     2        0.9000000       -0.28791512    0.00000000
                                      P - G
                                                     0        0.0000010       -0.04756931    0.00000000
                                                     2        0.1200000        0.28430375    0.00000000
                                                     2        0.1600000       -0.69640032    0.00000000
                                                     2        0.2600000        1.13005668    0.00000000
                                                     2        0.4000000       -1.31433324    0.00000000
                                                     2        0.7000000        0.91526469    0.00000000
                                      D - G
                                                     0        0.0000010       -0.11496411    0.00000000
                                                     2        0.1200000        0.16620776    0.00000000
                                                     2        0.1800000       -0.30959819    0.00000000
                                                     2        0.3000000        0.16621458    0.00000000
                                                     2        0.6000000        0.27350556    0.00000000
                                      F - G
                                                     0        0.0000010        0.12037550    0.00000000
                                                     2        0.1200000       -0.48737077    0.00000000
                                                     2        0.1400000        0.58315350    0.00000000
                                                     2        0.3000000        0.00005188    0.00000000
                                                     2        0.5000000       -1.16063549    0.00000000
                                                     2        0.8000000        2.09053308    0.00000000
    4          6            6
                                      G and up 
                                                     0        0.0000010       -0.00007288    0.00000000
                                                     2        0.1200000        0.10466671    0.00000000
                                                     2        0.1400000       -0.65716157    0.00000000
                                                     2        0.1600000        1.18890794    0.00000000
                                                     2        0.2000000       -1.25772850    0.00000000
                                                     2        0.2600000        1.01188378    0.00000000
                                                     2        0.4000000       -1.09380874    0.00000000
                                                     2        0.5000000        0.96944888    0.00000000
                                                     2        1.0000000       -0.79256938    0.00000000
                                                     2        3.0000000        1.06443276    0.00000000
                                      S - G
                                                     0        0.0000010       -0.00635295    0.00000000
                                                     2        0.1200000        0.16918955    0.00000000
                                                     2        0.1600000       -0.38862576    0.00000000
                                                     2        0.2800000        0.25638263    0.00000000
                                                     2        0.5000000        0.29628419    0.00000000
                                                     2        0.9000000       -0.28791512    0.00000000
                                      P - G
                                                     0        0.0000010       -0.04756931    0.00000000
                                                     2        0.1200000        0.28430375    0.00000000
                                                     2        0.1600000       -0.69640032    0.00000000
                                                     2        0.2600000        1.13005668    0.00000000
                                                     2        0.4000000       -1.31433324    0.00000000
                                                     2        0.7000000        0.91526469    0.00000000
                                      D - G
                                                     0        0.0000010       -0.11496411    0.00000000
                                                     2        0.1200000        0.16620776    0.00000000
                                                     2        0.1800000       -0.30959819    0.00000000
                                                     2        0.3000000        0.16621458    0.00000000
                                                     2        0.6000000        0.27350556    0.00000000
                                      F - G
                                                     0        0.0000010        0.12037550    0.00000000
                                                     2        0.1200000       -0.48737077    0.00000000
                                                     2        0.1400000        0.58315350    0.00000000
                                                     2        0.3000000        0.00005188    0.00000000
                                                     2        0.5000000       -1.16063549    0.00000000
                                                     2        0.8000000        2.09053308    0.00000000
    5          6            6
                                      G and up 
                                                     0        0.0000010       -0.00007288    0.00000000
                                                     2        0.1200000        0.10466671    0.00000000
                                                     2        0.1400000       -0.65716157    0.00000000
                                                     2        0.1600000        1.18890794    0.00000000
                                                     2        0.2000000       -1.25772850    0.00000000
                                                     2        0.2600000        1.01188378    0.00000000
                                                     2        0.4000000       -1.09380874    0.00000000
                                                     2        0.5000000        0.96944888    0.00000000
                                                     2        1.0000000       -0.79256938    0.00000000
                                                     2        3.0000000        1.06443276    0.00000000
                                      S - G
                                                     0        0.0000010       -0.00635295    0.00000000
                                                     2        0.1200000        0.16918955    0.00000000
                                                     2        0.1600000       -0.38862576    0.00000000
                                                     2        0.2800000        0.25638263    0.00000000
                                                     2        0.5000000        0.29628419    0.00000000
                                                     2        0.9000000       -0.28791512    0.00000000
                                      P - G
                                                     0        0.0000010       -0.04756931    0.00000000
                                                     2        0.1200000        0.28430375    0.00000000
                                                     2        0.1600000       -0.69640032    0.00000000
                                                     2        0.2600000        1.13005668    0.00000000
                                                     2        0.4000000       -1.31433324    0.00000000
                                                     2        0.7000000        0.91526469    0.00000000
                                      D - G
                                                     0        0.0000010       -0.11496411    0.00000000
                                                     2        0.1200000        0.16620776    0.00000000
                                                     2        0.1800000       -0.30959819    0.00000000
                                                     2        0.3000000        0.16621458    0.00000000
                                                     2        0.6000000        0.27350556    0.00000000
                                      F - G
                                                     0        0.0000010        0.12037550    0.00000000
                                                     2        0.1200000       -0.48737077    0.00000000
                                                     2        0.1400000        0.58315350    0.00000000
                                                     2        0.3000000        0.00005188    0.00000000
                                                     2        0.5000000       -1.16063549    0.00000000
                                                     2        0.8000000        2.09053308    0.00000000
    6          6            6
                                      G and up 
                                                     0        0.0000010       -0.00007288    0.00000000
                                                     2        0.1200000        0.10466671    0.00000000
                                                     2        0.1400000       -0.65716157    0.00000000
                                                     2        0.1600000        1.18890794    0.00000000
                                                     2        0.2000000       -1.25772850    0.00000000
                                                     2        0.2600000        1.01188378    0.00000000
                                                     2        0.4000000       -1.09380874    0.00000000
                                                     2        0.5000000        0.96944888    0.00000000
                                                     2        1.0000000       -0.79256938    0.00000000
                                                     2        3.0000000        1.06443276    0.00000000
                                      S - G
                                                     0        0.0000010       -0.00635295    0.00000000
                                                     2        0.1200000        0.16918955    0.00000000
                                                     2        0.1600000       -0.38862576    0.00000000
                                                     2        0.2800000        0.25638263    0.00000000
                                                     2        0.5000000        0.29628419    0.00000000
                                                     2        0.9000000       -0.28791512    0.00000000
                                      P - G
                                                     0        0.0000010       -0.04756931    0.00000000
                                                     2        0.1200000        0.28430375    0.00000000
                                                     2        0.1600000       -0.69640032    0.00000000
                                                     2        0.2600000        1.13005668    0.00000000
                                                     2        0.4000000       -1.31433324    0.00000000
                                                     2        0.7000000        0.91526469    0.00000000
                                      D - G
                                                     0        0.0000010       -0.11496411    0.00000000
                                                     2        0.1200000        0.16620776    0.00000000
                                                     2        0.1800000       -0.30959819    0.00000000
                                                     2        0.3000000        0.16621458    0.00000000
                                                     2        0.6000000        0.27350556    0.00000000
                                      F - G
                                                     0        0.0000010        0.12037550    0.00000000
                                                     2        0.1200000       -0.48737077    0.00000000
                                                     2        0.1400000        0.58315350    0.00000000
                                                     2        0.3000000        0.00005188    0.00000000
                                                     2        0.5000000       -1.16063549    0.00000000
                                                     2        0.8000000        2.09053308    0.00000000
    7          1            1
                                      F and up 
                                                     0        0.0000010       -0.00007675    0.00000000
                                                     2        0.1200000        0.05352699    0.00000000
                                                     2        0.1400000       -0.25123645    0.00000000
                                                     2        0.1600000        0.32188106    0.00000000
                                                     2        0.2200000       -0.25206857    0.00000000
                                                     2        0.3000000        0.19290477    0.00000000
                                                     2        0.5000000       -0.10129770    0.00000000
                                                     2        0.9000000        0.00314995    0.00000000
                                                     2        1.5000000        0.18401192    0.00000000
                                      S - F
                                                     0        0.0000010        0.08065976    0.00000000
                                                     2        0.1200000       -0.09231673    0.00000000
                                                     2        0.1600000       -0.03278082    0.00000000
                                                     2        0.2800000        0.38423402    0.00000000
                                                     2        0.6000000       -1.09357590    0.00000000
                                                     2        1.1000000        1.53099489    0.00000000
                                                     2        3.0000000       -2.63300202    0.00000000
                                      P - F
                                                     0        0.0000010       -0.11638665    0.00000000
                                                     2        0.1200000        0.35468655    0.00000000
                                                     2        0.1600000       -0.59160923    0.00000000
                                                     2        0.3000000        0.49390547    0.00000000
                                                     2        0.6000000       -0.37949835    0.00000000
                                                     2        1.6000000        0.89304688    0.00000000
                                      D - F
                                                     0        0.0000010        0.05443663    0.00000000
                                                     2        0.1200000       -0.29679479    0.00000000
                                                     2        0.1400000        0.36849872    0.00000000
                                                     2        0.2400000        0.02793449    0.00000000
                                                     2        0.4000000       -0.46312857    0.00000000
                                                     2        0.7000000        0.97587598    0.00000000
                                                     2        1.5000000       -2.43431102    0.00000000
    8          1            1
                                      F and up 
                                                     0        0.0000010       -0.00007675    0.00000000
                                                     2        0.1200000        0.05352699    0.00000000
                                                     2        0.1400000       -0.25123645    0.00000000
                                                     2        0.1600000        0.32188106    0.00000000
                                                     2        0.2200000       -0.25206857    0.00000000
                                                     2        0.3000000        0.19290477    0.00000000
                                                     2        0.5000000       -0.10129770    0.00000000
                                                     2        0.9000000        0.00314995    0.00000000
                                                     2        1.5000000        0.18401192    0.00000000
                                      S - F
                                                     0        0.0000010        0.08065976    0.00000000
                                                     2        0.1200000       -0.09231673    0.00000000
                                                     2        0.1600000       -0.03278082    0.00000000
                                                     2        0.2800000        0.38423402    0.00000000
                                                     2        0.6000000       -1.09357590    0.00000000
                                                     2        1.1000000        1.53099489    0.00000000
                                                     2        3.0000000       -2.63300202    0.00000000
                                      P - F
                                                     0        0.0000010       -0.11638665    0.00000000
                                                     2        0.1200000        0.35468655    0.00000000
                                                     2        0.1600000       -0.59160923    0.00000000
                                                     2        0.3000000        0.49390547    0.00000000
                                                     2        0.6000000       -0.37949835    0.00000000
                                                     2        1.6000000        0.89304688    0.00000000
                                      D - F
                                                     0        0.0000010        0.05443663    0.00000000
                                                     2        0.1200000       -0.29679479    0.00000000
                                                     2        0.1400000        0.36849872    0.00000000
                                                     2        0.2400000        0.02793449    0.00000000
                                                     2        0.4000000       -0.46312857    0.00000000
                                                     2        0.7000000        0.97587598    0.00000000
                                                     2        1.5000000       -2.43431102    0.00000000
    9          8            8
                                      G and up 
                                                     0        0.0000010        0.00049668    0.00000000
                                                     2        0.1200000       -0.01803391    0.00000000
                                                     2        0.1400000        0.04014195    0.00000000
                                                     2        0.2000000       -0.02692147    0.00000000
                                                     2        0.2800000       -0.04241843    0.00000000
                                                     2        0.4000000        0.15412145    0.00000000
                                                     2        0.7000000       -0.40587006    0.00000000
                                                     2        1.1000000        1.75666647    0.00000000
                                      S - G
                                                     0        0.0000010       -0.01088195    0.00000000
                                                     2        0.1200000        0.09867335    0.00000000
                                                     2        0.2400000       -0.08484177    0.00000000
                                                     2        0.6000000       -1.39011554    0.00000000
                                                     2        2.5000000        1.36225910    0.00000000
                                      P - G
                                                     0        0.0000010        0.05874028    0.00000000
                                                     2        0.1200000       -0.11700340    0.00000000
                                                     2        0.1600000        0.08847775    0.00000000
                                                     2        0.3000000        0.04709907    0.00000000
                                                     2        1.2000000       -1.80388338    0.00000000
                                      D - G
                                                     0        0.0000010       -0.00541262    0.00000000
                                                     2        0.1200000       -0.26547906    0.00000000
                                                     2        0.1600000        1.04289661    0.00000000
                                                     2        0.2400000       -1.92800913    0.00000000
                                                     2        0.4000000        2.26691633    0.00000000
                                                     2        0.7000000       -1.97391482    0.00000000
                                      F - G
                                                     0        0.0000010       -0.02604870    0.00000000
                                                     2        0.1200000        0.37362552    0.00000000
                                                     2        0.1600000       -1.43526367    0.00000000
                                                     2        0.2200000        1.76778079    0.00000000
                                                     2        0.5000000       -1.90846303    0.00000000
   10          8            8
                                      G and up 
                                                     0        0.0000010        0.00049668    0.00000000
                                                     2        0.1200000       -0.01803391    0.00000000
                                                     2        0.1400000        0.04014195    0.00000000
                                                     2        0.2000000       -0.02692147    0.00000000
                                                     2        0.2800000       -0.04241843    0.00000000
                                                     2        0.4000000        0.15412145    0.00000000
                                                     2        0.7000000       -0.40587006    0.00000000
                                                     2        1.1000000        1.75666647    0.00000000
                                      S - G
                                                     0        0.0000010       -0.01088195    0.00000000
                                                     2        0.1200000        0.09867335    0.00000000
                                                     2        0.2400000       -0.08484177    0.00000000
                                                     2        0.6000000       -1.39011554    0.00000000
                                                     2        2.5000000        1.36225910    0.00000000
                                      P - G
                                                     0        0.0000010        0.05874028    0.00000000
                                                     2        0.1200000       -0.11700340    0.00000000
                                                     2        0.1600000        0.08847775    0.00000000
                                                     2        0.3000000        0.04709907    0.00000000
                                                     2        1.2000000       -1.80388338    0.00000000
                                      D - G
                                                     0        0.0000010       -0.00541262    0.00000000
                                                     2        0.1200000       -0.26547906    0.00000000
                                                     2        0.1600000        1.04289661    0.00000000
                                                     2        0.2400000       -1.92800913    0.00000000
                                                     2        0.4000000        2.26691633    0.00000000
                                                     2        0.7000000       -1.97391482    0.00000000
                                      F - G
                                                     0        0.0000010       -0.02604870    0.00000000
                                                     2        0.1200000        0.37362552    0.00000000
                                                     2        0.1600000       -1.43526367    0.00000000
                                                     2        0.2200000        1.76778079    0.00000000
                                                     2        0.5000000       -1.90846303    0.00000000
   11          1            1
                                      F and up 
                                                     0        0.0000010       -0.00007675    0.00000000
                                                     2        0.1200000        0.05352699    0.00000000
                                                     2        0.1400000       -0.25123645    0.00000000
                                                     2        0.1600000        0.32188106    0.00000000
                                                     2        0.2200000       -0.25206857    0.00000000
                                                     2        0.3000000        0.19290477    0.00000000
                                                     2        0.5000000       -0.10129770    0.00000000
                                                     2        0.9000000        0.00314995    0.00000000
                                                     2        1.5000000        0.18401192    0.00000000
                                      S - F
                                                     0        0.0000010        0.08065976    0.00000000
                                                     2        0.1200000       -0.09231673    0.00000000
                                                     2        0.1600000       -0.03278082    0.00000000
                                                     2        0.2800000        0.38423402    0.00000000
                                                     2        0.6000000       -1.09357590    0.00000000
                                                     2        1.1000000        1.53099489    0.00000000
                                                     2        3.0000000       -2.63300202    0.00000000
                                      P - F
                                                     0        0.0000010       -0.11638665    0.00000000
                                                     2        0.1200000        0.35468655    0.00000000
                                                     2        0.1600000       -0.59160923    0.00000000
                                                     2        0.3000000        0.49390547    0.00000000
                                                     2        0.6000000       -0.37949835    0.00000000
                                                     2        1.6000000        0.89304688    0.00000000
                                      D - F
                                                     0        0.0000010        0.05443663    0.00000000
                                                     2        0.1200000       -0.29679479    0.00000000
                                                     2        0.1400000        0.36849872    0.00000000
                                                     2        0.2400000        0.02793449    0.00000000
                                                     2        0.4000000       -0.46312857    0.00000000
                                                     2        0.7000000        0.97587598    0.00000000
                                                     2        1.5000000       -2.43431102    0.00000000
   12          1            1
                                      F and up 
                                                     0        0.0000010       -0.00007675    0.00000000
                                                     2        0.1200000        0.05352699    0.00000000
                                                     2        0.1400000       -0.25123645    0.00000000
                                                     2        0.1600000        0.32188106    0.00000000
                                                     2        0.2200000       -0.25206857    0.00000000
                                                     2        0.3000000        0.19290477    0.00000000
                                                     2        0.5000000       -0.10129770    0.00000000
                                                     2        0.9000000        0.00314995    0.00000000
                                                     2        1.5000000        0.18401192    0.00000000
                                      S - F
                                                     0        0.0000010        0.08065976    0.00000000
                                                     2        0.1200000       -0.09231673    0.00000000
                                                     2        0.1600000       -0.03278082    0.00000000
                                                     2        0.2800000        0.38423402    0.00000000
                                                     2        0.6000000       -1.09357590    0.00000000
                                                     2        1.1000000        1.53099489    0.00000000
                                                     2        3.0000000       -2.63300202    0.00000000
                                      P - F
                                                     0        0.0000010       -0.11638665    0.00000000
                                                     2        0.1200000        0.35468655    0.00000000
                                                     2        0.1600000       -0.59160923    0.00000000
                                                     2        0.3000000        0.49390547    0.00000000
                                                     2        0.6000000       -0.37949835    0.00000000
                                                     2        1.6000000        0.89304688    0.00000000
                                      D - F
                                                     0        0.0000010        0.05443663    0.00000000
                                                     2        0.1200000       -0.29679479    0.00000000
                                                     2        0.1400000        0.36849872    0.00000000
                                                     2        0.2400000        0.02793449    0.00000000
                                                     2        0.4000000       -0.46312857    0.00000000
                                                     2        0.7000000        0.97587598    0.00000000
                                                     2        1.5000000       -2.43431102    0.00000000
   13          1            1
                                      F and up 
                                                     0        0.0000010       -0.00007675    0.00000000
                                                     2        0.1200000        0.05352699    0.00000000
                                                     2        0.1400000       -0.25123645    0.00000000
                                                     2        0.1600000        0.32188106    0.00000000
                                                     2        0.2200000       -0.25206857    0.00000000
                                                     2        0.3000000        0.19290477    0.00000000
                                                     2        0.5000000       -0.10129770    0.00000000
                                                     2        0.9000000        0.00314995    0.00000000
                                                     2        1.5000000        0.18401192    0.00000000
                                      S - F
                                                     0        0.0000010        0.08065976    0.00000000
                                                     2        0.1200000       -0.09231673    0.00000000
                                                     2        0.1600000       -0.03278082    0.00000000
                                                     2        0.2800000        0.38423402    0.00000000
                                                     2        0.6000000       -1.09357590    0.00000000
                                                     2        1.1000000        1.53099489    0.00000000
                                                     2        3.0000000       -2.63300202    0.00000000
                                      P - F
                                                     0        0.0000010       -0.11638665    0.00000000
                                                     2        0.1200000        0.35468655    0.00000000
                                                     2        0.1600000       -0.59160923    0.00000000
                                                     2        0.3000000        0.49390547    0.00000000
                                                     2        0.6000000       -0.37949835    0.00000000
                                                     2        1.6000000        0.89304688    0.00000000
                                      D - F
                                                     0        0.0000010        0.05443663    0.00000000
                                                     2        0.1200000       -0.29679479    0.00000000
                                                     2        0.1400000        0.36849872    0.00000000
                                                     2        0.2400000        0.02793449    0.00000000
                                                     2        0.4000000       -0.46312857    0.00000000
                                                     2        0.7000000        0.97587598    0.00000000
                                                     2        1.5000000       -2.43431102    0.00000000
   14          1            1
                                      F and up 
                                                     0        0.0000010       -0.00007675    0.00000000
                                                     2        0.1200000        0.05352699    0.00000000
                                                     2        0.1400000       -0.25123645    0.00000000
                                                     2        0.1600000        0.32188106    0.00000000
                                                     2        0.2200000       -0.25206857    0.00000000
                                                     2        0.3000000        0.19290477    0.00000000
                                                     2        0.5000000       -0.10129770    0.00000000
                                                     2        0.9000000        0.00314995    0.00000000
                                                     2        1.5000000        0.18401192    0.00000000
                                      S - F
                                                     0        0.0000010        0.08065976    0.00000000
                                                     2        0.1200000       -0.09231673    0.00000000
                                                     2        0.1600000       -0.03278082    0.00000000
                                                     2        0.2800000        0.38423402    0.00000000
                                                     2        0.6000000       -1.09357590    0.00000000
                                                     2        1.1000000        1.53099489    0.00000000
                                                     2        3.0000000       -2.63300202    0.00000000
                                      P - F
                                                     0        0.0000010       -0.11638665    0.00000000
                                                     2        0.1200000        0.35468655    0.00000000
                                                     2        0.1600000       -0.59160923    0.00000000
                                                     2        0.3000000        0.49390547    0.00000000
                                                     2        0.6000000       -0.37949835    0.00000000
                                                     2        1.6000000        0.89304688    0.00000000
                                      D - F
                                                     0        0.0000010        0.05443663    0.00000000
                                                     2        0.1200000       -0.29679479    0.00000000
                                                     2        0.1400000        0.36849872    0.00000000
                                                     2        0.2400000        0.02793449    0.00000000
                                                     2        0.4000000       -0.46312857    0.00000000
                                                     2        0.7000000        0.97587598    0.00000000
                                                     2        1.5000000       -2.43431102    0.00000000
 ======================================================================================================
   246 basis functions,   486 primitive gaussians,   262 cartesian basis functions
    38 alpha electrons       38 beta electrons
       nuclear repulsion energy       510.4431413367 Hartrees.
 NAtoms=   14 NActive=   14 NUniq=   14 SFac= 1.00D+00 NAtFMM=   60 NAOKFM=F Big=F
   1 Symmetry operations used in ECPInt.
 ECPInt:  NShTT=    5671 NPrTT=   36043 LenC2=    5634 LenP2D=   25041.
 LDataN:  DoStor=T MaxTD1= 6 Len=  172
 Initial guess from the checkpoint file:  "BDE49_nonexpt_1407_mol1.chk"
 B after Tr=     0.000000   -0.000000    0.000000
         Rot=   -0.000000    0.000000    1.000000    0.000000 Ang= 180.00 deg.
 >>>>>>>>>> Convergence criterion not met.
 SCF Done:  E(RHF) =  -986.586054071     A.U. after    2 cycles
            NFock=  1  Conv=0.26D-01     -V/T= 2.0170

 **********************************************************************

            Population analysis using the SCF Density.

 **********************************************************************

 Orbital symmetries:
       Occupied  (A) (A) (A) (A) (A) (A) (A) (A) (A) (A) (A) (A)
                 (A) (A) (A) (A) (A) (A) (A) (A) (A) (A) (A) (A)
                 (A) (A) (A) (A) (A) (A) (A) (A) (A) (A) (A) (A)
                 (A) (A)
       Virtual   (A) (A) (A) (A) (A) (A) (A) (A) (A) (A) (A) (A)
                 (A) (A) (A) (A) (A) (A) (A) (A) (A) (A) (A) (A)
                 (A) (A) (A) (A) (A) (A) (A) (A) (A) (A) (A) (A)
                 (A) (A) (A) (A) (A) (A) (A) (A) (A) (A) (A) (A)
                 (A) (A) (A) (A) (A) (A) (A) (A) (A) (A) (A) (A)
                 (A) (A) (A) (A) (A) (A) (A) (A) (A) (A) (A) (A)
                 (A) (A) (A) (A) (A) (A) (A) (A) (A) (A) (A) (A)
                 (A) (A) (A) (A) (A) (A) (A) (A) (A) (A) (A) (A)
                 (A) (A) (A) (A) (A) (A) (A) (A) (A) (A) (A) (A)
                 (A) (A) (A) (A) (A) (A) (A) (A) (A) (A) (A) (A)
                 (A) (A) (A) (A) (A) (A) (A) (A) (A) (A) (A) (A)
                 (A) (A) (A) (A) (A) (A) (A) (A) (A) (A) (A) (A)
                 (A) (A) (A) (A) (A) (A) (A) (A) (A) (A) (A) (A)
                 (A) (A) (A) (A) (A) (A) (A) (A) (A) (A) (A) (A)
                 (A) (A) (A) (A) (A) (A) (A) (A) (A) (A) (A) (A)
                 (A) (A) (A) (A) (A) (A) (A) (A) (A) (A) (A) (A)
                 (A) (A) (A) (A) (A) (A) (A) (A) (A) (A) (A) (A)
                 (A) (A) (A) (A)
 The electronic state is 1-A.
 Alpha  occ. eigenvalues --  -84.30584 -84.30576 -20.56855 -20.56854 -11.37199
 Alpha  occ. eigenvalues --  -11.37198 -11.28215 -11.28204  -6.77789  -6.77771
 Alpha  occ. eigenvalues --   -4.30246  -4.30182  -4.30125  -4.30014  -4.29491
 Alpha  occ. eigenvalues --   -4.29244  -1.50342  -1.50274  -1.11673  -0.97315
 Alpha  occ. eigenvalues --   -0.96252  -0.85540  -0.77796  -0.73934  -0.68405
 Alpha  occ. eigenvalues --   -0.66920  -0.65342  -0.62229  -0.61263  -0.56675
 Alpha  occ. eigenvalues --   -0.55474  -0.54927  -0.52050  -0.48393  -0.46418
 Alpha  occ. eigenvalues --   -0.40235  -0.36711  -0.33600
 Alpha virt. eigenvalues --    0.03267   0.04154   0.04302   0.05024   0.05467
 Alpha virt. eigenvalues --    0.06434   0.07185   0.07918   0.08437   0.09696
 Alpha virt. eigenvalues --    0.10724   0.10890   0.10995   0.11846   0.12411
 Alpha virt. eigenvalues --    0.13448   0.13966   0.14503   0.15018   0.15575
 Alpha virt. eigenvalues --    0.15776   0.16395   0.17025   0.17874   0.18370
 Alpha virt. eigenvalues --    0.18644   0.18706   0.19001   0.19163   0.19924
 Alpha virt. eigenvalues --    0.21885   0.23060   0.23659   0.23984   0.26050
 Alpha virt. eigenvalues --    0.27779   0.28670   0.29789   0.31654   0.31712
 Alpha virt. eigenvalues --    0.31853   0.32077   0.33800   0.34585   0.35141
 Alpha virt. eigenvalues --    0.35998   0.36310   0.37706   0.39290   0.40677
 Alpha virt. eigenvalues --    0.41291   0.41321   0.41843   0.42291   0.43996
 Alpha virt. eigenvalues --    0.44569   0.44706   0.46700   0.47883   0.48197
 Alpha virt. eigenvalues --    0.49160   0.49613   0.50148   0.50921   0.51525
 Alpha virt. eigenvalues --    0.52447   0.52854   0.54216   0.54354   0.55434
 Alpha virt. eigenvalues --    0.57090   0.57549   0.58689   0.58958   0.59424
 Alpha virt. eigenvalues --    0.59889   0.62036   0.62039   0.64685   0.65284
 Alpha virt. eigenvalues --    0.66134   0.67071   0.67934   0.69435   0.71038
 Alpha virt. eigenvalues --    0.72558   0.72585   0.74058   0.76180   0.78794
 Alpha virt. eigenvalues --    0.80153   0.80698   0.82570   0.83994   0.84731
 Alpha virt. eigenvalues --    0.85265   0.86476   0.87928   0.88585   0.90249
 Alpha virt. eigenvalues --    0.90311   0.92635   0.95943   0.95991   0.97768
 Alpha virt. eigenvalues --    0.98287   0.99606   0.99908   1.01018   1.01166
 Alpha virt. eigenvalues --    1.03923   1.06774   1.07247   1.08101   1.09276
 Alpha virt. eigenvalues --    1.11246   1.13019   1.13198   1.17259   1.18094
 Alpha virt. eigenvalues --    1.19923   1.23389   1.24142   1.25726   1.28852
 Alpha virt. eigenvalues --    1.29712   1.30619   1.33445   1.33612   1.33671
 Alpha virt. eigenvalues --    1.37065   1.37387   1.38991   1.41814   1.41877
 Alpha virt. eigenvalues --    1.43108   1.43696   1.47118   1.52794   1.53215
 Alpha virt. eigenvalues --    1.55699   1.57192   1.62921   1.63684   1.66738
 Alpha virt. eigenvalues --    1.68566   1.71198   1.73393   1.76904   1.77544
 Alpha virt. eigenvalues --    1.80747   1.84973   1.85513   1.88474   1.91556
 Alpha virt. eigenvalues --    1.91912   1.94849   2.00403   2.00490   2.02004
 Alpha virt. eigenvalues --    2.02950   2.03663   2.06516   2.07614   2.07931
 Alpha virt. eigenvalues --    2.11221   2.14031   2.16365   2.18143   2.20311
 Alpha virt. eigenvalues --    2.23198   2.24749   2.25823   2.28262   2.34981
 Alpha virt. eigenvalues --    2.36444   2.38944   2.42018   2.42842   2.43942
 Alpha virt. eigenvalues --    2.48915   2.48985   2.52578   2.54935   2.60682
 Alpha virt. eigenvalues --    2.65980   2.67299   2.76942   2.78333   2.88897
 Alpha virt. eigenvalues --    2.97722   3.01708   3.11185   3.11867   3.16722
 Alpha virt. eigenvalues --    3.33397   3.34263   3.54245   3.85489   3.87498
 Alpha virt. eigenvalues --    3.88160   3.89506   3.91379   3.92211   4.00065
 Alpha virt. eigenvalues --    4.02094   4.21427   4.24359
          Condensed to atoms (all electrons):
 Mulliken charges:
               1
     1  P   -0.094378
     2  P   -0.094380
     3  C    0.976714
     4  C   -0.490827
     5  C   -0.490807
     6  C    0.976699
     7  H    0.104028
     8  H    0.268948
     9  O   -1.278503
    10  O   -1.278507
    11  H    0.268947
    12  H    0.104026
    13  H    0.514019
    14  H    0.514020
 Sum of Mulliken charges =  -0.00000
 Mulliken charges with hydrogens summed into heavy atoms:
               1
     1  P    0.419641
     2  P    0.419641
     3  C    0.976714
     4  C   -0.117852
     5  C   -0.117833
     6  C    0.976699
     9  O   -1.278503
    10  O   -1.278507
 Electronic spatial extent (au):  <R**2>=           1325.8017
 Charge=             -0.0000 electrons
 Dipole moment (field-independent basis, Debye):
    X=              0.0000    Y=             -0.1894    Z=              0.0000  Tot=              0.1894

 Test job not archived.
 1\1\GINC-SE120\SP\RHF\Aug-CC-pVDZ\C4H6O2P2\OHZDE\08-Apr-2025\0\\#t hf 
 aug-cc-pvdz iop(5/13=1,5/36=2,99/5=2) pseudo=read geom=check guess=(re
 ad,tcheck) scf=(maxcycle=1)\\title\\0,1\P,0,-1.083645,-1.340148,-0.275
 384\P,0,1.083647,-1.340146,0.275383\C,0,-1.608964,0.471743,-0.083322\C
 ,0,-0.622206,1.564499,-0.459494\C,0,0.622201,1.564495,0.459489\C,0,1.6
 08958,0.471744,0.083304\H,0,-1.149549,2.517658,-0.386065\H,0,-0.311314
 ,1.425947,-1.501575\O,0,2.730097,0.706556,-0.289998\O,0,-2.730091,0.70
 6553,0.290017\H,0,0.311309,1.425932,1.501568\H,0,1.149544,2.517655,0.3
 86071\H,0,-1.590117,-1.711262,0.98938\H,0,1.590119,-1.711268,-0.989378
 \\Version=ES64L-G16RevC.01\State=1-A\HF=-986.5860541\RMSD=2.593e-02\Di
 pole=-0.0000007,-0.0745075,-0.0000103\Quadrupole=-11.2090613,6.6736223
 ,4.5354389,-0.0000643,1.5419759,-0.000058\PG=C01 [X(C4H6O2P2)]\\@


 BETTER TO HUNT IN FIELDS, FOR HEALTH UNBOUGHT
 THAN FEE THE DOCTOR FOR A NAUSEOUS DRAUGHT.
 THE WISE, FOR CURE, ON EXERCISE DEPEND;
 GOD NEVER MADE HIS WORK FOR MAN TO MEND.
     -- JOHN DRYDEN (1631-1700)
 Job cpu time:       0 days  0 hours  1 minutes 25.1 seconds.
 Elapsed time:       0 days  0 hours  0 minutes  6.6 seconds.
 File lengths (MBytes):  RWF=     14 Int=      0 D2E=      0 Chk=      9 Scr=      1
 Normal termination of Gaussian 16 at Tue Apr  8 23:32:52 2025.
