 Entering Gaussian System, Link 0=g16
 Input=BDE49_nonexpt_2717_mol1.gjf
 Output=BDE49_nonexpt_2717_mol1.log
 Initial command:
 /arc/software/Gaussian/g16.c01/l1.exe "/tmp/slurm/4853327/Gau-976409.inp" -scrdir="/tmp/slurm/4853327/"
 Entering Link 1 = /arc/software/Gaussian/g16.c01/l1.exe PID=    976410.
  
 Copyright (c) 1988-2019, Gaussian, Inc.  All Rights Reserved.
  
 This is part of the Gaussian(R) 16 program.  It is based on
 the Gaussian(R) 09 system (copyright 2009, Gaussian, Inc.),
 the Gaussian(R) 03 system (copyright 2003, Gaussian, Inc.),
 the Gaussian(R) 98 system (copyright 1998, Gaussian, Inc.),
 the Gaussian(R) 94 system (copyright 1995, Gaussian, Inc.),
 the Gaussian 92(TM) system (copyright 1992, Gaussian, Inc.),
 the Gaussian 90(TM) system (copyright 1990, Gaussian, Inc.),
 the Gaussian 88(TM) system (copyright 1988, Gaussian, Inc.),
 the Gaussian 86(TM) system (copyright 1986, Carnegie Mellon
 University), and the Gaussian 82(TM) system (copyright 1983,
 Carnegie Mellon University). Gaussian is a federally registered
 trademark of Gaussian, Inc.
  
 This software contains proprietary and confidential information,
 including trade secrets, belonging to Gaussian, Inc.
  
 This software is provided under written license and may be
 used, copied, transmitted, or stored only in accord with that
 written license.
  
 The following legend is applicable only to US Government
 contracts under FAR:
  
                    RESTRICTED RIGHTS LEGEND
  
 Use, reproduction and disclosure by the US Government is
 subject to restrictions as set forth in subparagraphs (a)
 and (c) of the Commercial Computer Software - Restricted
 Rights clause in FAR 52.227-19.
  
 Gaussian, Inc.
 340 Quinnipiac St., Bldg. 40, Wallingford CT 06492
  
  
 ---------------------------------------------------------------
 Warning -- This program may not be used in any manner that
 competes with the business of Gaussian, Inc. or will provide
 assistance to any competitor of Gaussian, Inc.  The licensee
 of this program is prohibited from giving any competitor of
 Gaussian, Inc. access to this program.  By using this program,
 the user acknowledges that Gaussian, Inc. is engaged in the
 business of creating and licensing software in the field of
 computational chemistry and represents and warrants to the
 licensee that it is not a competitor of Gaussian, Inc. and that
 it will not use this program in any manner prohibited above.
 ---------------------------------------------------------------
  

 Cite this work as:
 Gaussian 16, Revision C.01,
 M. J. Frisch, G. W. Trucks, H. B. Schlegel, G. E. Scuseria, 
 M. A. Robb, J. R. Cheeseman, G. Scalmani, V. Barone, 
 G. A. Petersson, H. Nakatsuji, X. Li, M. Caricato, A. V. Marenich, 
 J. Bloino, B. G. Janesko, R. Gomperts, B. Mennucci, H. P. Hratchian, 
 J. V. Ortiz, A. F. Izmaylov, J. L. Sonnenberg, D. Williams-Young, 
 F. Ding, F. Lipparini, F. Egidi, J. Goings, B. Peng, A. Petrone, 
 T. Henderson, D. Ranasinghe, V. G. Zakrzewski, J. Gao, N. Rega, 
 G. Zheng, W. Liang, M. Hada, M. Ehara, K. Toyota, R. Fukuda, 
 J. Hasegawa, M. Ishida, T. Nakajima, Y. Honda, O. Kitao, H. Nakai, 
 T. Vreven, K. Throssell, J. A. Montgomery, Jr., J. E. Peralta, 
 F. Ogliaro, M. J. Bearpark, J. J. Heyd, E. N. Brothers, K. N. Kudin, 
 V. N. Staroverov, T. A. Keith, R. Kobayashi, J. Normand, 
 K. Raghavachari, A. P. Rendell, J. C. Burant, S. S. Iyengar, 
 J. Tomasi, M. Cossi, J. M. Millam, M. Klene, C. Adamo, R. Cammi, 
 J. W. Ochterski, R. L. Martin, K. Morokuma, O. Farkas, 
 J. B. Foresman, and D. J. Fox, Gaussian, Inc., Wallingford CT, 2019.
 
 ******************************************
 Gaussian 16:  ES64L-G16RevC.01  3-Jul-2019
                 9-Apr-2025 
 ******************************************
 %nprocs=16
 Will use up to   16 processors via shared memory.
 %mem=30GB
 %chk=BDE49_nonexpt_2717_mol1.chk
 ----------------------------------------------------------------------
 #t hf aug-cc-pvdz symm=none int=(grid=ultrafine) guess=(read,tcheck) s
 table=(opt,rrhf)
 ----------------------------------------------------------------------
 -----
 title
 -----
 Symbolic Z-matrix:
 Charge =  0 Multiplicity = 1
 C                    -1.89756   0.21847  -0.13347 
 O                    -1.25508   1.07638  -0.66084 
 S                    -1.31016  -1.52055   0.04453 
 S                     0.57308  -1.41704  -0.80017 
 C                     1.53471  -0.56492   0.51132 
 O                     1.05013  -0.17671   1.53299 
 C                    -3.25917   0.40489   0.51287 
 C                     2.99333  -0.39856   0.12005 
 C                     3.48613   1.04025   0.35237 
 H                     3.14779  -0.70396  -0.91956 
 H                     3.55616  -1.09744   0.74956 
 C                     2.84792   2.05842  -0.5969 
 H                     4.57438   1.05126   0.23678 
 H                     3.27328   1.30981   1.39018 
 H                     1.75967   2.07547  -0.4948 
 H                     3.08035   1.82638  -1.64084 
 H                     3.21782   3.06569  -0.39011 
 C                    -3.99194   1.64552   0.00097 
 H                    -3.07224   0.48139   1.5909 
 H                    -3.85358  -0.50325   0.37203 
 H                    -3.3818    2.53864   0.13989 
 H                    -4.93239   1.77797   0.53999 
 H                    -4.21719   1.55774  -1.06408 
 
                    Distance matrix (angstroms):
                    1          2          3          4          5
     1  C    0.000000
     2  O    1.194531   0.000000
     3  S    1.844163   2.691583   0.000000
     4  S    3.037017   3.094949   2.066593   0.000000
     5  C    3.579098   3.442489   3.037171   1.835991   0.000000
     6  O    3.409127   3.420106   3.097162   2.685081   1.195549
     7  C    1.518710   2.417617   2.779450   4.441808   4.890994
     8  C    4.936177   4.564452   4.447987   2.782399   1.519322
     9  C    5.467676   4.848399   5.445808   3.981519   2.531767
    10  H    5.188867   4.756232   4.633521   2.674293   2.160730
    11  H    5.679295   5.464677   4.935288   3.376767   2.103943
    12  C    5.110752   4.219374   5.523594   4.158735   3.136010
    13  H    6.535797   5.898216   6.424869   4.814373   3.453546
    14  H    5.500008   4.976664   5.552440   4.418645   2.703628
    15  H    4.117567   3.180327   4.758794   3.701206   2.834528
    16  H    5.443998   4.507640   5.772257   4.184843   3.569185
    17  H    5.860002   4.902803   6.459496   5.220890   4.102040
    18  C    2.537911   2.872692   4.149450   5.555231   5.974146
    19  H    2.102956   2.954048   3.082854   4.754956   4.846054
    20  H    2.145330   3.211585   2.758839   4.669522   5.390449
    21  H    2.767825   2.702279   4.558273   5.672052   5.825982
    22  H    3.477895   3.931518   4.924056   6.504946   6.878468
    23  H    2.835550   3.027936   4.376727   5.644966   6.330236
                    6          7          8          9         10
     6  O    0.000000
     7  C    4.466429   0.000000
     8  C    2.412809   6.316140   0.000000
     9  C    2.967982   6.777057   1.538500   0.000000
    10  H    3.270038   6.658113   1.094494   2.185076   0.000000
    11  H    2.782384   6.982956   1.096126   2.175403   1.762827
    12  C    3.572712   6.423574   2.563573   1.531375   2.797282
    13  H    3.950745   7.865018   2.148327   1.094428   2.540294
    14  H    2.678153   6.652925   2.147117   1.093162   3.066905
    15  H    3.112510   5.384701   2.832103   2.184049   3.135689
    16  H    4.267007   6.844601   2.838780   2.180729   2.632001
    17  H    4.348601   7.060211   3.508801   2.173868   3.807296
    18  C    5.575854   1.529107   7.279186   7.510755   7.572529
    19  H    4.174972   1.096784   6.303083   6.697645   6.811472
    20  H    5.049841   1.094481   6.852352   7.500278   7.122336
    21  H    5.381063   2.169572   7.019244   7.032690   7.366974
    22  H    6.371607   2.164659   8.229865   8.452861   8.577847
    23  H    6.123540   2.175690   7.564447   7.849537   7.705777
                   11         12         13         14         15
    11  H    0.000000
    12  C    3.503431   0.000000
    13  H    2.432417   2.165653   0.000000
    14  H    2.507045   2.165597   1.757851   0.000000
    15  H    3.852688   1.093163   3.083313   2.535823   0.000000
    16  H    3.806464   1.094387   2.521589   3.080769   1.766250
    17  H    4.329551   1.092784   2.508224   2.501124   1.765696
    18  C    8.065857   6.878349   8.590149   7.404461   5.788930
    19  H    6.865578   6.505517   7.786472   6.402510   5.498961
    20  H    7.443106   7.239556   8.571195   7.424013   6.237777
    21  H    7.856714   6.291488   8.094591   6.882096   5.201155
    22  H    8.964780   7.867932   9.539322   8.262865   6.778121
    23  H    8.412142   7.098217   8.901708   7.886184   6.026188
                   16         17         18         19         20
    16  H    0.000000
    17  H    1.766101   0.000000
    18  C    7.262613   7.358701   0.000000
    19  H    7.078660   7.082922   2.174607   0.000000
    20  H    7.586715   7.957571   2.184964   1.750901   0.000000
    21  H    6.740740   6.641804   1.090521   2.536440   3.087003
    22  H    8.304352   8.303561   1.092023   2.499136   2.529034
    23  H    7.325218   7.616261   1.092142   3.085178   2.538172
                   21         22         23
    21  H    0.000000
    22  H    1.772860   0.000000
    23  H    1.763399   1.770041   0.000000
 Symmetry turned off by external request.
 Rotational constants (GHZ):           1.3182334           0.4622112           0.3886079
   369 basis functions,   681 primitive gaussians,   391 cartesian basis functions
    51 alpha electrons       51 beta electrons
       nuclear repulsion energy       818.6753061963 Hartrees.
 NAtoms=   23 NActive=   23 NUniq=   23 SFac= 1.00D+00 NAtFMM=   60 NAOKFM=F Big=F
 ExpMin= 2.97D-02 ExpMax= 1.11D+05 ExpMxC= 1.07D+03 IAcc=3 IRadAn=         5 AccDes= 0.00D+00
 Harris functional with IExCor=  205 and IRadAn=       5 diagonalized for initial guess.
 HarFok:  IExCor=  205 AccDes= 0.00D+00 IRadAn=         5 IDoV= 1 UseB2=F ITyADJ=14
 ICtDFT=  3500011 ScaDFX=  1.000000  1.000000  1.000000  1.000000
 FoFCou: FMM=F IPFlag=           0 FMFlag=      100000 FMFlg1=           0
         NFxFlg=           0 DoJE=T BraDBF=F KetDBF=T FulRan=T
         wScrn=  0.000000 ICntrl=       500 IOpCl=  0 I1Cent=   200000004 NGrid=           0
         NMat0=    1 NMatS0=      1 NMatT0=    0 NMatD0=    1 NMtDS0=    0 NMtDT0=    0
 Symmetry not used in FoFCou.
 SCF Done:  E(RHF) =  -1216.92431810     A.U. after   15 cycles
            NFock= 15  Conv=0.47D-08     -V/T= 2.0006

 **********************************************************************

            Population analysis using the SCF Density.

 **********************************************************************

 Alpha  occ. eigenvalues --  -91.99839 -91.99705 -20.58179 -20.57929 -11.38133
 Alpha  occ. eigenvalues --  -11.37959 -11.26458 -11.26013 -11.24145 -11.23778
 Alpha  occ. eigenvalues --  -11.22233  -8.99908  -8.99785  -6.68084  -6.67961
 Alpha  occ. eigenvalues --   -6.67878  -6.67763  -6.67695  -6.67575  -1.42641
 Alpha  occ. eigenvalues --   -1.42273  -1.09630  -1.08320  -1.05864  -0.98378
 Alpha  occ. eigenvalues --   -0.93797  -0.88023  -0.82768  -0.75160  -0.73166
 Alpha  occ. eigenvalues --   -0.67345  -0.66314  -0.65495  -0.64556  -0.63153
 Alpha  occ. eigenvalues --   -0.60638  -0.59476  -0.56375  -0.55755  -0.55337
 Alpha  occ. eigenvalues --   -0.54288  -0.52633  -0.50605  -0.50348  -0.48818
 Alpha  occ. eigenvalues --   -0.48672  -0.46842  -0.42828  -0.42328  -0.38525
 Alpha  occ. eigenvalues --   -0.36895
 Alpha virt. eigenvalues --    0.03499   0.03567   0.04661   0.04916   0.05371
 Alpha virt. eigenvalues --    0.05625   0.05853   0.06988   0.07313   0.07534
 Alpha virt. eigenvalues --    0.08184   0.08883   0.09738   0.10517   0.11176
 Alpha virt. eigenvalues --    0.11501   0.11983   0.12274   0.13266   0.13456
 Alpha virt. eigenvalues --    0.14088   0.14304   0.14949   0.15173   0.15453
 Alpha virt. eigenvalues --    0.15898   0.16084   0.16838   0.17079   0.17278
 Alpha virt. eigenvalues --    0.17319   0.17975   0.18333   0.18879   0.19296
 Alpha virt. eigenvalues --    0.19336   0.20415   0.20670   0.21156   0.21637
 Alpha virt. eigenvalues --    0.22093   0.22313   0.23052   0.23427   0.24367
 Alpha virt. eigenvalues --    0.24625   0.25371   0.26565   0.27076   0.27404
 Alpha virt. eigenvalues --    0.27774   0.28915   0.29841   0.31022   0.31718
 Alpha virt. eigenvalues --    0.32486   0.32658   0.33585   0.34089   0.34534
 Alpha virt. eigenvalues --    0.34811   0.35360   0.35998   0.36587   0.36694
 Alpha virt. eigenvalues --    0.37668   0.37892   0.38337   0.39089   0.39822
 Alpha virt. eigenvalues --    0.40580   0.41114   0.41829   0.42282   0.43481
 Alpha virt. eigenvalues --    0.44215   0.44241   0.44738   0.45342   0.45681
 Alpha virt. eigenvalues --    0.46309   0.47110   0.47400   0.48004   0.48325
 Alpha virt. eigenvalues --    0.48849   0.49450   0.49657   0.50000   0.50675
 Alpha virt. eigenvalues --    0.50964   0.52035   0.52789   0.53398   0.53921
 Alpha virt. eigenvalues --    0.54512   0.55279   0.55916   0.56556   0.56808
 Alpha virt. eigenvalues --    0.57080   0.57463   0.58552   0.59360   0.59644
 Alpha virt. eigenvalues --    0.60531   0.61097   0.61245   0.61938   0.62233
 Alpha virt. eigenvalues --    0.63104   0.63187   0.64194   0.64294   0.65052
 Alpha virt. eigenvalues --    0.65834   0.65921   0.66922   0.67547   0.68576
 Alpha virt. eigenvalues --    0.68970   0.70610   0.70931   0.71737   0.72028
 Alpha virt. eigenvalues --    0.72683   0.73377   0.74440   0.74945   0.75589
 Alpha virt. eigenvalues --    0.75897   0.76845   0.77100   0.77888   0.78691
 Alpha virt. eigenvalues --    0.79463   0.79992   0.80239   0.81987   0.82245
 Alpha virt. eigenvalues --    0.82647   0.84012   0.84620   0.85207   0.85521
 Alpha virt. eigenvalues --    0.87103   0.87865   0.88108   0.89076   0.89367
 Alpha virt. eigenvalues --    0.90369   0.91226   0.91919   0.92974   0.94525
 Alpha virt. eigenvalues --    0.94930   0.95469   0.98972   0.99369   1.00448
 Alpha virt. eigenvalues --    1.00892   1.02182   1.03651   1.05017   1.06604
 Alpha virt. eigenvalues --    1.08036   1.08209   1.09118   1.10572   1.11176
 Alpha virt. eigenvalues --    1.11581   1.12036   1.14268   1.15185   1.16528
 Alpha virt. eigenvalues --    1.17427   1.18293   1.18949   1.20768   1.21257
 Alpha virt. eigenvalues --    1.22486   1.23638   1.24754   1.24857   1.26608
 Alpha virt. eigenvalues --    1.26854   1.28227   1.28369   1.29570   1.31138
 Alpha virt. eigenvalues --    1.32324   1.33747   1.35031   1.35358   1.36353
 Alpha virt. eigenvalues --    1.37227   1.38130   1.40858   1.41133   1.42609
 Alpha virt. eigenvalues --    1.44215   1.44963   1.47304   1.47946   1.51668
 Alpha virt. eigenvalues --    1.51996   1.52691   1.55039   1.55964   1.57953
 Alpha virt. eigenvalues --    1.58849   1.59220   1.60852   1.61623   1.62960
 Alpha virt. eigenvalues --    1.64344   1.68306   1.70407   1.71452   1.73685
 Alpha virt. eigenvalues --    1.77739   1.78389   1.79622   1.81694   1.82900
 Alpha virt. eigenvalues --    1.84268   1.84769   1.85843   1.86633   1.89119
 Alpha virt. eigenvalues --    1.90977   1.91812   1.93679   1.95464   1.96647
 Alpha virt. eigenvalues --    1.97548   1.98515   1.99455   2.01282   2.02287
 Alpha virt. eigenvalues --    2.04417   2.05614   2.06546   2.07574   2.09210
 Alpha virt. eigenvalues --    2.11839   2.12339   2.12917   2.14373   2.14533
 Alpha virt. eigenvalues --    2.15932   2.18554   2.19564   2.21153   2.22632
 Alpha virt. eigenvalues --    2.22952   2.23734   2.24184   2.27193   2.27785
 Alpha virt. eigenvalues --    2.29183   2.30082   2.31198   2.33489   2.34474
 Alpha virt. eigenvalues --    2.36514   2.37113   2.38722   2.39643   2.42459
 Alpha virt. eigenvalues --    2.44696   2.46319   2.47393   2.50804   2.51546
 Alpha virt. eigenvalues --    2.53744   2.55840   2.57254   2.58892   2.62221
 Alpha virt. eigenvalues --    2.63596   2.65102   2.67054   2.71518   2.73419
 Alpha virt. eigenvalues --    2.74412   2.75095   2.79033   2.83469   2.87556
 Alpha virt. eigenvalues --    2.89890   2.92251   2.94399   2.96501   2.98235
 Alpha virt. eigenvalues --    3.00713   3.03174   3.04403   3.09914   3.11408
 Alpha virt. eigenvalues --    3.13767   3.14537   3.20461   3.23958   3.28450
 Alpha virt. eigenvalues --    3.32644   3.39136   3.42831   3.77792   3.80366
 Alpha virt. eigenvalues --    3.82759   3.86670   3.86926   3.89990   3.92937
 Alpha virt. eigenvalues --    3.97067   4.15679   4.16664
          Condensed to atoms (all electrons):
 Mulliken charges:
               1
     1  C    0.236634
     2  O   -0.698275
     3  S    0.047097
     4  S    0.030752
     5  C    0.483401
     6  O   -0.776618
     7  C   -0.011396
     8  C    0.183135
     9  C    0.308748
    10  H   -0.111856
    11  H    0.049264
    12  C    0.425425
    13  H   -0.104472
    14  H   -0.132848
    15  H   -0.143217
    16  H   -0.091935
    17  H   -0.090063
    18  C    0.503063
    19  H    0.075699
    20  H   -0.016369
    21  H   -0.048437
    22  H   -0.048958
    23  H   -0.068777
 Sum of Mulliken charges =  -0.00000
 Mulliken charges with hydrogens summed into heavy atoms:
               1
     1  C    0.236634
     2  O   -0.698275
     3  S    0.047097
     4  S    0.030752
     5  C    0.483401
     6  O   -0.776618
     7  C    0.047935
     8  C    0.120543
     9  C    0.071428
    12  C    0.100210
    18  C    0.336892
 Electronic spatial extent (au):  <R**2>=           3008.9468
 Charge=             -0.0000 electrons
 Dipole moment (field-independent basis, Debye):
    X=             -0.1024    Y=             -0.1965    Z=             -0.1037  Tot=              0.2446
 NROrb=    369 NOA=    51 NOB=    51 NVA=   318 NVB=   318

 **** Warning!!: The largest alpha MO coefficient is  0.40281055D+02

    12 initial guesses have been made.
 Iteration     1 Dimension    12 NMult     0 NNew     12
 Iteration     2 Dimension    24 NMult    12 NNew     12
 Iteration     3 Dimension    27 NMult    24 NNew      3
 Iteration     4 Dimension    30 NMult    27 NNew      3
 Iteration     5 Dimension    33 NMult    30 NNew      3
 Iteration     6 Dimension    36 NMult    33 NNew      3
 Iteration     7 Dimension    39 NMult    36 NNew      3
 Iteration     8 Dimension    42 NMult    39 NNew      3
 ***********************************************************************
 Stability analysis using <AA,BB:AA,BB> singles matrix:
 ***********************************************************************
 Ground to excited state transition densities written to RWF  633

 Eigenvectors of the stability matrix:
 
 Excited state symmetry could not be determined.
 Eigenvector   1:      Singlet-?Sym  Eigenvalue= 0.1914209  <S**2>=0.000
      48 -> 67         0.13203
      48 -> 73        -0.10755
      49 -> 67        -0.15223
      49 -> 68         0.16473
      49 -> 69        -0.19230
      49 -> 72        -0.13353
      50 -> 67        -0.21761
      50 -> 68         0.10695
      50 -> 70         0.15805
      51 -> 65        -0.17828
      51 -> 66         0.12232
      51 -> 68        -0.12232
 The wavefunction is stable under the perturbations considered.
 The wavefunction is already stable.

 **********************************************************************

            Population analysis using the SCF Density.

 **********************************************************************

 Alpha  occ. eigenvalues --  -91.99839 -91.99705 -20.58179 -20.57929 -11.38133
 Alpha  occ. eigenvalues --  -11.37959 -11.26458 -11.26013 -11.24145 -11.23778
 Alpha  occ. eigenvalues --  -11.22233  -8.99908  -8.99785  -6.68084  -6.67961
 Alpha  occ. eigenvalues --   -6.67878  -6.67763  -6.67695  -6.67575  -1.42641
 Alpha  occ. eigenvalues --   -1.42273  -1.09630  -1.08320  -1.05864  -0.98378
 Alpha  occ. eigenvalues --   -0.93797  -0.88023  -0.82768  -0.75160  -0.73166
 Alpha  occ. eigenvalues --   -0.67345  -0.66314  -0.65495  -0.64556  -0.63153
 Alpha  occ. eigenvalues --   -0.60638  -0.59476  -0.56375  -0.55755  -0.55337
 Alpha  occ. eigenvalues --   -0.54288  -0.52633  -0.50605  -0.50348  -0.48818
 Alpha  occ. eigenvalues --   -0.48672  -0.46842  -0.42828  -0.42328  -0.38525
 Alpha  occ. eigenvalues --   -0.36895
 Alpha virt. eigenvalues --    0.03499   0.03567   0.04661   0.04916   0.05371
 Alpha virt. eigenvalues --    0.05625   0.05853   0.06988   0.07313   0.07534
 Alpha virt. eigenvalues --    0.08184   0.08883   0.09738   0.10517   0.11176
 Alpha virt. eigenvalues --    0.11501   0.11983   0.12274   0.13266   0.13456
 Alpha virt. eigenvalues --    0.14088   0.14304   0.14949   0.15173   0.15453
 Alpha virt. eigenvalues --    0.15898   0.16084   0.16838   0.17079   0.17278
 Alpha virt. eigenvalues --    0.17319   0.17975   0.18333   0.18879   0.19296
 Alpha virt. eigenvalues --    0.19336   0.20415   0.20670   0.21156   0.21637
 Alpha virt. eigenvalues --    0.22093   0.22313   0.23052   0.23427   0.24367
 Alpha virt. eigenvalues --    0.24625   0.25371   0.26565   0.27076   0.27404
 Alpha virt. eigenvalues --    0.27774   0.28915   0.29841   0.31022   0.31718
 Alpha virt. eigenvalues --    0.32486   0.32658   0.33585   0.34089   0.34534
 Alpha virt. eigenvalues --    0.34811   0.35360   0.35998   0.36587   0.36694
 Alpha virt. eigenvalues --    0.37668   0.37892   0.38337   0.39089   0.39822
 Alpha virt. eigenvalues --    0.40580   0.41114   0.41829   0.42282   0.43481
 Alpha virt. eigenvalues --    0.44215   0.44241   0.44738   0.45342   0.45681
 Alpha virt. eigenvalues --    0.46309   0.47110   0.47400   0.48004   0.48325
 Alpha virt. eigenvalues --    0.48849   0.49450   0.49657   0.50000   0.50675
 Alpha virt. eigenvalues --    0.50964   0.52035   0.52789   0.53398   0.53921
 Alpha virt. eigenvalues --    0.54512   0.55279   0.55916   0.56556   0.56808
 Alpha virt. eigenvalues --    0.57080   0.57463   0.58552   0.59360   0.59644
 Alpha virt. eigenvalues --    0.60531   0.61097   0.61245   0.61938   0.62233
 Alpha virt. eigenvalues --    0.63104   0.63187   0.64194   0.64294   0.65052
 Alpha virt. eigenvalues --    0.65834   0.65921   0.66922   0.67547   0.68576
 Alpha virt. eigenvalues --    0.68970   0.70610   0.70931   0.71737   0.72028
 Alpha virt. eigenvalues --    0.72683   0.73377   0.74440   0.74945   0.75589
 Alpha virt. eigenvalues --    0.75897   0.76845   0.77100   0.77888   0.78691
 Alpha virt. eigenvalues --    0.79463   0.79992   0.80239   0.81987   0.82245
 Alpha virt. eigenvalues --    0.82647   0.84012   0.84620   0.85207   0.85521
 Alpha virt. eigenvalues --    0.87103   0.87865   0.88108   0.89076   0.89367
 Alpha virt. eigenvalues --    0.90369   0.91226   0.91919   0.92974   0.94525
 Alpha virt. eigenvalues --    0.94930   0.95469   0.98972   0.99369   1.00448
 Alpha virt. eigenvalues --    1.00892   1.02182   1.03651   1.05017   1.06604
 Alpha virt. eigenvalues --    1.08036   1.08209   1.09118   1.10572   1.11176
 Alpha virt. eigenvalues --    1.11581   1.12036   1.14268   1.15185   1.16528
 Alpha virt. eigenvalues --    1.17427   1.18293   1.18949   1.20768   1.21257
 Alpha virt. eigenvalues --    1.22486   1.23638   1.24754   1.24857   1.26608
 Alpha virt. eigenvalues --    1.26854   1.28227   1.28369   1.29570   1.31138
 Alpha virt. eigenvalues --    1.32324   1.33747   1.35031   1.35358   1.36353
 Alpha virt. eigenvalues --    1.37227   1.38130   1.40858   1.41133   1.42609
 Alpha virt. eigenvalues --    1.44215   1.44963   1.47304   1.47946   1.51668
 Alpha virt. eigenvalues --    1.51996   1.52691   1.55039   1.55964   1.57953
 Alpha virt. eigenvalues --    1.58849   1.59220   1.60852   1.61623   1.62960
 Alpha virt. eigenvalues --    1.64344   1.68306   1.70407   1.71452   1.73685
 Alpha virt. eigenvalues --    1.77739   1.78389   1.79622   1.81694   1.82900
 Alpha virt. eigenvalues --    1.84268   1.84769   1.85843   1.86633   1.89119
 Alpha virt. eigenvalues --    1.90977   1.91812   1.93679   1.95464   1.96647
 Alpha virt. eigenvalues --    1.97548   1.98515   1.99455   2.01282   2.02287
 Alpha virt. eigenvalues --    2.04417   2.05614   2.06546   2.07574   2.09210
 Alpha virt. eigenvalues --    2.11839   2.12339   2.12917   2.14373   2.14533
 Alpha virt. eigenvalues --    2.15932   2.18554   2.19564   2.21153   2.22632
 Alpha virt. eigenvalues --    2.22952   2.23734   2.24184   2.27193   2.27785
 Alpha virt. eigenvalues --    2.29183   2.30082   2.31198   2.33489   2.34474
 Alpha virt. eigenvalues --    2.36514   2.37113   2.38722   2.39643   2.42459
 Alpha virt. eigenvalues --    2.44696   2.46319   2.47393   2.50804   2.51546
 Alpha virt. eigenvalues --    2.53744   2.55840   2.57254   2.58892   2.62221
 Alpha virt. eigenvalues --    2.63596   2.65102   2.67054   2.71518   2.73419
 Alpha virt. eigenvalues --    2.74412   2.75095   2.79033   2.83469   2.87556
 Alpha virt. eigenvalues --    2.89890   2.92251   2.94399   2.96501   2.98235
 Alpha virt. eigenvalues --    3.00713   3.03174   3.04403   3.09914   3.11408
 Alpha virt. eigenvalues --    3.13767   3.14537   3.20461   3.23958   3.28450
 Alpha virt. eigenvalues --    3.32644   3.39136   3.42831   3.77792   3.80366
 Alpha virt. eigenvalues --    3.82759   3.86670   3.86926   3.89990   3.92937
 Alpha virt. eigenvalues --    3.97067   4.15679   4.16664
          Condensed to atoms (all electrons):
 Mulliken charges:
               1
     1  C    0.236634
     2  O   -0.698275
     3  S    0.047097
     4  S    0.030752
     5  C    0.483401
     6  O   -0.776618
     7  C   -0.011396
     8  C    0.183135
     9  C    0.308748
    10  H   -0.111856
    11  H    0.049264
    12  C    0.425425
    13  H   -0.104472
    14  H   -0.132848
    15  H   -0.143217
    16  H   -0.091935
    17  H   -0.090063
    18  C    0.503063
    19  H    0.075699
    20  H   -0.016369
    21  H   -0.048437
    22  H   -0.048958
    23  H   -0.068777
 Sum of Mulliken charges =  -0.00000
 Mulliken charges with hydrogens summed into heavy atoms:
               1
     1  C    0.236634
     2  O   -0.698275
     3  S    0.047097
     4  S    0.030752
     5  C    0.483401
     6  O   -0.776618
     7  C    0.047935
     8  C    0.120543
     9  C    0.071428
    12  C    0.100210
    18  C    0.336892
 Electronic spatial extent (au):  <R**2>=           3008.9468
 Charge=             -0.0000 electrons
 Dipole moment (field-independent basis, Debye):
    X=             -0.1024    Y=             -0.1965    Z=             -0.1037  Tot=              0.2446
 Unable to Open any file for archive entry.
 1\1\GINC-SE339\Stability\RHF\Aug-CC-pVDZ\C7H12O2S2\OHZDE\09-Apr-2025\0
 \\#t hf aug-cc-pvdz symm=none int=(grid=ultrafine) guess=(read,tcheck)
  stable=(opt,rrhf)\\title\\0,1\C,0,-1.897561,0.218472,-0.133468\O,0,-1
 .255079,1.076375,-0.660843\S,0,-1.310155,-1.520554,0.044525\S,0,0.5730
 8,-1.417042,-0.800174\C,0,1.534712,-0.564916,0.511317\O,0,1.050133,-0.
 176708,1.53299\C,0,-3.259169,0.404891,0.51287\C,0,2.993333,-0.398558,0
 .120049\C,0,3.48613,1.040247,0.352374\H,0,3.147785,-0.70396,-0.919562\
 H,0,3.556155,-1.097443,0.749559\C,0,2.847921,2.058422,-0.596898\H,0,4.
 57438,1.05126,0.236778\H,0,3.273278,1.30981,1.390176\H,0,1.75967,2.075
 475,-0.494803\H,0,3.080346,1.826383,-1.640842\H,0,3.217817,3.065692,-0
 .390111\C,0,-3.991944,1.645524,0.000973\H,0,-3.072238,0.481392,1.59089
 6\H,0,-3.853584,-0.503252,0.372032\H,0,-3.381795,2.538641,0.139887\H,0
 ,-4.932387,1.777973,0.539989\H,0,-4.217187,1.557742,-1.064078\\Version
 =ES64L-G16RevC.01\HF=-1216.9243181\RMSD=4.665e-09\Dipole=-0.0402764,-0
 .0773038,-0.0408007\Quadrupole=11.7872525,-5.0947268,-6.6925257,-1.072
 5689,-2.6739188,1.0380483\PG=Unknown\\@
 The archive entry for this job was punched.


 This summer one third of the nation will be ill-housed
 ill-nourished and ill-clad. Only they call it a vacation.
 -- Jonas Salk
 Job cpu time:       0 days  0 hours 55 minutes 18.1 seconds.
 Elapsed time:       0 days  0 hours  3 minutes 36.5 seconds.
 File lengths (MBytes):  RWF=    656 Int=      0 D2E=      0 Chk=     19 Scr=      1
 Normal termination of Gaussian 16 at Wed Apr  9 00:28:12 2025.
 Initial command:
 /arc/software/Gaussian/g16.c01/l1.exe "/tmp/slurm/4853327/Gau-976409.inp" -scrdir="/tmp/slurm/4853327/"
 Entering Link 1 = /arc/software/Gaussian/g16.c01/l1.exe PID=    977063.
  
 Copyright (c) 1988-2019, Gaussian, Inc.  All Rights Reserved.
  
 This is part of the Gaussian(R) 16 program.  It is based on
 the Gaussian(R) 09 system (copyright 2009, Gaussian, Inc.),
 the Gaussian(R) 03 system (copyright 2003, Gaussian, Inc.),
 the Gaussian(R) 98 system (copyright 1998, Gaussian, Inc.),
 the Gaussian(R) 94 system (copyright 1995, Gaussian, Inc.),
 the Gaussian 92(TM) system (copyright 1992, Gaussian, Inc.),
 the Gaussian 90(TM) system (copyright 1990, Gaussian, Inc.),
 the Gaussian 88(TM) system (copyright 1988, Gaussian, Inc.),
 the Gaussian 86(TM) system (copyright 1986, Carnegie Mellon
 University), and the Gaussian 82(TM) system (copyright 1983,
 Carnegie Mellon University). Gaussian is a federally registered
 trademark of Gaussian, Inc.
  
 This software contains proprietary and confidential information,
 including trade secrets, belonging to Gaussian, Inc.
  
 This software is provided under written license and may be
 used, copied, transmitted, or stored only in accord with that
 written license.
  
 The following legend is applicable only to US Government
 contracts under FAR:
  
                    RESTRICTED RIGHTS LEGEND
  
 Use, reproduction and disclosure by the US Government is
 subject to restrictions as set forth in subparagraphs (a)
 and (c) of the Commercial Computer Software - Restricted
 Rights clause in FAR 52.227-19.
  
 Gaussian, Inc.
 340 Quinnipiac St., Bldg. 40, Wallingford CT 06492
  
  
 ---------------------------------------------------------------
 Warning -- This program may not be used in any manner that
 competes with the business of Gaussian, Inc. or will provide
 assistance to any competitor of Gaussian, Inc.  The licensee
 of this program is prohibited from giving any competitor of
 Gaussian, Inc. access to this program.  By using this program,
 the user acknowledges that Gaussian, Inc. is engaged in the
 business of creating and licensing software in the field of
 computational chemistry and represents and warrants to the
 licensee that it is not a competitor of Gaussian, Inc. and that
 it will not use this program in any manner prohibited above.
 ---------------------------------------------------------------
  

 Cite this work as:
 Gaussian 16, Revision C.01,
 M. J. Frisch, G. W. Trucks, H. B. Schlegel, G. E. Scuseria, 
 M. A. Robb, J. R. Cheeseman, G. Scalmani, V. Barone, 
 G. A. Petersson, H. Nakatsuji, X. Li, M. Caricato, A. V. Marenich, 
 J. Bloino, B. G. Janesko, R. Gomperts, B. Mennucci, H. P. Hratchian, 
 J. V. Ortiz, A. F. Izmaylov, J. L. Sonnenberg, D. Williams-Young, 
 F. Ding, F. Lipparini, F. Egidi, J. Goings, B. Peng, A. Petrone, 
 T. Henderson, D. Ranasinghe, V. G. Zakrzewski, J. Gao, N. Rega, 
 G. Zheng, W. Liang, M. Hada, M. Ehara, K. Toyota, R. Fukuda, 
 J. Hasegawa, M. Ishida, T. Nakajima, Y. Honda, O. Kitao, H. Nakai, 
 T. Vreven, K. Throssell, J. A. Montgomery, Jr., J. E. Peralta, 
 F. Ogliaro, M. J. Bearpark, J. J. Heyd, E. N. Brothers, K. N. Kudin, 
 V. N. Staroverov, T. A. Keith, R. Kobayashi, J. Normand, 
 K. Raghavachari, A. P. Rendell, J. C. Burant, S. S. Iyengar, 
 J. Tomasi, M. Cossi, J. M. Millam, M. Klene, C. Adamo, R. Cammi, 
 J. W. Ochterski, R. L. Martin, K. Morokuma, O. Farkas, 
 J. B. Foresman, and D. J. Fox, Gaussian, Inc., Wallingford CT, 2019.
 
 ******************************************
 Gaussian 16:  ES64L-G16RevC.01  3-Jul-2019
                 9-Apr-2025 
 ******************************************
 %nprocs=16
 Will use up to   16 processors via shared memory.
 %mem=30GB
 %chk=BDE49_nonexpt_2717_mol1.chk
 ----------------------------------------------------------------------
 #t hf aug-cc-pvdz iop(5/13=1,5/36=2,99/5=2) pseudo=read geom=check gue
 ss=(read,tcheck) scf=(maxcycle=1)
 ----------------------------------------------------------------------
 -----
 title
 -----
 Structure from the checkpoint file:  "BDE49_nonexpt_2717_mol1.chk"
 Charge =  0 Multiplicity = 1
 Z-Matrix found in chk file.
 C,0,-1.897561,0.218472,-0.133468
 O,0,-1.255079,1.076375,-0.660843
 S,0,-1.310155,-1.520554,0.044525
 S,0,0.57308,-1.417042,-0.800174
 C,0,1.534712,-0.564916,0.511317
 O,0,1.050133,-0.176708,1.53299
 C,0,-3.259169,0.404891,0.51287
 C,0,2.993333,-0.398558,0.120049
 C,0,3.48613,1.040247,0.352374
 H,0,3.147785,-0.70396,-0.919562
 H,0,3.556155,-1.097443,0.749559
 C,0,2.847921,2.058422,-0.596898
 H,0,4.57438,1.05126,0.236778
 H,0,3.273278,1.30981,1.390176
 H,0,1.75967,2.075475,-0.494803
 H,0,3.080346,1.826383,-1.640842
 H,0,3.217817,3.065692,-0.390111
 C,0,-3.991944,1.645524,0.000973
 H,0,-3.072238,0.481392,1.590896
 H,0,-3.853584,-0.503252,0.372032
 H,0,-3.381795,2.538641,0.139887
 H,0,-4.932387,1.777973,0.539989
 H,0,-4.217187,1.557742,-1.064078
 Recover connectivity data from disk.
                    Distance matrix (angstroms):
                    1          2          3          4          5
     1  C    0.000000
     2  O    1.194531   0.000000
     3  S    1.844163   2.691583   0.000000
     4  S    3.037017   3.094949   2.066593   0.000000
     5  C    3.579098   3.442489   3.037171   1.835991   0.000000
     6  O    3.409127   3.420106   3.097162   2.685081   1.195549
     7  C    1.518710   2.417617   2.779450   4.441808   4.890994
     8  C    4.936177   4.564452   4.447987   2.782399   1.519322
     9  C    5.467676   4.848399   5.445808   3.981519   2.531767
    10  H    5.188867   4.756232   4.633521   2.674293   2.160730
    11  H    5.679295   5.464677   4.935288   3.376767   2.103943
    12  C    5.110752   4.219374   5.523594   4.158735   3.136010
    13  H    6.535797   5.898216   6.424869   4.814373   3.453546
    14  H    5.500008   4.976664   5.552440   4.418645   2.703628
    15  H    4.117567   3.180327   4.758794   3.701206   2.834528
    16  H    5.443998   4.507640   5.772257   4.184843   3.569185
    17  H    5.860002   4.902803   6.459496   5.220890   4.102040
    18  C    2.537911   2.872692   4.149450   5.555231   5.974146
    19  H    2.102956   2.954048   3.082854   4.754956   4.846054
    20  H    2.145330   3.211585   2.758839   4.669522   5.390449
    21  H    2.767825   2.702279   4.558273   5.672052   5.825982
    22  H    3.477895   3.931518   4.924056   6.504946   6.878468
    23  H    2.835550   3.027936   4.376727   5.644966   6.330236
                    6          7          8          9         10
     6  O    0.000000
     7  C    4.466429   0.000000
     8  C    2.412809   6.316140   0.000000
     9  C    2.967982   6.777057   1.538500   0.000000
    10  H    3.270038   6.658113   1.094494   2.185076   0.000000
    11  H    2.782384   6.982956   1.096126   2.175403   1.762827
    12  C    3.572712   6.423574   2.563573   1.531375   2.797282
    13  H    3.950745   7.865018   2.148327   1.094428   2.540294
    14  H    2.678153   6.652925   2.147117   1.093162   3.066905
    15  H    3.112510   5.384701   2.832103   2.184049   3.135689
    16  H    4.267007   6.844601   2.838780   2.180729   2.632001
    17  H    4.348601   7.060211   3.508801   2.173868   3.807296
    18  C    5.575854   1.529107   7.279186   7.510755   7.572529
    19  H    4.174972   1.096784   6.303083   6.697645   6.811472
    20  H    5.049841   1.094481   6.852352   7.500278   7.122336
    21  H    5.381063   2.169572   7.019244   7.032690   7.366974
    22  H    6.371607   2.164659   8.229865   8.452861   8.577847
    23  H    6.123540   2.175690   7.564447   7.849537   7.705777
                   11         12         13         14         15
    11  H    0.000000
    12  C    3.503431   0.000000
    13  H    2.432417   2.165653   0.000000
    14  H    2.507045   2.165597   1.757851   0.000000
    15  H    3.852688   1.093163   3.083313   2.535823   0.000000
    16  H    3.806464   1.094387   2.521589   3.080769   1.766250
    17  H    4.329551   1.092784   2.508224   2.501124   1.765696
    18  C    8.065857   6.878349   8.590149   7.404461   5.788930
    19  H    6.865578   6.505517   7.786472   6.402510   5.498961
    20  H    7.443106   7.239556   8.571195   7.424013   6.237777
    21  H    7.856714   6.291488   8.094591   6.882096   5.201155
    22  H    8.964780   7.867932   9.539322   8.262865   6.778121
    23  H    8.412142   7.098217   8.901708   7.886184   6.026188
                   16         17         18         19         20
    16  H    0.000000
    17  H    1.766101   0.000000
    18  C    7.262613   7.358701   0.000000
    19  H    7.078660   7.082922   2.174607   0.000000
    20  H    7.586715   7.957571   2.184964   1.750901   0.000000
    21  H    6.740740   6.641804   1.090521   2.536440   3.087003
    22  H    8.304352   8.303561   1.092023   2.499136   2.529034
    23  H    7.325218   7.616261   1.092142   3.085178   2.538172
                   21         22         23
    21  H    0.000000
    22  H    1.772860   0.000000
    23  H    1.763399   1.770041   0.000000
 Framework group  C1[X(C7H12O2S2)]
 Deg. of freedom    63
                         Standard orientation:                         
 ---------------------------------------------------------------------
 Center     Atomic      Atomic             Coordinates (Angstroms)
 Number     Number       Type             X           Y           Z
 ---------------------------------------------------------------------
      1          6           0       -1.897561    0.218472   -0.133468
      2          8           0       -1.255079    1.076375   -0.660843
      3         16           0       -1.310155   -1.520554    0.044525
      4         16           0        0.573080   -1.417042   -0.800174
      5          6           0        1.534712   -0.564916    0.511317
      6          8           0        1.050133   -0.176708    1.532990
      7          6           0       -3.259169    0.404891    0.512870
      8          6           0        2.993333   -0.398558    0.120049
      9          6           0        3.486130    1.040247    0.352374
     10          1           0        3.147785   -0.703960   -0.919562
     11          1           0        3.556155   -1.097443    0.749559
     12          6           0        2.847921    2.058422   -0.596898
     13          1           0        4.574380    1.051260    0.236778
     14          1           0        3.273278    1.309810    1.390176
     15          1           0        1.759670    2.075475   -0.494803
     16          1           0        3.080346    1.826383   -1.640842
     17          1           0        3.217817    3.065692   -0.390111
     18          6           0       -3.991944    1.645524    0.000973
     19          1           0       -3.072238    0.481392    1.590896
     20          1           0       -3.853584   -0.503252    0.372032
     21          1           0       -3.381795    2.538641    0.139887
     22          1           0       -4.932387    1.777973    0.539989
     23          1           0       -4.217187    1.557742   -1.064078
 ---------------------------------------------------------------------
 Rotational constants (GHZ):           1.3182334           0.4622112           0.3886079
 ======================================================================================================
                                       Pseudopotential Parameters
 ======================================================================================================
  Center     Atomic      Valence      Angular      Power
  Number     Number     Electrons     Momentum     of R      Exponent        Coefficient   SO-Coeffient
 ======================================================================================================
    1          6            6
                                      G and up 
                                                     0        0.0000010       -0.00007288    0.00000000
                                                     2        0.1200000        0.10466671    0.00000000
                                                     2        0.1400000       -0.65716157    0.00000000
                                                     2        0.1600000        1.18890794    0.00000000
                                                     2        0.2000000       -1.25772850    0.00000000
                                                     2        0.2600000        1.01188378    0.00000000
                                                     2        0.4000000       -1.09380874    0.00000000
                                                     2        0.5000000        0.96944888    0.00000000
                                                     2        1.0000000       -0.79256938    0.00000000
                                                     2        3.0000000        1.06443276    0.00000000
                                      S - G
                                                     0        0.0000010       -0.00635295    0.00000000
                                                     2        0.1200000        0.16918955    0.00000000
                                                     2        0.1600000       -0.38862576    0.00000000
                                                     2        0.2800000        0.25638263    0.00000000
                                                     2        0.5000000        0.29628419    0.00000000
                                                     2        0.9000000       -0.28791512    0.00000000
                                      P - G
                                                     0        0.0000010       -0.04756931    0.00000000
                                                     2        0.1200000        0.28430375    0.00000000
                                                     2        0.1600000       -0.69640032    0.00000000
                                                     2        0.2600000        1.13005668    0.00000000
                                                     2        0.4000000       -1.31433324    0.00000000
                                                     2        0.7000000        0.91526469    0.00000000
                                      D - G
                                                     0        0.0000010       -0.11496411    0.00000000
                                                     2        0.1200000        0.16620776    0.00000000
                                                     2        0.1800000       -0.30959819    0.00000000
                                                     2        0.3000000        0.16621458    0.00000000
                                                     2        0.6000000        0.27350556    0.00000000
                                      F - G
                                                     0        0.0000010        0.12037550    0.00000000
                                                     2        0.1200000       -0.48737077    0.00000000
                                                     2        0.1400000        0.58315350    0.00000000
                                                     2        0.3000000        0.00005188    0.00000000
                                                     2        0.5000000       -1.16063549    0.00000000
                                                     2        0.8000000        2.09053308    0.00000000
    2          8            8
                                      G and up 
                                                     0        0.0000010        0.00049668    0.00000000
                                                     2        0.1200000       -0.01803391    0.00000000
                                                     2        0.1400000        0.04014195    0.00000000
                                                     2        0.2000000       -0.02692147    0.00000000
                                                     2        0.2800000       -0.04241843    0.00000000
                                                     2        0.4000000        0.15412145    0.00000000
                                                     2        0.7000000       -0.40587006    0.00000000
                                                     2        1.1000000        1.75666647    0.00000000
                                      S - G
                                                     0        0.0000010       -0.01088195    0.00000000
                                                     2        0.1200000        0.09867335    0.00000000
                                                     2        0.2400000       -0.08484177    0.00000000
                                                     2        0.6000000       -1.39011554    0.00000000
                                                     2        2.5000000        1.36225910    0.00000000
                                      P - G
                                                     0        0.0000010        0.05874028    0.00000000
                                                     2        0.1200000       -0.11700340    0.00000000
                                                     2        0.1600000        0.08847775    0.00000000
                                                     2        0.3000000        0.04709907    0.00000000
                                                     2        1.2000000       -1.80388338    0.00000000
                                      D - G
                                                     0        0.0000010       -0.00541262    0.00000000
                                                     2        0.1200000       -0.26547906    0.00000000
                                                     2        0.1600000        1.04289661    0.00000000
                                                     2        0.2400000       -1.92800913    0.00000000
                                                     2        0.4000000        2.26691633    0.00000000
                                                     2        0.7000000       -1.97391482    0.00000000
                                      F - G
                                                     0        0.0000010       -0.02604870    0.00000000
                                                     2        0.1200000        0.37362552    0.00000000
                                                     2        0.1600000       -1.43526367    0.00000000
                                                     2        0.2200000        1.76778079    0.00000000
                                                     2        0.5000000       -1.90846303    0.00000000
    3         16           16
                                      G and up 
                                                     0        0.0000010       -0.00031824    0.00000000
                                                     2        0.1200000       -0.02709645    0.00000000
                                                     2        0.1400000        0.07756871    0.00000000
                                                     2        0.1800000       -0.09276244    0.00000000
                                                     2        0.2400000        0.04926396    0.00000000
                                                     2        0.4000000        0.19256092    0.00000000
                                                     2        0.6000000       -0.68044142    0.00000000
                                                     2        1.2000000        2.88179630    0.00000000
                                      S - G
                                                     0        0.0000010       -0.00682297    0.00000000
                                                     2        0.1200000        0.09894847    0.00000000
                                                     2        0.2400000       -0.09649386    0.00000000
                                                     2        0.5000000       -0.86533519    0.00000000
                                      P - G
                                                     0        0.0000010       -0.03724640    0.00000000
                                                     2        0.1200000        0.13565737    0.00000000
                                                     2        0.1600000       -0.58061535    0.00000000
                                                     2        0.2800000        1.15300814    0.00000000
                                                     2        0.6000000       -1.81693648    0.00000000
                                      D - G
                                                     0        0.0000010       -0.04698793    0.00000000
                                                     2        0.1200000        0.09075241    0.00000000
                                                     2        0.2000000       -0.23702631    0.00000000
                                                     2        0.4000000        0.07730186    0.00000000
                                      F - G
                                                     0        0.0000010        0.08145595    0.00000000
                                                     2        0.1200000       -0.08234030    0.00000000
                                                     2        0.2200000        0.18834854    0.00000000
                                                     2        0.4000000       -0.20344406    0.00000000
    4         16           16
                                      G and up 
                                                     0        0.0000010       -0.00031824    0.00000000
                                                     2        0.1200000       -0.02709645    0.00000000
                                                     2        0.1400000        0.07756871    0.00000000
                                                     2        0.1800000       -0.09276244    0.00000000
                                                     2        0.2400000        0.04926396    0.00000000
                                                     2        0.4000000        0.19256092    0.00000000
                                                     2        0.6000000       -0.68044142    0.00000000
                                                     2        1.2000000        2.88179630    0.00000000
                                      S - G
                                                     0        0.0000010       -0.00682297    0.00000000
                                                     2        0.1200000        0.09894847    0.00000000
                                                     2        0.2400000       -0.09649386    0.00000000
                                                     2        0.5000000       -0.86533519    0.00000000
                                      P - G
                                                     0        0.0000010       -0.03724640    0.00000000
                                                     2        0.1200000        0.13565737    0.00000000
                                                     2        0.1600000       -0.58061535    0.00000000
                                                     2        0.2800000        1.15300814    0.00000000
                                                     2        0.6000000       -1.81693648    0.00000000
                                      D - G
                                                     0        0.0000010       -0.04698793    0.00000000
                                                     2        0.1200000        0.09075241    0.00000000
                                                     2        0.2000000       -0.23702631    0.00000000
                                                     2        0.4000000        0.07730186    0.00000000
                                      F - G
                                                     0        0.0000010        0.08145595    0.00000000
                                                     2        0.1200000       -0.08234030    0.00000000
                                                     2        0.2200000        0.18834854    0.00000000
                                                     2        0.4000000       -0.20344406    0.00000000
    5          6            6
                                      G and up 
                                                     0        0.0000010       -0.00007288    0.00000000
                                                     2        0.1200000        0.10466671    0.00000000
                                                     2        0.1400000       -0.65716157    0.00000000
                                                     2        0.1600000        1.18890794    0.00000000
                                                     2        0.2000000       -1.25772850    0.00000000
                                                     2        0.2600000        1.01188378    0.00000000
                                                     2        0.4000000       -1.09380874    0.00000000
                                                     2        0.5000000        0.96944888    0.00000000
                                                     2        1.0000000       -0.79256938    0.00000000
                                                     2        3.0000000        1.06443276    0.00000000
                                      S - G
                                                     0        0.0000010       -0.00635295    0.00000000
                                                     2        0.1200000        0.16918955    0.00000000
                                                     2        0.1600000       -0.38862576    0.00000000
                                                     2        0.2800000        0.25638263    0.00000000
                                                     2        0.5000000        0.29628419    0.00000000
                                                     2        0.9000000       -0.28791512    0.00000000
                                      P - G
                                                     0        0.0000010       -0.04756931    0.00000000
                                                     2        0.1200000        0.28430375    0.00000000
                                                     2        0.1600000       -0.69640032    0.00000000
                                                     2        0.2600000        1.13005668    0.00000000
                                                     2        0.4000000       -1.31433324    0.00000000
                                                     2        0.7000000        0.91526469    0.00000000
                                      D - G
                                                     0        0.0000010       -0.11496411    0.00000000
                                                     2        0.1200000        0.16620776    0.00000000
                                                     2        0.1800000       -0.30959819    0.00000000
                                                     2        0.3000000        0.16621458    0.00000000
                                                     2        0.6000000        0.27350556    0.00000000
                                      F - G
                                                     0        0.0000010        0.12037550    0.00000000
                                                     2        0.1200000       -0.48737077    0.00000000
                                                     2        0.1400000        0.58315350    0.00000000
                                                     2        0.3000000        0.00005188    0.00000000
                                                     2        0.5000000       -1.16063549    0.00000000
                                                     2        0.8000000        2.09053308    0.00000000
    6          8            8
                                      G and up 
                                                     0        0.0000010        0.00049668    0.00000000
                                                     2        0.1200000       -0.01803391    0.00000000
                                                     2        0.1400000        0.04014195    0.00000000
                                                     2        0.2000000       -0.02692147    0.00000000
                                                     2        0.2800000       -0.04241843    0.00000000
                                                     2        0.4000000        0.15412145    0.00000000
                                                     2        0.7000000       -0.40587006    0.00000000
                                                     2        1.1000000        1.75666647    0.00000000
                                      S - G
                                                     0        0.0000010       -0.01088195    0.00000000
                                                     2        0.1200000        0.09867335    0.00000000
                                                     2        0.2400000       -0.08484177    0.00000000
                                                     2        0.6000000       -1.39011554    0.00000000
                                                     2        2.5000000        1.36225910    0.00000000
                                      P - G
                                                     0        0.0000010        0.05874028    0.00000000
                                                     2        0.1200000       -0.11700340    0.00000000
                                                     2        0.1600000        0.08847775    0.00000000
                                                     2        0.3000000        0.04709907    0.00000000
                                                     2        1.2000000       -1.80388338    0.00000000
                                      D - G
                                                     0        0.0000010       -0.00541262    0.00000000
                                                     2        0.1200000       -0.26547906    0.00000000
                                                     2        0.1600000        1.04289661    0.00000000
                                                     2        0.2400000       -1.92800913    0.00000000
                                                     2        0.4000000        2.26691633    0.00000000
                                                     2        0.7000000       -1.97391482    0.00000000
                                      F - G
                                                     0        0.0000010       -0.02604870    0.00000000
                                                     2        0.1200000        0.37362552    0.00000000
                                                     2        0.1600000       -1.43526367    0.00000000
                                                     2        0.2200000        1.76778079    0.00000000
                                                     2        0.5000000       -1.90846303    0.00000000
    7          6            6
                                      G and up 
                                                     0        0.0000010       -0.00007288    0.00000000
                                                     2        0.1200000        0.10466671    0.00000000
                                                     2        0.1400000       -0.65716157    0.00000000
                                                     2        0.1600000        1.18890794    0.00000000
                                                     2        0.2000000       -1.25772850    0.00000000
                                                     2        0.2600000        1.01188378    0.00000000
                                                     2        0.4000000       -1.09380874    0.00000000
                                                     2        0.5000000        0.96944888    0.00000000
                                                     2        1.0000000       -0.79256938    0.00000000
                                                     2        3.0000000        1.06443276    0.00000000
                                      S - G
                                                     0        0.0000010       -0.00635295    0.00000000
                                                     2        0.1200000        0.16918955    0.00000000
                                                     2        0.1600000       -0.38862576    0.00000000
                                                     2        0.2800000        0.25638263    0.00000000
                                                     2        0.5000000        0.29628419    0.00000000
                                                     2        0.9000000       -0.28791512    0.00000000
                                      P - G
                                                     0        0.0000010       -0.04756931    0.00000000
                                                     2        0.1200000        0.28430375    0.00000000
                                                     2        0.1600000       -0.69640032    0.00000000
                                                     2        0.2600000        1.13005668    0.00000000
                                                     2        0.4000000       -1.31433324    0.00000000
                                                     2        0.7000000        0.91526469    0.00000000
                                      D - G
                                                     0        0.0000010       -0.11496411    0.00000000
                                                     2        0.1200000        0.16620776    0.00000000
                                                     2        0.1800000       -0.30959819    0.00000000
                                                     2        0.3000000        0.16621458    0.00000000
                                                     2        0.6000000        0.27350556    0.00000000
                                      F - G
                                                     0        0.0000010        0.12037550    0.00000000
                                                     2        0.1200000       -0.48737077    0.00000000
                                                     2        0.1400000        0.58315350    0.00000000
                                                     2        0.3000000        0.00005188    0.00000000
                                                     2        0.5000000       -1.16063549    0.00000000
                                                     2        0.8000000        2.09053308    0.00000000
    8          6            6
                                      G and up 
                                                     0        0.0000010       -0.00007288    0.00000000
                                                     2        0.1200000        0.10466671    0.00000000
                                                     2        0.1400000       -0.65716157    0.00000000
                                                     2        0.1600000        1.18890794    0.00000000
                                                     2        0.2000000       -1.25772850    0.00000000
                                                     2        0.2600000        1.01188378    0.00000000
                                                     2        0.4000000       -1.09380874    0.00000000
                                                     2        0.5000000        0.96944888    0.00000000
                                                     2        1.0000000       -0.79256938    0.00000000
                                                     2        3.0000000        1.06443276    0.00000000
                                      S - G
                                                     0        0.0000010       -0.00635295    0.00000000
                                                     2        0.1200000        0.16918955    0.00000000
                                                     2        0.1600000       -0.38862576    0.00000000
                                                     2        0.2800000        0.25638263    0.00000000
                                                     2        0.5000000        0.29628419    0.00000000
                                                     2        0.9000000       -0.28791512    0.00000000
                                      P - G
                                                     0        0.0000010       -0.04756931    0.00000000
                                                     2        0.1200000        0.28430375    0.00000000
                                                     2        0.1600000       -0.69640032    0.00000000
                                                     2        0.2600000        1.13005668    0.00000000
                                                     2        0.4000000       -1.31433324    0.00000000
                                                     2        0.7000000        0.91526469    0.00000000
                                      D - G
                                                     0        0.0000010       -0.11496411    0.00000000
                                                     2        0.1200000        0.16620776    0.00000000
                                                     2        0.1800000       -0.30959819    0.00000000
                                                     2        0.3000000        0.16621458    0.00000000
                                                     2        0.6000000        0.27350556    0.00000000
                                      F - G
                                                     0        0.0000010        0.12037550    0.00000000
                                                     2        0.1200000       -0.48737077    0.00000000
                                                     2        0.1400000        0.58315350    0.00000000
                                                     2        0.3000000        0.00005188    0.00000000
                                                     2        0.5000000       -1.16063549    0.00000000
                                                     2        0.8000000        2.09053308    0.00000000
    9          6            6
                                      G and up 
                                                     0        0.0000010       -0.00007288    0.00000000
                                                     2        0.1200000        0.10466671    0.00000000
                                                     2        0.1400000       -0.65716157    0.00000000
                                                     2        0.1600000        1.18890794    0.00000000
                                                     2        0.2000000       -1.25772850    0.00000000
                                                     2        0.2600000        1.01188378    0.00000000
                                                     2        0.4000000       -1.09380874    0.00000000
                                                     2        0.5000000        0.96944888    0.00000000
                                                     2        1.0000000       -0.79256938    0.00000000
                                                     2        3.0000000        1.06443276    0.00000000
                                      S - G
                                                     0        0.0000010       -0.00635295    0.00000000
                                                     2        0.1200000        0.16918955    0.00000000
                                                     2        0.1600000       -0.38862576    0.00000000
                                                     2        0.2800000        0.25638263    0.00000000
                                                     2        0.5000000        0.29628419    0.00000000
                                                     2        0.9000000       -0.28791512    0.00000000
                                      P - G
                                                     0        0.0000010       -0.04756931    0.00000000
                                                     2        0.1200000        0.28430375    0.00000000
                                                     2        0.1600000       -0.69640032    0.00000000
                                                     2        0.2600000        1.13005668    0.00000000
                                                     2        0.4000000       -1.31433324    0.00000000
                                                     2        0.7000000        0.91526469    0.00000000
                                      D - G
                                                     0        0.0000010       -0.11496411    0.00000000
                                                     2        0.1200000        0.16620776    0.00000000
                                                     2        0.1800000       -0.30959819    0.00000000
                                                     2        0.3000000        0.16621458    0.00000000
                                                     2        0.6000000        0.27350556    0.00000000
                                      F - G
                                                     0        0.0000010        0.12037550    0.00000000
                                                     2        0.1200000       -0.48737077    0.00000000
                                                     2        0.1400000        0.58315350    0.00000000
                                                     2        0.3000000        0.00005188    0.00000000
                                                     2        0.5000000       -1.16063549    0.00000000
                                                     2        0.8000000        2.09053308    0.00000000
   10          1            1
                                      F and up 
                                                     0        0.0000010       -0.00007675    0.00000000
                                                     2        0.1200000        0.05352699    0.00000000
                                                     2        0.1400000       -0.25123645    0.00000000
                                                     2        0.1600000        0.32188106    0.00000000
                                                     2        0.2200000       -0.25206857    0.00000000
                                                     2        0.3000000        0.19290477    0.00000000
                                                     2        0.5000000       -0.10129770    0.00000000
                                                     2        0.9000000        0.00314995    0.00000000
                                                     2        1.5000000        0.18401192    0.00000000
                                      S - F
                                                     0        0.0000010        0.08065976    0.00000000
                                                     2        0.1200000       -0.09231673    0.00000000
                                                     2        0.1600000       -0.03278082    0.00000000
                                                     2        0.2800000        0.38423402    0.00000000
                                                     2        0.6000000       -1.09357590    0.00000000
                                                     2        1.1000000        1.53099489    0.00000000
                                                     2        3.0000000       -2.63300202    0.00000000
                                      P - F
                                                     0        0.0000010       -0.11638665    0.00000000
                                                     2        0.1200000        0.35468655    0.00000000
                                                     2        0.1600000       -0.59160923    0.00000000
                                                     2        0.3000000        0.49390547    0.00000000
                                                     2        0.6000000       -0.37949835    0.00000000
                                                     2        1.6000000        0.89304688    0.00000000
                                      D - F
                                                     0        0.0000010        0.05443663    0.00000000
                                                     2        0.1200000       -0.29679479    0.00000000
                                                     2        0.1400000        0.36849872    0.00000000
                                                     2        0.2400000        0.02793449    0.00000000
                                                     2        0.4000000       -0.46312857    0.00000000
                                                     2        0.7000000        0.97587598    0.00000000
                                                     2        1.5000000       -2.43431102    0.00000000
   11          1            1
                                      F and up 
                                                     0        0.0000010       -0.00007675    0.00000000
                                                     2        0.1200000        0.05352699    0.00000000
                                                     2        0.1400000       -0.25123645    0.00000000
                                                     2        0.1600000        0.32188106    0.00000000
                                                     2        0.2200000       -0.25206857    0.00000000
                                                     2        0.3000000        0.19290477    0.00000000
                                                     2        0.5000000       -0.10129770    0.00000000
                                                     2        0.9000000        0.00314995    0.00000000
                                                     2        1.5000000        0.18401192    0.00000000
                                      S - F
                                                     0        0.0000010        0.08065976    0.00000000
                                                     2        0.1200000       -0.09231673    0.00000000
                                                     2        0.1600000       -0.03278082    0.00000000
                                                     2        0.2800000        0.38423402    0.00000000
                                                     2        0.6000000       -1.09357590    0.00000000
                                                     2        1.1000000        1.53099489    0.00000000
                                                     2        3.0000000       -2.63300202    0.00000000
                                      P - F
                                                     0        0.0000010       -0.11638665    0.00000000
                                                     2        0.1200000        0.35468655    0.00000000
                                                     2        0.1600000       -0.59160923    0.00000000
                                                     2        0.3000000        0.49390547    0.00000000
                                                     2        0.6000000       -0.37949835    0.00000000
                                                     2        1.6000000        0.89304688    0.00000000
                                      D - F
                                                     0        0.0000010        0.05443663    0.00000000
                                                     2        0.1200000       -0.29679479    0.00000000
                                                     2        0.1400000        0.36849872    0.00000000
                                                     2        0.2400000        0.02793449    0.00000000
                                                     2        0.4000000       -0.46312857    0.00000000
                                                     2        0.7000000        0.97587598    0.00000000
                                                     2        1.5000000       -2.43431102    0.00000000
   12          6            6
                                      G and up 
                                                     0        0.0000010       -0.00007288    0.00000000
                                                     2        0.1200000        0.10466671    0.00000000
                                                     2        0.1400000       -0.65716157    0.00000000
                                                     2        0.1600000        1.18890794    0.00000000
                                                     2        0.2000000       -1.25772850    0.00000000
                                                     2        0.2600000        1.01188378    0.00000000
                                                     2        0.4000000       -1.09380874    0.00000000
                                                     2        0.5000000        0.96944888    0.00000000
                                                     2        1.0000000       -0.79256938    0.00000000
                                                     2        3.0000000        1.06443276    0.00000000
                                      S - G
                                                     0        0.0000010       -0.00635295    0.00000000
                                                     2        0.1200000        0.16918955    0.00000000
                                                     2        0.1600000       -0.38862576    0.00000000
                                                     2        0.2800000        0.25638263    0.00000000
                                                     2        0.5000000        0.29628419    0.00000000
                                                     2        0.9000000       -0.28791512    0.00000000
                                      P - G
                                                     0        0.0000010       -0.04756931    0.00000000
                                                     2        0.1200000        0.28430375    0.00000000
                                                     2        0.1600000       -0.69640032    0.00000000
                                                     2        0.2600000        1.13005668    0.00000000
                                                     2        0.4000000       -1.31433324    0.00000000
                                                     2        0.7000000        0.91526469    0.00000000
                                      D - G
                                                     0        0.0000010       -0.11496411    0.00000000
[...]
                                                     2        0.6000000       -1.09357590    0.00000000
                                                     2        1.1000000        1.53099489    0.00000000
                                                     2        3.0000000       -2.63300202    0.00000000
                                      P - F
                                                     0        0.0000010       -0.11638665    0.00000000
                                                     2        0.1200000        0.35468655    0.00000000
                                                     2        0.1600000       -0.59160923    0.00000000
                                                     2        0.3000000        0.49390547    0.00000000
                                                     2        0.6000000       -0.37949835    0.00000000
                                                     2        1.6000000        0.89304688    0.00000000
                                      D - F
                                                     0        0.0000010        0.05443663    0.00000000
                                                     2        0.1200000       -0.29679479    0.00000000
                                                     2        0.1400000        0.36849872    0.00000000
                                                     2        0.2400000        0.02793449    0.00000000
                                                     2        0.4000000       -0.46312857    0.00000000
                                                     2        0.7000000        0.97587598    0.00000000
                                                     2        1.5000000       -2.43431102    0.00000000
   22          1            1
                                      F and up 
                                                     0        0.0000010       -0.00007675    0.00000000
                                                     2        0.1200000        0.05352699    0.00000000
                                                     2        0.1400000       -0.25123645    0.00000000
                                                     2        0.1600000        0.32188106    0.00000000
                                                     2        0.2200000       -0.25206857    0.00000000
                                                     2        0.3000000        0.19290477    0.00000000
                                                     2        0.5000000       -0.10129770    0.00000000
                                                     2        0.9000000        0.00314995    0.00000000
                                                     2        1.5000000        0.18401192    0.00000000
                                      S - F
                                                     0        0.0000010        0.08065976    0.00000000
                                                     2        0.1200000       -0.09231673    0.00000000
                                                     2        0.1600000       -0.03278082    0.00000000
                                                     2        0.2800000        0.38423402    0.00000000
                                                     2        0.6000000       -1.09357590    0.00000000
                                                     2        1.1000000        1.53099489    0.00000000
                                                     2        3.0000000       -2.63300202    0.00000000
                                      P - F
                                                     0        0.0000010       -0.11638665    0.00000000
                                                     2        0.1200000        0.35468655    0.00000000
                                                     2        0.1600000       -0.59160923    0.00000000
                                                     2        0.3000000        0.49390547    0.00000000
                                                     2        0.6000000       -0.37949835    0.00000000
                                                     2        1.6000000        0.89304688    0.00000000
                                      D - F
                                                     0        0.0000010        0.05443663    0.00000000
                                                     2        0.1200000       -0.29679479    0.00000000
                                                     2        0.1400000        0.36849872    0.00000000
                                                     2        0.2400000        0.02793449    0.00000000
                                                     2        0.4000000       -0.46312857    0.00000000
                                                     2        0.7000000        0.97587598    0.00000000
                                                     2        1.5000000       -2.43431102    0.00000000
   23          1            1
                                      F and up 
                                                     0        0.0000010       -0.00007675    0.00000000
                                                     2        0.1200000        0.05352699    0.00000000
                                                     2        0.1400000       -0.25123645    0.00000000
                                                     2        0.1600000        0.32188106    0.00000000
                                                     2        0.2200000       -0.25206857    0.00000000
                                                     2        0.3000000        0.19290477    0.00000000
                                                     2        0.5000000       -0.10129770    0.00000000
                                                     2        0.9000000        0.00314995    0.00000000
                                                     2        1.5000000        0.18401192    0.00000000
                                      S - F
                                                     0        0.0000010        0.08065976    0.00000000
                                                     2        0.1200000       -0.09231673    0.00000000
                                                     2        0.1600000       -0.03278082    0.00000000
                                                     2        0.2800000        0.38423402    0.00000000
                                                     2        0.6000000       -1.09357590    0.00000000
                                                     2        1.1000000        1.53099489    0.00000000
                                                     2        3.0000000       -2.63300202    0.00000000
                                      P - F
                                                     0        0.0000010       -0.11638665    0.00000000
                                                     2        0.1200000        0.35468655    0.00000000
                                                     2        0.1600000       -0.59160923    0.00000000
                                                     2        0.3000000        0.49390547    0.00000000
                                                     2        0.6000000       -0.37949835    0.00000000
                                                     2        1.6000000        0.89304688    0.00000000
                                      D - F
                                                     0        0.0000010        0.05443663    0.00000000
                                                     2        0.1200000       -0.29679479    0.00000000
                                                     2        0.1400000        0.36849872    0.00000000
                                                     2        0.2400000        0.02793449    0.00000000
                                                     2        0.4000000       -0.46312857    0.00000000
                                                     2        0.7000000        0.97587598    0.00000000
                                                     2        1.5000000       -2.43431102    0.00000000
 ======================================================================================================
   369 basis functions,   681 primitive gaussians,   391 cartesian basis functions
    51 alpha electrons       51 beta electrons
       nuclear repulsion energy       818.6753061963 Hartrees.
 NAtoms=   23 NActive=   23 NUniq=   23 SFac= 1.00D+00 NAtFMM=   60 NAOKFM=F Big=F
   1 Symmetry operations used in ECPInt.
 ECPInt:  NShTT=   13366 NPrTT=   71938 LenC2=   13050 LenP2D=   47269.
 LDataN:  DoStor=T MaxTD1= 6 Len=  172
 Initial guess from the checkpoint file:  "BDE49_nonexpt_2717_mol1.chk"
 B after Tr=    -0.000000   -0.000000   -0.000000
         Rot=    1.000000    0.000000    0.000000   -0.000000 Ang=  -0.00 deg.
 >>>>>>>>>> Convergence criterion not met.
 SCF Done:  E(RHF) =  -1217.47783652     A.U. after    2 cycles
            NFock=  1  Conv=0.86D-02     -V/T= 2.0025

 **********************************************************************

            Population analysis using the SCF Density.

 **********************************************************************

 Orbital symmetries:
       Occupied  (A) (A) (A) (A) (A) (A) (A) (A) (A) (A) (A) (A)
                 (A) (A) (A) (A) (A) (A) (A) (A) (A) (A) (A) (A)
                 (A) (A) (A) (A) (A) (A) (A) (A) (A) (A) (A) (A)
                 (A) (A) (A) (A) (A) (A) (A) (A) (A) (A) (A) (A)
                 (A) (A) (A)
       Virtual   (A) (A) (A) (A) (A) (A) (A) (A) (A) (A) (A) (A)
                 (A) (A) (A) (A) (A) (A) (A) (A) (A) (A) (A) (A)
                 (A) (A) (A) (A) (A) (A) (A) (A) (A) (A) (A) (A)
                 (A) (A) (A) (A) (A) (A) (A) (A) (A) (A) (A) (A)
                 (A) (A) (A) (A) (A) (A) (A) (A) (A) (A) (A) (A)
                 (A) (A) (A) (A) (A) (A) (A) (A) (A) (A) (A) (A)
                 (A) (A) (A) (A) (A) (A) (A) (A) (A) (A) (A) (A)
                 (A) (A) (A) (A) (A) (A) (A) (A) (A) (A) (A) (A)
                 (A) (A) (A) (A) (A) (A) (A) (A) (A) (A) (A) (A)
                 (A) (A) (A) (A) (A) (A) (A) (A) (A) (A) (A) (A)
                 (A) (A) (A) (A) (A) (A) (A) (A) (A) (A) (A) (A)
                 (A) (A) (A) (A) (A) (A) (A) (A) (A) (A) (A) (A)
                 (A) (A) (A) (A) (A) (A) (A) (A) (A) (A) (A) (A)
                 (A) (A) (A) (A) (A) (A) (A) (A) (A) (A) (A) (A)
                 (A) (A) (A) (A) (A) (A) (A) (A) (A) (A) (A) (A)
                 (A) (A) (A) (A) (A) (A) (A) (A) (A) (A) (A) (A)
                 (A) (A) (A) (A) (A) (A) (A) (A) (A) (A) (A) (A)
                 (A) (A) (A) (A) (A) (A) (A) (A) (A) (A) (A) (A)
                 (A) (A) (A) (A) (A) (A) (A) (A) (A) (A) (A) (A)
                 (A) (A) (A) (A) (A) (A) (A) (A) (A) (A) (A) (A)
                 (A) (A) (A) (A) (A) (A) (A) (A) (A) (A) (A) (A)
                 (A) (A) (A) (A) (A) (A) (A) (A) (A) (A) (A) (A)
                 (A) (A) (A) (A) (A) (A) (A) (A) (A) (A) (A) (A)
                 (A) (A) (A) (A) (A) (A) (A) (A) (A) (A) (A) (A)
                 (A) (A) (A) (A) (A) (A) (A) (A) (A) (A) (A) (A)
                 (A) (A) (A) (A) (A) (A) (A) (A) (A) (A) (A) (A)
                 (A) (A) (A) (A) (A) (A)
 The electronic state is 1-A.
 Alpha  occ. eigenvalues --  -93.99121 -93.98989 -20.55970 -20.55721 -11.38184
 Alpha  occ. eigenvalues --  -11.38003 -11.26695 -11.26245 -11.24383 -11.24109
 Alpha  occ. eigenvalues --  -11.22563  -8.27140  -8.27018  -6.24932  -6.24808
 Alpha  occ. eigenvalues --   -6.24702  -6.24589  -6.24498  -6.24381  -1.50310
 Alpha  occ. eigenvalues --   -1.49977  -1.12280  -1.09190  -1.07213  -0.99524
 Alpha  occ. eigenvalues --   -0.95021  -0.89016  -0.83464  -0.75948  -0.74004
 Alpha  occ. eigenvalues --   -0.68254  -0.66935  -0.66078  -0.65277  -0.63945
 Alpha  occ. eigenvalues --   -0.61501  -0.60104  -0.57036  -0.56406  -0.55786
 Alpha  occ. eigenvalues --   -0.54739  -0.53412  -0.51188  -0.51016  -0.49597
 Alpha  occ. eigenvalues --   -0.49430  -0.47885  -0.43022  -0.42286  -0.39066
 Alpha  occ. eigenvalues --   -0.37560
 Alpha virt. eigenvalues --    0.03371   0.03578   0.04106   0.04278   0.04868
 Alpha virt. eigenvalues --    0.05130   0.05453   0.06771   0.07099   0.07378
 Alpha virt. eigenvalues --    0.08121   0.08665   0.09634   0.10217   0.11048
 Alpha virt. eigenvalues --    0.11409   0.11876   0.12116   0.13231   0.13357
 Alpha virt. eigenvalues --    0.14133   0.14284   0.14994   0.15197   0.15386
 Alpha virt. eigenvalues --    0.15650   0.16062   0.16795   0.17002   0.17249
 Alpha virt. eigenvalues --    0.17338   0.17985   0.18371   0.18821   0.19286
 Alpha virt. eigenvalues --    0.19363   0.20372   0.20555   0.21160   0.21486
 Alpha virt. eigenvalues --    0.22004   0.22237   0.22897   0.23417   0.24237
 Alpha virt. eigenvalues --    0.24518   0.25306   0.26515   0.27010   0.27268
 Alpha virt. eigenvalues --    0.27897   0.28815   0.29725   0.30844   0.31583
 Alpha virt. eigenvalues --    0.32295   0.32487   0.33411   0.33795   0.34326
 Alpha virt. eigenvalues --    0.34553   0.35170   0.35810   0.36374   0.36480
 Alpha virt. eigenvalues --    0.37470   0.37690   0.38175   0.38889   0.39630
 Alpha virt. eigenvalues --    0.40410   0.40911   0.41630   0.42050   0.43253
 Alpha virt. eigenvalues --    0.44075   0.44128   0.44588   0.45236   0.45543
 Alpha virt. eigenvalues --    0.46150   0.46986   0.47319   0.47903   0.48231
 Alpha virt. eigenvalues --    0.48746   0.49379   0.49582   0.49942   0.50567
 Alpha virt. eigenvalues --    0.50902   0.51994   0.52792   0.53302   0.53808
 Alpha virt. eigenvalues --    0.54502   0.55274   0.55960   0.56506   0.56842
 Alpha virt. eigenvalues --    0.57060   0.57450   0.58607   0.59364   0.59687
 Alpha virt. eigenvalues --    0.60543   0.61132   0.61277   0.62066   0.62371
 Alpha virt. eigenvalues --    0.63178   0.63299   0.64326   0.64344   0.65084
 Alpha virt. eigenvalues --    0.65895   0.66018   0.67048   0.67622   0.68664
 Alpha virt. eigenvalues --    0.69090   0.70734   0.71070   0.71869   0.72140
 Alpha virt. eigenvalues --    0.72790   0.73510   0.74621   0.75142   0.75756
 Alpha virt. eigenvalues --    0.76076   0.76970   0.77268   0.78139   0.78844
 Alpha virt. eigenvalues --    0.79671   0.80204   0.80527   0.82145   0.82592
 Alpha virt. eigenvalues --    0.82920   0.84321   0.84847   0.85428   0.85658
 Alpha virt. eigenvalues --    0.87435   0.88222   0.88511   0.89475   0.89840
 Alpha virt. eigenvalues --    0.90887   0.91687   0.92426   0.93655   0.95000
 Alpha virt. eigenvalues --    0.95533   0.96012   0.99399   0.99911   1.00970
 Alpha virt. eigenvalues --    1.01867   1.03310   1.04751   1.06582   1.07804
 Alpha virt. eigenvalues --    1.09123   1.09288   1.10364   1.11372   1.12465
 Alpha virt. eigenvalues --    1.12947   1.13418   1.16303   1.16903   1.18146
 Alpha virt. eigenvalues --    1.19481   1.21156   1.21895   1.23818   1.24021
 Alpha virt. eigenvalues --    1.25442   1.26397   1.27749   1.28194   1.29503
 Alpha virt. eigenvalues --    1.30380   1.30638   1.30981   1.31801   1.33219
 Alpha virt. eigenvalues --    1.34696   1.36517   1.37168   1.37917   1.39833
 Alpha virt. eigenvalues --    1.40273   1.41754   1.43662   1.44095   1.45304
 Alpha virt. eigenvalues --    1.46609   1.46840   1.49561   1.50275   1.53270
 Alpha virt. eigenvalues --    1.53973   1.55450   1.57327   1.58804   1.60326
 Alpha virt. eigenvalues --    1.61189   1.62395   1.63011   1.64017   1.65253
 Alpha virt. eigenvalues --    1.66735   1.70283   1.72148   1.73463   1.75686
 Alpha virt. eigenvalues --    1.78627   1.79019   1.80409   1.83009   1.84052
 Alpha virt. eigenvalues --    1.85520   1.85633   1.86849   1.87454   1.90126
 Alpha virt. eigenvalues --    1.92343   1.94078   1.95512   1.96861   1.98383
 Alpha virt. eigenvalues --    1.99849   2.00944   2.01305   2.03813   2.04322
 Alpha virt. eigenvalues --    2.06922   2.07878   2.08974   2.10278   2.11622
 Alpha virt. eigenvalues --    2.14187   2.14959   2.15772   2.16442   2.17735
 Alpha virt. eigenvalues --    2.17980   2.20943   2.21267   2.24579   2.26005
 Alpha virt. eigenvalues --    2.26428   2.27107   2.27828   2.31199   2.31460
 Alpha virt. eigenvalues --    2.32930   2.34149   2.34850   2.37287   2.38804
 Alpha virt. eigenvalues --    2.39543   2.40904   2.42236   2.44379   2.45769
 Alpha virt. eigenvalues --    2.47287   2.47749   2.50499   2.52513   2.54317
 Alpha virt. eigenvalues --    2.56978   2.58233   2.59308   2.60681   2.64057
 Alpha virt. eigenvalues --    2.66003   2.67430   2.69005   2.73154   2.75783
 Alpha virt. eigenvalues --    2.76785   2.77750   2.82172   2.86708   2.93793
 Alpha virt. eigenvalues --    2.95842   2.97204   2.99947   3.01471   3.02796
 Alpha virt. eigenvalues --    3.05204   3.06617   3.10199   3.17483   3.17708
 Alpha virt. eigenvalues --    3.19236   3.21962   3.24390   3.28648   3.32261
 Alpha virt. eigenvalues --    3.34406   3.39956   3.43830   3.88201   3.90818
 Alpha virt. eigenvalues --    3.93165   3.96769   3.97118   3.99877   4.03021
 Alpha virt. eigenvalues --    4.06909   4.25959   4.27152
          Condensed to atoms (all electrons):
 Mulliken charges:
               1
     1  C    1.041954
     2  O   -1.255923
     3  S    0.065104
     4  S    0.035754
     5  C    1.275912
     6  O   -1.312930
     7  C   -0.606092
     8  C   -0.518495
     9  C   -0.308550
    10  H    0.207763
    11  H    0.281048
    12  C   -0.299687
    13  H    0.129434
    14  H    0.140254
    15  H    0.137094
    16  H    0.146746
    17  H    0.113305
    18  C   -0.321926
    19  H    0.312400
    20  H    0.246349
    21  H    0.188869
    22  H    0.138838
    23  H    0.162781
 Sum of Mulliken charges =  -0.00000
 Mulliken charges with hydrogens summed into heavy atoms:
               1
     1  C    1.041954
     2  O   -1.255923
     3  S    0.065104
     4  S    0.035754
     5  C    1.275912
     6  O   -1.312930
     7  C   -0.047344
     8  C   -0.029684
     9  C   -0.038863
    12  C    0.097458
    18  C    0.168563
 Electronic spatial extent (au):  <R**2>=           3009.3705
 Charge=             -0.0000 electrons
 Dipole moment (field-independent basis, Debye):
    X=             -0.0710    Y=              0.0277    Z=             -0.0060  Tot=              0.0765

 Test job not archived.
 1\1\GINC-SE339\SP\RHF\Aug-CC-pVDZ\C7H12O2S2\OHZDE\09-Apr-2025\0\\#t hf
  aug-cc-pvdz iop(5/13=1,5/36=2,99/5=2) pseudo=read geom=check guess=(r
 ead,tcheck) scf=(maxcycle=1)\\title\\0,1\C,0,-1.897561,0.218472,-0.133
 468\O,0,-1.255079,1.076375,-0.660843\S,0,-1.310155,-1.520554,0.044525\
 S,0,0.57308,-1.417042,-0.800174\C,0,1.534712,-0.564916,0.511317\O,0,1.
 050133,-0.176708,1.53299\C,0,-3.259169,0.404891,0.51287\C,0,2.993333,-
 0.398558,0.120049\C,0,3.48613,1.040247,0.352374\H,0,3.147785,-0.70396,
 -0.919562\H,0,3.556155,-1.097443,0.749559\C,0,2.847921,2.058422,-0.596
 898\H,0,4.57438,1.05126,0.236778\H,0,3.273278,1.30981,1.390176\H,0,1.7
 5967,2.075475,-0.494803\H,0,3.080346,1.826383,-1.640842\H,0,3.217817,3
 .065692,-0.390111\C,0,-3.991944,1.645524,0.000973\H,0,-3.072238,0.4813
 92,1.590896\H,0,-3.853584,-0.503252,0.372032\H,0,-3.381795,2.538641,0.
 139887\H,0,-4.932387,1.777973,0.539989\H,0,-4.217187,1.557742,-1.06407
 8\\Version=ES64L-G16RevC.01\State=1-A\HF=-1217.4778365\RMSD=8.617e-03\
 Dipole=-0.0279512,0.0108946,-0.0023695\Quadrupole=11.571608,-5.076064,
 -6.495544,-1.1339861,-2.5643543,0.9390996\PG=C01 [X(C7H12O2S2)]\\@


 A SLIP OF THE FOOT YOU MAY SOON RECOVER, BUT A SLIP OF THE TONGUE
 YOU MAY NEVER GET OVER. -- BEN FRANKLIN
 Job cpu time:       0 days  0 hours  3 minutes 50.6 seconds.
 Elapsed time:       0 days  0 hours  0 minutes 16.0 seconds.
 File lengths (MBytes):  RWF=     23 Int=      0 D2E=      0 Chk=     19 Scr=      1
 Normal termination of Gaussian 16 at Wed Apr  9 00:28:28 2025.
