 Entering Gaussian System, Link 0=g16
 Input=BDE49_nonexpt_2522_mol1.gjf
 Output=BDE49_nonexpt_2522_mol1.log
 Initial command:
 /arc/software/Gaussian/g16.c01/l1.exe "/tmp/slurm/4852558/Gau-1035947.inp" -scrdir="/tmp/slurm/4852558/"
 Entering Link 1 = /arc/software/Gaussian/g16.c01/l1.exe PID=   1035966.
  
 Copyright (c) 1988-2019, Gaussian, Inc.  All Rights Reserved.
  
 This is part of the Gaussian(R) 16 program.  It is based on
 the Gaussian(R) 09 system (copyright 2009, Gaussian, Inc.),
 the Gaussian(R) 03 system (copyright 2003, Gaussian, Inc.),
 the Gaussian(R) 98 system (copyright 1998, Gaussian, Inc.),
 the Gaussian(R) 94 system (copyright 1995, Gaussian, Inc.),
 the Gaussian 92(TM) system (copyright 1992, Gaussian, Inc.),
 the Gaussian 90(TM) system (copyright 1990, Gaussian, Inc.),
 the Gaussian 88(TM) system (copyright 1988, Gaussian, Inc.),
 the Gaussian 86(TM) system (copyright 1986, Carnegie Mellon
 University), and the Gaussian 82(TM) system (copyright 1983,
 Carnegie Mellon University). Gaussian is a federally registered
 trademark of Gaussian, Inc.
  
 This software contains proprietary and confidential information,
 including trade secrets, belonging to Gaussian, Inc.
  
 This software is provided under written license and may be
 used, copied, transmitted, or stored only in accord with that
 written license.
  
 The following legend is applicable only to US Government
 contracts under FAR:
  
                    RESTRICTED RIGHTS LEGEND
  
 Use, reproduction and disclosure by the US Government is
 subject to restrictions as set forth in subparagraphs (a)
 and (c) of the Commercial Computer Software - Restricted
 Rights clause in FAR 52.227-19.
  
 Gaussian, Inc.
 340 Quinnipiac St., Bldg. 40, Wallingford CT 06492
  
  
 ---------------------------------------------------------------
 Warning -- This program may not be used in any manner that
 competes with the business of Gaussian, Inc. or will provide
 assistance to any competitor of Gaussian, Inc.  The licensee
 of this program is prohibited from giving any competitor of
 Gaussian, Inc. access to this program.  By using this program,
 the user acknowledges that Gaussian, Inc. is engaged in the
 business of creating and licensing software in the field of
 computational chemistry and represents and warrants to the
 licensee that it is not a competitor of Gaussian, Inc. and that
 it will not use this program in any manner prohibited above.
 ---------------------------------------------------------------
  

 Cite this work as:
 Gaussian 16, Revision C.01,
 M. J. Frisch, G. W. Trucks, H. B. Schlegel, G. E. Scuseria, 
 M. A. Robb, J. R. Cheeseman, G. Scalmani, V. Barone, 
 G. A. Petersson, H. Nakatsuji, X. Li, M. Caricato, A. V. Marenich, 
 J. Bloino, B. G. Janesko, R. Gomperts, B. Mennucci, H. P. Hratchian, 
 J. V. Ortiz, A. F. Izmaylov, J. L. Sonnenberg, D. Williams-Young, 
 F. Ding, F. Lipparini, F. Egidi, J. Goings, B. Peng, A. Petrone, 
 T. Henderson, D. Ranasinghe, V. G. Zakrzewski, J. Gao, N. Rega, 
 G. Zheng, W. Liang, M. Hada, M. Ehara, K. Toyota, R. Fukuda, 
 J. Hasegawa, M. Ishida, T. Nakajima, Y. Honda, O. Kitao, H. Nakai, 
 T. Vreven, K. Throssell, J. A. Montgomery, Jr., J. E. Peralta, 
 F. Ogliaro, M. J. Bearpark, J. J. Heyd, E. N. Brothers, K. N. Kudin, 
 V. N. Staroverov, T. A. Keith, R. Kobayashi, J. Normand, 
 K. Raghavachari, A. P. Rendell, J. C. Burant, S. S. Iyengar, 
 J. Tomasi, M. Cossi, J. M. Millam, M. Klene, C. Adamo, R. Cammi, 
 J. W. Ochterski, R. L. Martin, K. Morokuma, O. Farkas, 
 J. B. Foresman, and D. J. Fox, Gaussian, Inc., Wallingford CT, 2019.
 
 ******************************************
 Gaussian 16:  ES64L-G16RevC.01  3-Jul-2019
                 9-Apr-2025 
 ******************************************
 %nprocs=16
 Will use up to   16 processors via shared memory.
 %mem=30GB
 %chk=BDE49_nonexpt_2522_mol1.chk
 ----------------------------------------------------------------------
 #t hf aug-cc-pvdz symm=none int=(grid=ultrafine) guess=(read,tcheck) s
 table=(opt,rrhf)
 ----------------------------------------------------------------------
 -----
 title
 -----
 Symbolic Z-matrix:
 Charge =  0 Multiplicity = 1
 S                     0.46642  -1.02598  0. 
 C                    -1.03654   0.12231  0. 
 C                    -2.23654  -0.83648   0.00021 
 H                    -3.1658   -0.25755   0.00034 
 H                    -2.23383  -1.4762    0.88568 
 H                    -2.2341   -1.47625  -0.88522 
 C                    -1.05218   0.98772   1.2643 
 H                    -0.208     1.68012   1.29595 
 H                    -1.01924   0.37102   2.16447 
 H                    -1.97092   1.58445   1.2897 
 Si                    2.2081    0.23624  -0.00001 
 C                    -1.05242   0.98742  -1.2645 
 H                    -1.01961   0.37054  -2.16454 
 H                    -0.20827   1.67984  -1.29643 
 H                    -1.97119   1.58412  -1.28988 
 H                     3.33246  -0.72354   0.00007 
 H                     2.29421   1.10302   1.1985 
 H                     2.29427   1.10293  -1.19858 
 
                    Distance matrix (angstroms):
                    1          2          3          4          5
     1  S    0.000000
     2  C    1.891414   0.000000
     3  C    2.709594   1.535986   0.000000
     4  H    3.712614   2.162874   1.094844   0.000000
     5  H    2.877239   2.184756   1.092386   1.771301   0.000000
     6  H    2.877353   2.184747   1.092387   1.771301   1.770906
     7  C    2.821276   1.532205   2.515608   2.759645   2.758715
     8  H    3.075271   2.189235   3.482402   3.765861   3.772879
     9  H    2.973845   2.178789   2.761139   3.112281   2.553970
    10  H    3.797145   2.162007   2.755757   2.546198   3.098370
    11  Si   2.150959   3.246637   4.572252   5.396532   4.842274
    12  C    2.821277   1.532194   2.515595   2.759729   3.476839
    13  H    2.973848   2.178791   2.761154   3.112447   3.766782
    14  H    3.075289   2.189221   3.482388   3.765909   4.338793
    15  H    3.797144   2.161996   2.755723   2.546266   3.763982
    16  H    2.881947   4.450120   5.570137   6.514939   5.686330
    17  H    3.051205   3.673160   5.072001   5.753121   5.220476
    18  H    3.051210   3.673217   5.072144   5.753318   5.612466
                    6          7          8          9         10
     6  H    0.000000
     7  C    3.476849   0.000000
     8  H    4.338802   1.092275   0.000000
     9  H    3.766819   1.091651   1.768094   0.000000
    10  H    3.763960   1.095817   1.765527   1.772942   0.000000
    11  Si   4.842447   3.576680   3.098682   3.888296   4.576597
    12  C    2.758597   2.528798   2.783660   3.484088   2.779211
    13  H    2.553871   3.484098   3.787968   4.329014   3.782905
    14  H    3.772792   2.783632   2.592387   3.787949   3.131160
    15  H    3.098174   2.779224   3.131221   3.782900   2.579579
    16  H    5.686547   4.873576   4.471207   4.981963   5.925856
    17  H    5.612492   3.349026   2.569746   3.528153   4.293186
    18  H    5.220775   4.156660   3.580110   4.777567   4.961380
                   11         12         13         14         15
    11  Si   0.000000
    12  C    3.576896   0.000000
    13  H    3.888612   1.091651   0.000000
    14  H    3.098956   1.092274   1.768092   0.000000
    15  H    4.576783   1.095818   1.772938   1.765527   0.000000
    16  H    1.478293   4.873771   4.982265   4.471449   5.926029
    17  H    1.481603   4.156879   4.777859   3.580475   4.961558
    18  H    1.481603   3.349337   3.528638   2.570041   4.293485
                   16         17         18
    16  H    0.000000
    17  H    2.418782   0.000000
    18  H    2.418793   2.397074   0.000000
 Symmetry turned off by external request.
 Rotational constants (GHZ):           3.4993479           1.4293204           1.3301371
   254 basis functions,   466 primitive gaussians,   266 cartesian basis functions
    33 alpha electrons       33 beta electrons
       nuclear repulsion energy       386.8521484718 Hartrees.
 NAtoms=   18 NActive=   18 NUniq=   18 SFac= 1.00D+00 NAtFMM=   60 NAOKFM=F Big=F
 ExpMin= 2.50D-02 ExpMax= 1.11D+05 ExpMxC= 2.69D+03 IAcc=3 IRadAn=         5 AccDes= 0.00D+00
 Harris functional with IExCor=  205 and IRadAn=       5 diagonalized for initial guess.
 HarFok:  IExCor=  205 AccDes= 0.00D+00 IRadAn=         5 IDoV= 1 UseB2=F ITyADJ=14
 ICtDFT=  3500011 ScaDFX=  1.000000  1.000000  1.000000  1.000000
 FoFCou: FMM=F IPFlag=           0 FMFlag=      100000 FMFlg1=           0
         NFxFlg=           0 DoJE=T BraDBF=F KetDBF=T FulRan=T
         wScrn=  0.000000 ICntrl=       500 IOpCl=  0 I1Cent=   200000004 NGrid=           0
         NMat0=    1 NMatS0=      1 NMatT0=    0 NMatD0=    1 NMtDS0=    0 NMtDT0=    0
 Symmetry not used in FoFCou.
 SCF Done:  E(RHF) =  -844.962260561     A.U. after   13 cycles
            NFock= 13  Conv=0.28D-08     -V/T= 2.0004

 **********************************************************************

            Population analysis using the SCF Density.

 **********************************************************************

 Alpha  occ. eigenvalues --  -91.93408 -68.80264 -11.28915 -11.23238 -11.23236
 Alpha  occ. eigenvalues --  -11.23160  -8.93739  -6.61917  -6.61786  -6.61630
 Alpha  occ. eigenvalues --   -6.14811  -4.25455  -4.25412  -4.25379  -1.11484
 Alpha  occ. eigenvalues --   -0.94685  -0.94580  -0.93225  -0.75561  -0.69525
 Alpha  occ. eigenvalues --   -0.61919  -0.61198  -0.60927  -0.55501  -0.55273
 Alpha  occ. eigenvalues --   -0.52590  -0.49835  -0.49019  -0.48508  -0.48491
 Alpha  occ. eigenvalues --   -0.43912  -0.40599  -0.35079
 Alpha virt. eigenvalues --    0.03390   0.04289   0.04857   0.04897   0.06052
 Alpha virt. eigenvalues --    0.06577   0.06618   0.07087   0.07199   0.08415
 Alpha virt. eigenvalues --    0.08977   0.09393   0.10195   0.10879   0.11503
 Alpha virt. eigenvalues --    0.12717   0.13057   0.14278   0.15313   0.15733
 Alpha virt. eigenvalues --    0.16320   0.16411   0.17072   0.17437   0.17834
 Alpha virt. eigenvalues --    0.18456   0.19279   0.19419   0.20055   0.20231
 Alpha virt. eigenvalues --    0.21382   0.21610   0.21797   0.22114   0.22550
 Alpha virt. eigenvalues --    0.23116   0.23591   0.24739   0.27311   0.27700
 Alpha virt. eigenvalues --    0.28855   0.29699   0.30613   0.31579   0.33409
 Alpha virt. eigenvalues --    0.35039   0.35165   0.36134   0.36336   0.38146
 Alpha virt. eigenvalues --    0.38298   0.39825   0.41047   0.41684   0.42184
 Alpha virt. eigenvalues --    0.42938   0.43197   0.45278   0.45380   0.45627
 Alpha virt. eigenvalues --    0.46478   0.46828   0.47906   0.48257   0.48392
 Alpha virt. eigenvalues --    0.49072   0.49815   0.50837   0.51533   0.51862
 Alpha virt. eigenvalues --    0.52254   0.52303   0.53950   0.55095   0.55351
 Alpha virt. eigenvalues --    0.56034   0.57705   0.58412   0.59095   0.59296
 Alpha virt. eigenvalues --    0.60721   0.60909   0.61492   0.61871   0.62098
 Alpha virt. eigenvalues --    0.64016   0.64132   0.64421   0.65132   0.66369
 Alpha virt. eigenvalues --    0.67971   0.69040   0.70162   0.70567   0.71655
 Alpha virt. eigenvalues --    0.72072   0.73280   0.74739   0.75597   0.76086
 Alpha virt. eigenvalues --    0.77031   0.77866   0.78276   0.78830   0.80503
 Alpha virt. eigenvalues --    0.81251   0.82389   0.83629   0.84729   0.85090
 Alpha virt. eigenvalues --    0.87885   0.88339   0.90157   0.90232   0.91385
 Alpha virt. eigenvalues --    0.92130   0.93343   0.93431   0.96010   0.96680
 Alpha virt. eigenvalues --    0.97664   0.97899   0.99233   1.01214   1.04262
 Alpha virt. eigenvalues --    1.05212   1.07090   1.08431   1.08785   1.10283
 Alpha virt. eigenvalues --    1.14812   1.15432   1.16408   1.23443   1.24071
 Alpha virt. eigenvalues --    1.24833   1.26103   1.31446   1.31613   1.34625
 Alpha virt. eigenvalues --    1.34849   1.35866   1.38966   1.39073   1.40632
 Alpha virt. eigenvalues --    1.42230   1.43580   1.45946   1.49678   1.51357
 Alpha virt. eigenvalues --    1.53915   1.57918   1.59048   1.61449   1.63516
 Alpha virt. eigenvalues --    1.66086   1.67247   1.69719   1.79307   1.80091
 Alpha virt. eigenvalues --    1.82092   1.82131   1.83827   1.84581   1.88770
 Alpha virt. eigenvalues --    1.90045   1.92101   1.94077   1.95963   1.97652
 Alpha virt. eigenvalues --    1.98446   1.99782   2.03166   2.04014   2.05829
 Alpha virt. eigenvalues --    2.06586   2.08704   2.12724   2.13424   2.16984
 Alpha virt. eigenvalues --    2.17025   2.19476   2.21371   2.23326   2.23539
 Alpha virt. eigenvalues --    2.25194   2.29848   2.30159   2.31465   2.32233
 Alpha virt. eigenvalues --    2.33549   2.34836   2.36848   2.37288   2.40789
 Alpha virt. eigenvalues --    2.41074   2.45260   2.51993   2.52113   2.55048
 Alpha virt. eigenvalues --    2.55731   2.60880   2.62142   2.62786   2.66439
 Alpha virt. eigenvalues --    2.66756   2.80255   2.80937   2.82430   2.88127
 Alpha virt. eigenvalues --    2.90577   2.91064   2.94596   2.96749   3.02928
 Alpha virt. eigenvalues --    3.09285   3.17050   3.17389   3.25656   3.44557
 Alpha virt. eigenvalues --    3.50619
          Condensed to atoms (all electrons):
 Mulliken charges:
               1
     1  S   -0.331799
     2  C   -2.134944
     3  C    0.995849
     4  H   -0.034671
     5  H   -0.055019
     6  H   -0.054977
     7  C    0.888749
     8  H   -0.159445
     9  H   -0.066678
    10  H   -0.007789
    11  Si   0.206654
    12  C    0.888651
    13  H   -0.066688
    14  H   -0.159385
    15  H   -0.007754
    16  H    0.009923
    17  H    0.044656
    18  H    0.044666
 Sum of Mulliken charges =  -0.00000
 Mulliken charges with hydrogens summed into heavy atoms:
               1
     1  S   -0.331799
     2  C   -2.134944
     3  C    0.851182
     7  C    0.654837
    11  Si   0.305900
    12  C    0.654824
 Electronic spatial extent (au):  <R**2>=           1070.9648
 Charge=             -0.0000 electrons
 Dipole moment (field-independent basis, Debye):
    X=             -1.1614    Y=              1.5999    Z=              0.0000  Tot=              1.9770
 NROrb=    254 NOA=    33 NOB=    33 NVA=   221 NVB=   221

 **** Warning!!: The largest alpha MO coefficient is  0.53424560D+02

    12 initial guesses have been made.
 Iteration     1 Dimension    12 NMult     0 NNew     12
 Iteration     2 Dimension    24 NMult    12 NNew     12
 Iteration     3 Dimension    27 NMult    24 NNew      3
 Iteration     4 Dimension    30 NMult    27 NNew      3
 Iteration     5 Dimension    33 NMult    30 NNew      3
 Iteration     6 Dimension    36 NMult    33 NNew      3
 ***********************************************************************
 Stability analysis using <AA,BB:AA,BB> singles matrix:
 ***********************************************************************
 Ground to excited state transition densities written to RWF  633

 Eigenvectors of the stability matrix:
 
 Excited state symmetry could not be determined.
 Eigenvector   1:      Singlet-?Sym  Eigenvalue= 0.2373862  <S**2>=0.000
      33 -> 34        -0.10394
      33 -> 35         0.17201
      33 -> 46         0.13604
      33 -> 49        -0.31478
      33 -> 51         0.38024
      33 -> 52         0.12570
      33 -> 53        -0.14620
      33 -> 57         0.10034
      33 -> 61         0.14292
      33 -> 64        -0.16374
      33 -> 66         0.12797
 The wavefunction is stable under the perturbations considered.
 The wavefunction is already stable.

 **********************************************************************

            Population analysis using the SCF Density.

 **********************************************************************

 Alpha  occ. eigenvalues --  -91.93408 -68.80264 -11.28915 -11.23238 -11.23236
 Alpha  occ. eigenvalues --  -11.23160  -8.93739  -6.61917  -6.61786  -6.61630
 Alpha  occ. eigenvalues --   -6.14811  -4.25455  -4.25412  -4.25379  -1.11484
 Alpha  occ. eigenvalues --   -0.94685  -0.94580  -0.93225  -0.75561  -0.69525
 Alpha  occ. eigenvalues --   -0.61919  -0.61198  -0.60927  -0.55501  -0.55273
 Alpha  occ. eigenvalues --   -0.52590  -0.49835  -0.49019  -0.48508  -0.48491
 Alpha  occ. eigenvalues --   -0.43912  -0.40599  -0.35079
 Alpha virt. eigenvalues --    0.03390   0.04289   0.04857   0.04897   0.06052
 Alpha virt. eigenvalues --    0.06577   0.06618   0.07087   0.07199   0.08415
 Alpha virt. eigenvalues --    0.08977   0.09393   0.10195   0.10879   0.11503
 Alpha virt. eigenvalues --    0.12717   0.13057   0.14278   0.15313   0.15733
 Alpha virt. eigenvalues --    0.16320   0.16411   0.17072   0.17437   0.17834
 Alpha virt. eigenvalues --    0.18456   0.19279   0.19419   0.20055   0.20231
 Alpha virt. eigenvalues --    0.21382   0.21610   0.21797   0.22114   0.22550
 Alpha virt. eigenvalues --    0.23116   0.23591   0.24739   0.27311   0.27700
 Alpha virt. eigenvalues --    0.28855   0.29699   0.30613   0.31579   0.33409
 Alpha virt. eigenvalues --    0.35039   0.35165   0.36134   0.36336   0.38146
 Alpha virt. eigenvalues --    0.38298   0.39825   0.41047   0.41684   0.42184
 Alpha virt. eigenvalues --    0.42938   0.43197   0.45278   0.45380   0.45627
 Alpha virt. eigenvalues --    0.46478   0.46828   0.47906   0.48257   0.48392
 Alpha virt. eigenvalues --    0.49072   0.49815   0.50837   0.51533   0.51862
 Alpha virt. eigenvalues --    0.52254   0.52303   0.53950   0.55095   0.55351
 Alpha virt. eigenvalues --    0.56034   0.57705   0.58412   0.59095   0.59296
 Alpha virt. eigenvalues --    0.60721   0.60909   0.61492   0.61871   0.62098
 Alpha virt. eigenvalues --    0.64016   0.64132   0.64421   0.65132   0.66369
 Alpha virt. eigenvalues --    0.67971   0.69040   0.70162   0.70567   0.71655
 Alpha virt. eigenvalues --    0.72072   0.73280   0.74739   0.75597   0.76086
 Alpha virt. eigenvalues --    0.77031   0.77866   0.78276   0.78830   0.80503
 Alpha virt. eigenvalues --    0.81251   0.82389   0.83629   0.84729   0.85090
 Alpha virt. eigenvalues --    0.87885   0.88339   0.90157   0.90232   0.91385
 Alpha virt. eigenvalues --    0.92130   0.93343   0.93431   0.96010   0.96680
 Alpha virt. eigenvalues --    0.97664   0.97899   0.99233   1.01214   1.04262
 Alpha virt. eigenvalues --    1.05212   1.07090   1.08431   1.08785   1.10283
 Alpha virt. eigenvalues --    1.14812   1.15432   1.16408   1.23443   1.24071
 Alpha virt. eigenvalues --    1.24833   1.26103   1.31446   1.31613   1.34625
 Alpha virt. eigenvalues --    1.34849   1.35866   1.38966   1.39073   1.40632
 Alpha virt. eigenvalues --    1.42230   1.43580   1.45946   1.49678   1.51357
 Alpha virt. eigenvalues --    1.53915   1.57918   1.59048   1.61449   1.63516
 Alpha virt. eigenvalues --    1.66086   1.67247   1.69719   1.79307   1.80091
 Alpha virt. eigenvalues --    1.82092   1.82131   1.83827   1.84581   1.88770
 Alpha virt. eigenvalues --    1.90045   1.92101   1.94077   1.95963   1.97652
 Alpha virt. eigenvalues --    1.98446   1.99782   2.03166   2.04014   2.05829
 Alpha virt. eigenvalues --    2.06586   2.08704   2.12724   2.13424   2.16984
 Alpha virt. eigenvalues --    2.17025   2.19476   2.21371   2.23326   2.23539
 Alpha virt. eigenvalues --    2.25194   2.29848   2.30159   2.31465   2.32233
 Alpha virt. eigenvalues --    2.33549   2.34836   2.36848   2.37288   2.40789
 Alpha virt. eigenvalues --    2.41074   2.45260   2.51993   2.52113   2.55048
 Alpha virt. eigenvalues --    2.55731   2.60880   2.62142   2.62786   2.66439
 Alpha virt. eigenvalues --    2.66756   2.80255   2.80937   2.82430   2.88127
 Alpha virt. eigenvalues --    2.90577   2.91064   2.94596   2.96749   3.02928
 Alpha virt. eigenvalues --    3.09285   3.17050   3.17389   3.25656   3.44557
 Alpha virt. eigenvalues --    3.50619
          Condensed to atoms (all electrons):
 Mulliken charges:
               1
     1  S   -0.331799
     2  C   -2.134944
     3  C    0.995849
     4  H   -0.034671
     5  H   -0.055019
     6  H   -0.054977
     7  C    0.888749
     8  H   -0.159445
     9  H   -0.066678
    10  H   -0.007789
    11  Si   0.206654
    12  C    0.888651
    13  H   -0.066688
    14  H   -0.159385
    15  H   -0.007754
    16  H    0.009923
    17  H    0.044656
    18  H    0.044666
 Sum of Mulliken charges =  -0.00000
 Mulliken charges with hydrogens summed into heavy atoms:
               1
     1  S   -0.331799
     2  C   -2.134944
     3  C    0.851182
     7  C    0.654837
    11  Si   0.305900
    12  C    0.654824
 Electronic spatial extent (au):  <R**2>=           1070.9648
 Charge=             -0.0000 electrons
 Dipole moment (field-independent basis, Debye):
    X=             -1.1614    Y=              1.5999    Z=              0.0000  Tot=              1.9770
 Unable to Open any file for archive entry.
 1\1\GINC-SE333\Stability\RHF\Aug-CC-pVDZ\C4H12S1Si1\OHZDE\09-Apr-2025\
 0\\#t hf aug-cc-pvdz symm=none int=(grid=ultrafine) guess=(read,tcheck
 ) stable=(opt,rrhf)\\title\\0,1\S,0,0.466422,-1.025978,-0.000003\C,0,-
 1.03654,0.122305,-0.000004\C,0,-2.236537,-0.836476,0.000213\H,0,-3.165
 797,-0.257547,0.000337\H,0,-2.233831,-1.476198,0.885682\H,0,-2.234097,
 -1.476245,-0.885224\C,0,-1.052185,0.987715,1.264303\H,0,-0.208002,1.68
 0115,1.295953\H,0,-1.019239,0.371022,2.164473\H,0,-1.970924,1.584446,1
 .289703\Si,0,2.208097,0.236239,-0.000009\C,0,-1.052422,0.987422,-1.264
 495\H,0,-1.019606,0.370541,-2.164541\H,0,-0.208268,1.679842,-1.296434\
 H,0,-1.971186,1.584117,-1.289876\H,0,3.332455,-0.723536,0.000067\H,0,2
 .294209,1.103021,1.198499\H,0,2.294273,1.102934,-1.198575\\Version=ES6
 4L-G16RevC.01\HF=-844.9622606\RMSD=2.807e-09\Dipole=-0.4569451,0.62943
 73,0.0000068\Quadrupole=2.0711508,-1.525277,-0.5458738,0.502337,-0.000
 0279,0.0000101\PG=Unknown\\@
 The archive entry for this job was punched.


 THE ENLIGHTENED ONE, BECAUSE HE SAW MANKIND DROWNING  
 IN THE GREAT SEA OF BIRTH, DEATH, AND SORROW, LONGED TO SAVE 
 THEM, FOR THIS HE WAS MOVED TO PITY.                         
 BECAUSE HE SAW MEN OF THE WORLD STRAYING IN FALSE PATHS, AND 
 NONE TO GUIDE THEM, FOR THIS HE WAS MOVED TO PITY.           
                     ..................                       
 BECAUSE HE SAW THE MEN OF THE WORLD PLOUGHING THEIR FIELDS,  
 SOWING THE SEED, TRAFFICKING, HUCKSTERING, BUYING, SELLING,  
 AND AT THE END WINNOWING NOTHING BUT BITTERNESS,             
 FOR THIS HE WAS MOVED TO PITY......                   
                   BUDAH'S PITY - UPSAKA SILA SUTRA           
 Job cpu time:       0 days  0 hours  9 minutes 40.3 seconds.
 Elapsed time:       0 days  0 hours  0 minutes 40.8 seconds.
 File lengths (MBytes):  RWF=    312 Int=      0 D2E=      0 Chk=      9 Scr=      1
 Normal termination of Gaussian 16 at Wed Apr  9 00:16:11 2025.
 Initial command:
 /arc/software/Gaussian/g16.c01/l1.exe "/tmp/slurm/4852558/Gau-1035947.inp" -scrdir="/tmp/slurm/4852558/"
 Entering Link 1 = /arc/software/Gaussian/g16.c01/l1.exe PID=   1036586.
  
 Copyright (c) 1988-2019, Gaussian, Inc.  All Rights Reserved.
  
 This is part of the Gaussian(R) 16 program.  It is based on
 the Gaussian(R) 09 system (copyright 2009, Gaussian, Inc.),
 the Gaussian(R) 03 system (copyright 2003, Gaussian, Inc.),
 the Gaussian(R) 98 system (copyright 1998, Gaussian, Inc.),
 the Gaussian(R) 94 system (copyright 1995, Gaussian, Inc.),
 the Gaussian 92(TM) system (copyright 1992, Gaussian, Inc.),
 the Gaussian 90(TM) system (copyright 1990, Gaussian, Inc.),
 the Gaussian 88(TM) system (copyright 1988, Gaussian, Inc.),
 the Gaussian 86(TM) system (copyright 1986, Carnegie Mellon
 University), and the Gaussian 82(TM) system (copyright 1983,
 Carnegie Mellon University). Gaussian is a federally registered
 trademark of Gaussian, Inc.
  
 This software contains proprietary and confidential information,
 including trade secrets, belonging to Gaussian, Inc.
  
 This software is provided under written license and may be
 used, copied, transmitted, or stored only in accord with that
 written license.
  
 The following legend is applicable only to US Government
 contracts under FAR:
  
                    RESTRICTED RIGHTS LEGEND
  
 Use, reproduction and disclosure by the US Government is
 subject to restrictions as set forth in subparagraphs (a)
 and (c) of the Commercial Computer Software - Restricted
 Rights clause in FAR 52.227-19.
  
 Gaussian, Inc.
 340 Quinnipiac St., Bldg. 40, Wallingford CT 06492
  
  
 ---------------------------------------------------------------
 Warning -- This program may not be used in any manner that
 competes with the business of Gaussian, Inc. or will provide
 assistance to any competitor of Gaussian, Inc.  The licensee
 of this program is prohibited from giving any competitor of
 Gaussian, Inc. access to this program.  By using this program,
 the user acknowledges that Gaussian, Inc. is engaged in the
 business of creating and licensing software in the field of
 computational chemistry and represents and warrants to the
 licensee that it is not a competitor of Gaussian, Inc. and that
 it will not use this program in any manner prohibited above.
 ---------------------------------------------------------------
  

 Cite this work as:
 Gaussian 16, Revision C.01,
 M. J. Frisch, G. W. Trucks, H. B. Schlegel, G. E. Scuseria, 
 M. A. Robb, J. R. Cheeseman, G. Scalmani, V. Barone, 
 G. A. Petersson, H. Nakatsuji, X. Li, M. Caricato, A. V. Marenich, 
 J. Bloino, B. G. Janesko, R. Gomperts, B. Mennucci, H. P. Hratchian, 
 J. V. Ortiz, A. F. Izmaylov, J. L. Sonnenberg, D. Williams-Young, 
 F. Ding, F. Lipparini, F. Egidi, J. Goings, B. Peng, A. Petrone, 
 T. Henderson, D. Ranasinghe, V. G. Zakrzewski, J. Gao, N. Rega, 
 G. Zheng, W. Liang, M. Hada, M. Ehara, K. Toyota, R. Fukuda, 
 J. Hasegawa, M. Ishida, T. Nakajima, Y. Honda, O. Kitao, H. Nakai, 
 T. Vreven, K. Throssell, J. A. Montgomery, Jr., J. E. Peralta, 
 F. Ogliaro, M. J. Bearpark, J. J. Heyd, E. N. Brothers, K. N. Kudin, 
 V. N. Staroverov, T. A. Keith, R. Kobayashi, J. Normand, 
 K. Raghavachari, A. P. Rendell, J. C. Burant, S. S. Iyengar, 
 J. Tomasi, M. Cossi, J. M. Millam, M. Klene, C. Adamo, R. Cammi, 
 J. W. Ochterski, R. L. Martin, K. Morokuma, O. Farkas, 
 J. B. Foresman, and D. J. Fox, Gaussian, Inc., Wallingford CT, 2019.
 
 ******************************************
 Gaussian 16:  ES64L-G16RevC.01  3-Jul-2019
                 9-Apr-2025 
 ******************************************
 %nprocs=16
 Will use up to   16 processors via shared memory.
 %mem=30GB
 %chk=BDE49_nonexpt_2522_mol1.chk
 ----------------------------------------------------------------------
 #t hf aug-cc-pvdz iop(5/13=1,5/36=2,99/5=2) pseudo=read geom=check gue
 ss=(read,tcheck) scf=(maxcycle=1)
 ----------------------------------------------------------------------
 -----
 title
 -----
 Structure from the checkpoint file:  "BDE49_nonexpt_2522_mol1.chk"
 Charge =  0 Multiplicity = 1
 Z-Matrix found in chk file.
 S,0,0.466422,-1.025978,-0.000003
 C,0,-1.03654,0.122305,-0.000004
 C,0,-2.236537,-0.836476,0.000213
 H,0,-3.165797,-0.257547,0.000337
 H,0,-2.233831,-1.476198,0.885682
 H,0,-2.234097,-1.476245,-0.885224
 C,0,-1.052185,0.987715,1.264303
 H,0,-0.208002,1.680115,1.295953
 H,0,-1.019239,0.371022,2.164473
 H,0,-1.970924,1.584446,1.289703
 Si,0,2.208097,0.236239,-0.000009
 C,0,-1.052422,0.987422,-1.264495
 H,0,-1.019606,0.370541,-2.164541
 H,0,-0.208268,1.679842,-1.296434
 H,0,-1.971186,1.584117,-1.289876
 H,0,3.332455,-0.723536,0.000067
 H,0,2.294209,1.103021,1.198499
 H,0,2.294273,1.102934,-1.198575
 Recover connectivity data from disk.
                    Distance matrix (angstroms):
                    1          2          3          4          5
     1  S    0.000000
     2  C    1.891414   0.000000
     3  C    2.709594   1.535986   0.000000
     4  H    3.712614   2.162874   1.094844   0.000000
     5  H    2.877239   2.184756   1.092386   1.771301   0.000000
     6  H    2.877353   2.184747   1.092387   1.771301   1.770906
     7  C    2.821276   1.532205   2.515608   2.759645   2.758715
     8  H    3.075271   2.189235   3.482402   3.765861   3.772879
     9  H    2.973845   2.178789   2.761139   3.112281   2.553970
    10  H    3.797145   2.162007   2.755757   2.546198   3.098370
    11  Si   2.150959   3.246637   4.572252   5.396532   4.842274
    12  C    2.821277   1.532194   2.515595   2.759729   3.476839
    13  H    2.973848   2.178791   2.761154   3.112447   3.766782
    14  H    3.075289   2.189221   3.482388   3.765909   4.338793
    15  H    3.797144   2.161996   2.755723   2.546266   3.763982
    16  H    2.881947   4.450120   5.570137   6.514939   5.686330
    17  H    3.051205   3.673160   5.072001   5.753121   5.220476
    18  H    3.051210   3.673217   5.072144   5.753318   5.612466
                    6          7          8          9         10
     6  H    0.000000
     7  C    3.476849   0.000000
     8  H    4.338802   1.092275   0.000000
     9  H    3.766819   1.091651   1.768094   0.000000
    10  H    3.763960   1.095817   1.765527   1.772942   0.000000
    11  Si   4.842447   3.576680   3.098682   3.888296   4.576597
    12  C    2.758597   2.528798   2.783660   3.484088   2.779211
    13  H    2.553871   3.484098   3.787968   4.329014   3.782905
    14  H    3.772792   2.783632   2.592387   3.787949   3.131160
    15  H    3.098174   2.779224   3.131221   3.782900   2.579579
    16  H    5.686547   4.873576   4.471207   4.981963   5.925856
    17  H    5.612492   3.349026   2.569746   3.528153   4.293186
    18  H    5.220775   4.156660   3.580110   4.777567   4.961380
                   11         12         13         14         15
    11  Si   0.000000
    12  C    3.576896   0.000000
    13  H    3.888612   1.091651   0.000000
    14  H    3.098956   1.092274   1.768092   0.000000
    15  H    4.576783   1.095818   1.772938   1.765527   0.000000
    16  H    1.478293   4.873771   4.982265   4.471449   5.926029
    17  H    1.481603   4.156879   4.777859   3.580475   4.961558
    18  H    1.481603   3.349337   3.528638   2.570041   4.293485
                   16         17         18
    16  H    0.000000
    17  H    2.418782   0.000000
    18  H    2.418793   2.397074   0.000000
 Framework group  C1[X(C4H12SSi)]
 Deg. of freedom    48
                         Standard orientation:                         
 ---------------------------------------------------------------------
 Center     Atomic      Atomic             Coordinates (Angstroms)
 Number     Number       Type             X           Y           Z
 ---------------------------------------------------------------------
      1         16           0       -0.466422   -1.025978    0.000003
      2          6           0        1.036540    0.122305    0.000004
      3          6           0        2.236537   -0.836476   -0.000213
      4          1           0        3.165797   -0.257547   -0.000337
      5          1           0        2.233831   -1.476198   -0.885682
      6          1           0        2.234097   -1.476245    0.885224
      7          6           0        1.052185    0.987715   -1.264303
      8          1           0        0.208002    1.680115   -1.295953
      9          1           0        1.019239    0.371022   -2.164473
     10          1           0        1.970924    1.584446   -1.289703
     11         14           0       -2.208097    0.236239    0.000009
     12          6           0        1.052422    0.987422    1.264495
     13          1           0        1.019606    0.370541    2.164541
     14          1           0        0.208268    1.679842    1.296434
     15          1           0        1.971186    1.584117    1.289876
     16          1           0       -3.332455   -0.723536   -0.000067
     17          1           0       -2.294209    1.103021   -1.198499
     18          1           0       -2.294273    1.102934    1.198575
 ---------------------------------------------------------------------
 Rotational constants (GHZ):           3.4993479           1.4293204           1.3301371
 ======================================================================================================
                                       Pseudopotential Parameters
 ======================================================================================================
  Center     Atomic      Valence      Angular      Power
  Number     Number     Electrons     Momentum     of R      Exponent        Coefficient   SO-Coeffient
 ======================================================================================================
    1         16           16
                                      G and up 
                                                     0        0.0000010       -0.00031824    0.00000000
                                                     2        0.1200000       -0.02709645    0.00000000
                                                     2        0.1400000        0.07756871    0.00000000
                                                     2        0.1800000       -0.09276244    0.00000000
                                                     2        0.2400000        0.04926396    0.00000000
                                                     2        0.4000000        0.19256092    0.00000000
                                                     2        0.6000000       -0.68044142    0.00000000
                                                     2        1.2000000        2.88179630    0.00000000
                                      S - G
                                                     0        0.0000010       -0.00682297    0.00000000
                                                     2        0.1200000        0.09894847    0.00000000
                                                     2        0.2400000       -0.09649386    0.00000000
                                                     2        0.5000000       -0.86533519    0.00000000
                                      P - G
                                                     0        0.0000010       -0.03724640    0.00000000
                                                     2        0.1200000        0.13565737    0.00000000
                                                     2        0.1600000       -0.58061535    0.00000000
                                                     2        0.2800000        1.15300814    0.00000000
                                                     2        0.6000000       -1.81693648    0.00000000
                                      D - G
                                                     0        0.0000010       -0.04698793    0.00000000
                                                     2        0.1200000        0.09075241    0.00000000
                                                     2        0.2000000       -0.23702631    0.00000000
                                                     2        0.4000000        0.07730186    0.00000000
                                      F - G
                                                     0        0.0000010        0.08145595    0.00000000
                                                     2        0.1200000       -0.08234030    0.00000000
                                                     2        0.2200000        0.18834854    0.00000000
                                                     2        0.4000000       -0.20344406    0.00000000
    2          6            6
                                      G and up 
                                                     0        0.0000010       -0.00007288    0.00000000
                                                     2        0.1200000        0.10466671    0.00000000
                                                     2        0.1400000       -0.65716157    0.00000000
                                                     2        0.1600000        1.18890794    0.00000000
                                                     2        0.2000000       -1.25772850    0.00000000
                                                     2        0.2600000        1.01188378    0.00000000
                                                     2        0.4000000       -1.09380874    0.00000000
                                                     2        0.5000000        0.96944888    0.00000000
                                                     2        1.0000000       -0.79256938    0.00000000
                                                     2        3.0000000        1.06443276    0.00000000
                                      S - G
                                                     0        0.0000010       -0.00635295    0.00000000
                                                     2        0.1200000        0.16918955    0.00000000
                                                     2        0.1600000       -0.38862576    0.00000000
                                                     2        0.2800000        0.25638263    0.00000000
                                                     2        0.5000000        0.29628419    0.00000000
                                                     2        0.9000000       -0.28791512    0.00000000
                                      P - G
                                                     0        0.0000010       -0.04756931    0.00000000
                                                     2        0.1200000        0.28430375    0.00000000
                                                     2        0.1600000       -0.69640032    0.00000000
                                                     2        0.2600000        1.13005668    0.00000000
                                                     2        0.4000000       -1.31433324    0.00000000
                                                     2        0.7000000        0.91526469    0.00000000
                                      D - G
                                                     0        0.0000010       -0.11496411    0.00000000
                                                     2        0.1200000        0.16620776    0.00000000
                                                     2        0.1800000       -0.30959819    0.00000000
                                                     2        0.3000000        0.16621458    0.00000000
                                                     2        0.6000000        0.27350556    0.00000000
                                      F - G
                                                     0        0.0000010        0.12037550    0.00000000
                                                     2        0.1200000       -0.48737077    0.00000000
                                                     2        0.1400000        0.58315350    0.00000000
                                                     2        0.3000000        0.00005188    0.00000000
                                                     2        0.5000000       -1.16063549    0.00000000
                                                     2        0.8000000        2.09053308    0.00000000
    3          6            6
                                      G and up 
                                                     0        0.0000010       -0.00007288    0.00000000
                                                     2        0.1200000        0.10466671    0.00000000
                                                     2        0.1400000       -0.65716157    0.00000000
                                                     2        0.1600000        1.18890794    0.00000000
                                                     2        0.2000000       -1.25772850    0.00000000
                                                     2        0.2600000        1.01188378    0.00000000
                                                     2        0.4000000       -1.09380874    0.00000000
                                                     2        0.5000000        0.96944888    0.00000000
                                                     2        1.0000000       -0.79256938    0.00000000
                                                     2        3.0000000        1.06443276    0.00000000
                                      S - G
                                                     0        0.0000010       -0.00635295    0.00000000
                                                     2        0.1200000        0.16918955    0.00000000
                                                     2        0.1600000       -0.38862576    0.00000000
                                                     2        0.2800000        0.25638263    0.00000000
                                                     2        0.5000000        0.29628419    0.00000000
                                                     2        0.9000000       -0.28791512    0.00000000
                                      P - G
                                                     0        0.0000010       -0.04756931    0.00000000
                                                     2        0.1200000        0.28430375    0.00000000
                                                     2        0.1600000       -0.69640032    0.00000000
                                                     2        0.2600000        1.13005668    0.00000000
                                                     2        0.4000000       -1.31433324    0.00000000
                                                     2        0.7000000        0.91526469    0.00000000
                                      D - G
                                                     0        0.0000010       -0.11496411    0.00000000
                                                     2        0.1200000        0.16620776    0.00000000
                                                     2        0.1800000       -0.30959819    0.00000000
                                                     2        0.3000000        0.16621458    0.00000000
                                                     2        0.6000000        0.27350556    0.00000000
                                      F - G
                                                     0        0.0000010        0.12037550    0.00000000
                                                     2        0.1200000       -0.48737077    0.00000000
                                                     2        0.1400000        0.58315350    0.00000000
                                                     2        0.3000000        0.00005188    0.00000000
                                                     2        0.5000000       -1.16063549    0.00000000
                                                     2        0.8000000        2.09053308    0.00000000
    4          1            1
                                      F and up 
                                                     0        0.0000010       -0.00007675    0.00000000
                                                     2        0.1200000        0.05352699    0.00000000
                                                     2        0.1400000       -0.25123645    0.00000000
                                                     2        0.1600000        0.32188106    0.00000000
                                                     2        0.2200000       -0.25206857    0.00000000
                                                     2        0.3000000        0.19290477    0.00000000
                                                     2        0.5000000       -0.10129770    0.00000000
                                                     2        0.9000000        0.00314995    0.00000000
                                                     2        1.5000000        0.18401192    0.00000000
                                      S - F
                                                     0        0.0000010        0.08065976    0.00000000
                                                     2        0.1200000       -0.09231673    0.00000000
                                                     2        0.1600000       -0.03278082    0.00000000
                                                     2        0.2800000        0.38423402    0.00000000
                                                     2        0.6000000       -1.09357590    0.00000000
                                                     2        1.1000000        1.53099489    0.00000000
                                                     2        3.0000000       -2.63300202    0.00000000
                                      P - F
                                                     0        0.0000010       -0.11638665    0.00000000
                                                     2        0.1200000        0.35468655    0.00000000
                                                     2        0.1600000       -0.59160923    0.00000000
                                                     2        0.3000000        0.49390547    0.00000000
                                                     2        0.6000000       -0.37949835    0.00000000
                                                     2        1.6000000        0.89304688    0.00000000
                                      D - F
                                                     0        0.0000010        0.05443663    0.00000000
                                                     2        0.1200000       -0.29679479    0.00000000
                                                     2        0.1400000        0.36849872    0.00000000
                                                     2        0.2400000        0.02793449    0.00000000
                                                     2        0.4000000       -0.46312857    0.00000000
                                                     2        0.7000000        0.97587598    0.00000000
                                                     2        1.5000000       -2.43431102    0.00000000
    5          1            1
                                      F and up 
                                                     0        0.0000010       -0.00007675    0.00000000
                                                     2        0.1200000        0.05352699    0.00000000
                                                     2        0.1400000       -0.25123645    0.00000000
                                                     2        0.1600000        0.32188106    0.00000000
                                                     2        0.2200000       -0.25206857    0.00000000
                                                     2        0.3000000        0.19290477    0.00000000
                                                     2        0.5000000       -0.10129770    0.00000000
                                                     2        0.9000000        0.00314995    0.00000000
                                                     2        1.5000000        0.18401192    0.00000000
                                      S - F
                                                     0        0.0000010        0.08065976    0.00000000
                                                     2        0.1200000       -0.09231673    0.00000000
                                                     2        0.1600000       -0.03278082    0.00000000
                                                     2        0.2800000        0.38423402    0.00000000
                                                     2        0.6000000       -1.09357590    0.00000000
                                                     2        1.1000000        1.53099489    0.00000000
                                                     2        3.0000000       -2.63300202    0.00000000
                                      P - F
                                                     0        0.0000010       -0.11638665    0.00000000
                                                     2        0.1200000        0.35468655    0.00000000
                                                     2        0.1600000       -0.59160923    0.00000000
                                                     2        0.3000000        0.49390547    0.00000000
                                                     2        0.6000000       -0.37949835    0.00000000
                                                     2        1.6000000        0.89304688    0.00000000
                                      D - F
                                                     0        0.0000010        0.05443663    0.00000000
                                                     2        0.1200000       -0.29679479    0.00000000
                                                     2        0.1400000        0.36849872    0.00000000
                                                     2        0.2400000        0.02793449    0.00000000
                                                     2        0.4000000       -0.46312857    0.00000000
                                                     2        0.7000000        0.97587598    0.00000000
                                                     2        1.5000000       -2.43431102    0.00000000
    6          1            1
                                      F and up 
                                                     0        0.0000010       -0.00007675    0.00000000
                                                     2        0.1200000        0.05352699    0.00000000
                                                     2        0.1400000       -0.25123645    0.00000000
                                                     2        0.1600000        0.32188106    0.00000000
                                                     2        0.2200000       -0.25206857    0.00000000
                                                     2        0.3000000        0.19290477    0.00000000
                                                     2        0.5000000       -0.10129770    0.00000000
                                                     2        0.9000000        0.00314995    0.00000000
                                                     2        1.5000000        0.18401192    0.00000000
                                      S - F
                                                     0        0.0000010        0.08065976    0.00000000
                                                     2        0.1200000       -0.09231673    0.00000000
                                                     2        0.1600000       -0.03278082    0.00000000
                                                     2        0.2800000        0.38423402    0.00000000
                                                     2        0.6000000       -1.09357590    0.00000000
                                                     2        1.1000000        1.53099489    0.00000000
                                                     2        3.0000000       -2.63300202    0.00000000
                                      P - F
                                                     0        0.0000010       -0.11638665    0.00000000
                                                     2        0.1200000        0.35468655    0.00000000
                                                     2        0.1600000       -0.59160923    0.00000000
                                                     2        0.3000000        0.49390547    0.00000000
                                                     2        0.6000000       -0.37949835    0.00000000
                                                     2        1.6000000        0.89304688    0.00000000
                                      D - F
                                                     0        0.0000010        0.05443663    0.00000000
                                                     2        0.1200000       -0.29679479    0.00000000
                                                     2        0.1400000        0.36849872    0.00000000
                                                     2        0.2400000        0.02793449    0.00000000
                                                     2        0.4000000       -0.46312857    0.00000000
                                                     2        0.7000000        0.97587598    0.00000000
                                                     2        1.5000000       -2.43431102    0.00000000
    7          6            6
                                      G and up 
                                                     0        0.0000010       -0.00007288    0.00000000
                                                     2        0.1200000        0.10466671    0.00000000
                                                     2        0.1400000       -0.65716157    0.00000000
                                                     2        0.1600000        1.18890794    0.00000000
                                                     2        0.2000000       -1.25772850    0.00000000
                                                     2        0.2600000        1.01188378    0.00000000
                                                     2        0.4000000       -1.09380874    0.00000000
                                                     2        0.5000000        0.96944888    0.00000000
                                                     2        1.0000000       -0.79256938    0.00000000
                                                     2        3.0000000        1.06443276    0.00000000
                                      S - G
                                                     0        0.0000010       -0.00635295    0.00000000
                                                     2        0.1200000        0.16918955    0.00000000
                                                     2        0.1600000       -0.38862576    0.00000000
                                                     2        0.2800000        0.25638263    0.00000000
                                                     2        0.5000000        0.29628419    0.00000000
                                                     2        0.9000000       -0.28791512    0.00000000
                                      P - G
                                                     0        0.0000010       -0.04756931    0.00000000
                                                     2        0.1200000        0.28430375    0.00000000
                                                     2        0.1600000       -0.69640032    0.00000000
                                                     2        0.2600000        1.13005668    0.00000000
                                                     2        0.4000000       -1.31433324    0.00000000
                                                     2        0.7000000        0.91526469    0.00000000
                                      D - G
                                                     0        0.0000010       -0.11496411    0.00000000
                                                     2        0.1200000        0.16620776    0.00000000
                                                     2        0.1800000       -0.30959819    0.00000000
                                                     2        0.3000000        0.16621458    0.00000000
                                                     2        0.6000000        0.27350556    0.00000000
                                      F - G
                                                     0        0.0000010        0.12037550    0.00000000
                                                     2        0.1200000       -0.48737077    0.00000000
                                                     2        0.1400000        0.58315350    0.00000000
                                                     2        0.3000000        0.00005188    0.00000000
                                                     2        0.5000000       -1.16063549    0.00000000
                                                     2        0.8000000        2.09053308    0.00000000
    8          1            1
                                      F and up 
                                                     0        0.0000010       -0.00007675    0.00000000
                                                     2        0.1200000        0.05352699    0.00000000
                                                     2        0.1400000       -0.25123645    0.00000000
                                                     2        0.1600000        0.32188106    0.00000000
                                                     2        0.2200000       -0.25206857    0.00000000
                                                     2        0.3000000        0.19290477    0.00000000
                                                     2        0.5000000       -0.10129770    0.00000000
                                                     2        0.9000000        0.00314995    0.00000000
                                                     2        1.5000000        0.18401192    0.00000000
                                      S - F
                                                     0        0.0000010        0.08065976    0.00000000
                                                     2        0.1200000       -0.09231673    0.00000000
                                                     2        0.1600000       -0.03278082    0.00000000
                                                     2        0.2800000        0.38423402    0.00000000
                                                     2        0.6000000       -1.09357590    0.00000000
                                                     2        1.1000000        1.53099489    0.00000000
                                                     2        3.0000000       -2.63300202    0.00000000
                                      P - F
                                                     0        0.0000010       -0.11638665    0.00000000
                                                     2        0.1200000        0.35468655    0.00000000
                                                     2        0.1600000       -0.59160923    0.00000000
                                                     2        0.3000000        0.49390547    0.00000000
                                                     2        0.6000000       -0.37949835    0.00000000
                                                     2        1.6000000        0.89304688    0.00000000
                                      D - F
                                                     0        0.0000010        0.05443663    0.00000000
                                                     2        0.1200000       -0.29679479    0.00000000
                                                     2        0.1400000        0.36849872    0.00000000
                                                     2        0.2400000        0.02793449    0.00000000
                                                     2        0.4000000       -0.46312857    0.00000000
                                                     2        0.7000000        0.97587598    0.00000000
                                                     2        1.5000000       -2.43431102    0.00000000
    9          1            1
                                      F and up 
                                                     0        0.0000010       -0.00007675    0.00000000
                                                     2        0.1200000        0.05352699    0.00000000
                                                     2        0.1400000       -0.25123645    0.00000000
                                                     2        0.1600000        0.32188106    0.00000000
                                                     2        0.2200000       -0.25206857    0.00000000
                                                     2        0.3000000        0.19290477    0.00000000
                                                     2        0.5000000       -0.10129770    0.00000000
                                                     2        0.9000000        0.00314995    0.00000000
                                                     2        1.5000000        0.18401192    0.00000000
                                      S - F
                                                     0        0.0000010        0.08065976    0.00000000
                                                     2        0.1200000       -0.09231673    0.00000000
                                                     2        0.1600000       -0.03278082    0.00000000
                                                     2        0.2800000        0.38423402    0.00000000
                                                     2        0.6000000       -1.09357590    0.00000000
                                                     2        1.1000000        1.53099489    0.00000000
                                                     2        3.0000000       -2.63300202    0.00000000
                                      P - F
                                                     0        0.0000010       -0.11638665    0.00000000
                                                     2        0.1200000        0.35468655    0.00000000
                                                     2        0.1600000       -0.59160923    0.00000000
                                                     2        0.3000000        0.49390547    0.00000000
                                                     2        0.6000000       -0.37949835    0.00000000
                                                     2        1.6000000        0.89304688    0.00000000
                                      D - F
                                                     0        0.0000010        0.05443663    0.00000000
                                                     2        0.1200000       -0.29679479    0.00000000
                                                     2        0.1400000        0.36849872    0.00000000
                                                     2        0.2400000        0.02793449    0.00000000
                                                     2        0.4000000       -0.46312857    0.00000000
                                                     2        0.7000000        0.97587598    0.00000000
                                                     2        1.5000000       -2.43431102    0.00000000
   10          1            1
                                      F and up 
                                                     0        0.0000010       -0.00007675    0.00000000
                                                     2        0.1200000        0.05352699    0.00000000
                                                     2        0.1400000       -0.25123645    0.00000000
                                                     2        0.1600000        0.32188106    0.00000000
                                                     2        0.2200000       -0.25206857    0.00000000
                                                     2        0.3000000        0.19290477    0.00000000
                                                     2        0.5000000       -0.10129770    0.00000000
                                                     2        0.9000000        0.00314995    0.00000000
                                                     2        1.5000000        0.18401192    0.00000000
                                      S - F
                                                     0        0.0000010        0.08065976    0.00000000
                                                     2        0.1200000       -0.09231673    0.00000000
                                                     2        0.1600000       -0.03278082    0.00000000
                                                     2        0.2800000        0.38423402    0.00000000
                                                     2        0.6000000       -1.09357590    0.00000000
                                                     2        1.1000000        1.53099489    0.00000000
                                                     2        3.0000000       -2.63300202    0.00000000
                                      P - F
                                                     0        0.0000010       -0.11638665    0.00000000
                                                     2        0.1200000        0.35468655    0.00000000
                                                     2        0.1600000       -0.59160923    0.00000000
                                                     2        0.3000000        0.49390547    0.00000000
                                                     2        0.6000000       -0.37949835    0.00000000
                                                     2        1.6000000        0.89304688    0.00000000
                                      D - F
                                                     0        0.0000010        0.05443663    0.00000000
                                                     2        0.1200000       -0.29679479    0.00000000
                                                     2        0.1400000        0.36849872    0.00000000
                                                     2        0.2400000        0.02793449    0.00000000
                                                     2        0.4000000       -0.46312857    0.00000000
                                                     2        0.7000000        0.97587598    0.00000000
                                                     2        1.5000000       -2.43431102    0.00000000
   11         14           14
                                      G and up 
                                                     0        0.0000010       -0.00102307    0.00000000
                                                     2        0.1200000        0.00490993    0.00000000
                                                     2        0.1400000       -0.01106599    0.00000000
                                                     2        0.2200000        0.05301915    0.00000000
                                                     2        0.3000000       -0.05427393    0.00000000
                                                     2        0.6000000       -0.20148550    0.00000000
                                      S - G
                                                     0        0.0000010       -0.00096383    0.00000000
                                                     2        0.1200000       -0.05566998    0.00000000
                                                     2        0.2800000        0.06986809    0.00000000
                                                     2        0.8000000        0.18625194    0.00000000
                                      P - G
                                                     0        0.0000010       -0.03837268    0.00000000
                                                     2        0.1200000       -0.19497759    0.00000000
                                                     2        0.1400000        0.28757076    0.00000000
                                                     2        0.2800000       -0.24963270    0.00000000
                                                     2        1.0000000        1.25739652    0.00000000
                                      D - G
                                                     0        0.0000010        0.02249755    0.00000000
                                                     2        0.1800000       -0.04521011    0.00000000
                                                     2        0.4000000        0.14019324    0.00000000
                                      F - G
                                                     0        0.0000010        0.04694636    0.00000000
                                                     2        0.1200000        0.05516301    0.00000000
                                                     2        0.1600000       -0.18839048    0.00000000
                                                     2        0.4000000        0.63201960    0.00000000
   12          6            6
                                      G and up 
                                                     0        0.0000010       -0.00007288    0.00000000
                                                     2        0.1200000        0.10466671    0.00000000
                                                     2        0.1400000       -0.65716157    0.00000000
                                                     2        0.1600000        1.18890794    0.00000000
                                                     2        0.2000000       -1.25772850    0.00000000
                                                     2        0.2600000        1.01188378    0.00000000
                                                     2        0.4000000       -1.09380874    0.00000000
                                                     2        0.5000000        0.96944888    0.00000000
                                                     2        1.0000000       -0.79256938    0.00000000
                                                     2        3.0000000        1.06443276    0.00000000
                                      S - G
                                                     0        0.0000010       -0.00635295    0.00000000
                                                     2        0.1200000        0.16918955    0.00000000
                                                     2        0.1600000       -0.38862576    0.00000000
                                                     2        0.2800000        0.25638263    0.00000000
                                                     2        0.5000000        0.29628419    0.00000000
                                                     2        0.9000000       -0.28791512    0.00000000
                                      P - G
                                                     0        0.0000010       -0.04756931    0.00000000
                                                     2        0.1200000        0.28430375    0.00000000
                                                     2        0.1600000       -0.69640032    0.00000000
                                                     2        0.2600000        1.13005668    0.00000000
                                                     2        0.4000000       -1.31433324    0.00000000
                                                     2        0.7000000        0.91526469    0.00000000
                                      D - G
                                                     0        0.0000010       -0.11496411    0.00000000
                                                     2        0.1200000        0.16620776    0.00000000
                                                     2        0.1800000       -0.30959819    0.00000000
                                                     2        0.3000000        0.16621458    0.00000000
                                                     2        0.6000000        0.27350556    0.00000000
                                      F - G
                                                     0        0.0000010        0.12037550    0.00000000
                                                     2        0.1200000       -0.48737077    0.00000000
                                                     2        0.1400000        0.58315350    0.00000000
                                                     2        0.3000000        0.00005188    0.00000000
                                                     2        0.5000000       -1.16063549    0.00000000
                                                     2        0.8000000        2.09053308    0.00000000
   13          1            1
                                      F and up 
                                                     0        0.0000010       -0.00007675    0.00000000
                                                     2        0.1200000        0.05352699    0.00000000
                                                     2        0.1400000       -0.25123645    0.00000000
                                                     2        0.1600000        0.32188106    0.00000000
                                                     2        0.2200000       -0.25206857    0.00000000
                                                     2        0.3000000        0.19290477    0.00000000
                                                     2        0.5000000       -0.10129770    0.00000000
                                                     2        0.9000000        0.00314995    0.00000000
                                                     2        1.5000000        0.18401192    0.00000000
                                      S - F
                                                     0        0.0000010        0.08065976    0.00000000
                                                     2        0.1200000       -0.09231673    0.00000000
                                                     2        0.1600000       -0.03278082    0.00000000
                                                     2        0.2800000        0.38423402    0.00000000
                                                     2        0.6000000       -1.09357590    0.00000000
                                                     2        1.1000000        1.53099489    0.00000000
                                                     2        3.0000000       -2.63300202    0.00000000
                                      P - F
                                                     0        0.0000010       -0.11638665    0.00000000
                                                     2        0.1200000        0.35468655    0.00000000
                                                     2        0.1600000       -0.59160923    0.00000000
                                                     2        0.3000000        0.49390547    0.00000000
                                                     2        0.6000000       -0.37949835    0.00000000
                                                     2        1.6000000        0.89304688    0.00000000
                                      D - F
                                                     0        0.0000010        0.05443663    0.00000000
                                                     2        0.1200000       -0.29679479    0.00000000
                                                     2        0.1400000        0.36849872    0.00000000
                                                     2        0.2400000        0.02793449    0.00000000
                                                     2        0.4000000       -0.46312857    0.00000000
                                                     2        0.7000000        0.97587598    0.00000000
                                                     2        1.5000000       -2.43431102    0.00000000
   14          1            1
                                      F and up 
                                                     0        0.0000010       -0.00007675    0.00000000
                                                     2        0.1200000        0.05352699    0.00000000
                                                     2        0.1400000       -0.25123645    0.00000000
                                                     2        0.1600000        0.32188106    0.00000000
                                                     2        0.2200000       -0.25206857    0.00000000
                                                     2        0.3000000        0.19290477    0.00000000
                                                     2        0.5000000       -0.10129770    0.00000000
                                                     2        0.9000000        0.00314995    0.00000000
                                                     2        1.5000000        0.18401192    0.00000000
                                      S - F
                                                     0        0.0000010        0.08065976    0.00000000
                                                     2        0.1200000       -0.09231673    0.00000000
                                                     2        0.1600000       -0.03278082    0.00000000
                                                     2        0.2800000        0.38423402    0.00000000
                                                     2        0.6000000       -1.09357590    0.00000000
                                                     2        1.1000000        1.53099489    0.00000000
                                                     2        3.0000000       -2.63300202    0.00000000
                                      P - F
                                                     0        0.0000010       -0.11638665    0.00000000
                                                     2        0.1200000        0.35468655    0.00000000
                                                     2        0.1600000       -0.59160923    0.00000000
                                                     2        0.3000000        0.49390547    0.00000000
                                                     2        0.6000000       -0.37949835    0.00000000
                                                     2        1.6000000        0.89304688    0.00000000
                                      D - F
                                                     0        0.0000010        0.05443663    0.00000000
                                                     2        0.1200000       -0.29679479    0.00000000
                                                     2        0.1400000        0.36849872    0.00000000
                                                     2        0.2400000        0.02793449    0.00000000
                                                     2        0.4000000       -0.46312857    0.00000000
                                                     2        0.7000000        0.97587598    0.00000000
                                                     2        1.5000000       -2.43431102    0.00000000
   15          1            1
                                      F and up 
                                                     0        0.0000010       -0.00007675    0.00000000
                                                     2        0.1200000        0.05352699    0.00000000
                                                     2        0.1400000       -0.25123645    0.00000000
                                                     2        0.1600000        0.32188106    0.00000000
                                                     2        0.2200000       -0.25206857    0.00000000
                                                     2        0.3000000        0.19290477    0.00000000
                                                     2        0.5000000       -0.10129770    0.00000000
                                                     2        0.9000000        0.00314995    0.00000000
                                                     2        1.5000000        0.18401192    0.00000000
                                      S - F
                                                     0        0.0000010        0.08065976    0.00000000
                                                     2        0.1200000       -0.09231673    0.00000000
                                                     2        0.1600000       -0.03278082    0.00000000
[...]
                                                     2        0.1200000        0.35468655    0.00000000
                                                     2        0.1600000       -0.59160923    0.00000000
                                                     2        0.3000000        0.49390547    0.00000000
                                                     2        0.6000000       -0.37949835    0.00000000
                                                     2        1.6000000        0.89304688    0.00000000
                                      D - F
                                                     0        0.0000010        0.05443663    0.00000000
                                                     2        0.1200000       -0.29679479    0.00000000
                                                     2        0.1400000        0.36849872    0.00000000
                                                     2        0.2400000        0.02793449    0.00000000
                                                     2        0.4000000       -0.46312857    0.00000000
                                                     2        0.7000000        0.97587598    0.00000000
                                                     2        1.5000000       -2.43431102    0.00000000
   16          1            1
                                      F and up 
                                                     0        0.0000010       -0.00007675    0.00000000
                                                     2        0.1200000        0.05352699    0.00000000
                                                     2        0.1400000       -0.25123645    0.00000000
                                                     2        0.1600000        0.32188106    0.00000000
                                                     2        0.2200000       -0.25206857    0.00000000
                                                     2        0.3000000        0.19290477    0.00000000
                                                     2        0.5000000       -0.10129770    0.00000000
                                                     2        0.9000000        0.00314995    0.00000000
                                                     2        1.5000000        0.18401192    0.00000000
                                      S - F
                                                     0        0.0000010        0.08065976    0.00000000
                                                     2        0.1200000       -0.09231673    0.00000000
                                                     2        0.1600000       -0.03278082    0.00000000
                                                     2        0.2800000        0.38423402    0.00000000
                                                     2        0.6000000       -1.09357590    0.00000000
                                                     2        1.1000000        1.53099489    0.00000000
                                                     2        3.0000000       -2.63300202    0.00000000
                                      P - F
                                                     0        0.0000010       -0.11638665    0.00000000
                                                     2        0.1200000        0.35468655    0.00000000
                                                     2        0.1600000       -0.59160923    0.00000000
                                                     2        0.3000000        0.49390547    0.00000000
                                                     2        0.6000000       -0.37949835    0.00000000
                                                     2        1.6000000        0.89304688    0.00000000
                                      D - F
                                                     0        0.0000010        0.05443663    0.00000000
                                                     2        0.1200000       -0.29679479    0.00000000
                                                     2        0.1400000        0.36849872    0.00000000
                                                     2        0.2400000        0.02793449    0.00000000
                                                     2        0.4000000       -0.46312857    0.00000000
                                                     2        0.7000000        0.97587598    0.00000000
                                                     2        1.5000000       -2.43431102    0.00000000
   17          1            1
                                      F and up 
                                                     0        0.0000010       -0.00007675    0.00000000
                                                     2        0.1200000        0.05352699    0.00000000
                                                     2        0.1400000       -0.25123645    0.00000000
                                                     2        0.1600000        0.32188106    0.00000000
                                                     2        0.2200000       -0.25206857    0.00000000
                                                     2        0.3000000        0.19290477    0.00000000
                                                     2        0.5000000       -0.10129770    0.00000000
                                                     2        0.9000000        0.00314995    0.00000000
                                                     2        1.5000000        0.18401192    0.00000000
                                      S - F
                                                     0        0.0000010        0.08065976    0.00000000
                                                     2        0.1200000       -0.09231673    0.00000000
                                                     2        0.1600000       -0.03278082    0.00000000
                                                     2        0.2800000        0.38423402    0.00000000
                                                     2        0.6000000       -1.09357590    0.00000000
                                                     2        1.1000000        1.53099489    0.00000000
                                                     2        3.0000000       -2.63300202    0.00000000
                                      P - F
                                                     0        0.0000010       -0.11638665    0.00000000
                                                     2        0.1200000        0.35468655    0.00000000
                                                     2        0.1600000       -0.59160923    0.00000000
                                                     2        0.3000000        0.49390547    0.00000000
                                                     2        0.6000000       -0.37949835    0.00000000
                                                     2        1.6000000        0.89304688    0.00000000
                                      D - F
                                                     0        0.0000010        0.05443663    0.00000000
                                                     2        0.1200000       -0.29679479    0.00000000
                                                     2        0.1400000        0.36849872    0.00000000
                                                     2        0.2400000        0.02793449    0.00000000
                                                     2        0.4000000       -0.46312857    0.00000000
                                                     2        0.7000000        0.97587598    0.00000000
                                                     2        1.5000000       -2.43431102    0.00000000
   18          1            1
                                      F and up 
                                                     0        0.0000010       -0.00007675    0.00000000
                                                     2        0.1200000        0.05352699    0.00000000
                                                     2        0.1400000       -0.25123645    0.00000000
                                                     2        0.1600000        0.32188106    0.00000000
                                                     2        0.2200000       -0.25206857    0.00000000
                                                     2        0.3000000        0.19290477    0.00000000
                                                     2        0.5000000       -0.10129770    0.00000000
                                                     2        0.9000000        0.00314995    0.00000000
                                                     2        1.5000000        0.18401192    0.00000000
                                      S - F
                                                     0        0.0000010        0.08065976    0.00000000
                                                     2        0.1200000       -0.09231673    0.00000000
                                                     2        0.1600000       -0.03278082    0.00000000
                                                     2        0.2800000        0.38423402    0.00000000
                                                     2        0.6000000       -1.09357590    0.00000000
                                                     2        1.1000000        1.53099489    0.00000000
                                                     2        3.0000000       -2.63300202    0.00000000
                                      P - F
                                                     0        0.0000010       -0.11638665    0.00000000
                                                     2        0.1200000        0.35468655    0.00000000
                                                     2        0.1600000       -0.59160923    0.00000000
                                                     2        0.3000000        0.49390547    0.00000000
                                                     2        0.6000000       -0.37949835    0.00000000
                                                     2        1.6000000        0.89304688    0.00000000
                                      D - F
                                                     0        0.0000010        0.05443663    0.00000000
                                                     2        0.1200000       -0.29679479    0.00000000
                                                     2        0.1400000        0.36849872    0.00000000
                                                     2        0.2400000        0.02793449    0.00000000
                                                     2        0.4000000       -0.46312857    0.00000000
                                                     2        0.7000000        0.97587598    0.00000000
                                                     2        1.5000000       -2.43431102    0.00000000
 ======================================================================================================
   254 basis functions,   466 primitive gaussians,   266 cartesian basis functions
    33 alpha electrons       33 beta electrons
       nuclear repulsion energy       386.8521484718 Hartrees.
 NAtoms=   18 NActive=   18 NUniq=   18 SFac= 1.00D+00 NAtFMM=   60 NAOKFM=F Big=F
   1 Symmetry operations used in ECPInt.
 ECPInt:  NShTT=    7021 NPrTT=   34913 LenC2=    7012 LenP2D=   26706.
 LDataN:  DoStor=T MaxTD1= 6 Len=  172
 Initial guess from the checkpoint file:  "BDE49_nonexpt_2522_mol1.chk"
 B after Tr=    -0.000000   -0.000000   -0.000000
         Rot=    0.000000   -0.000000    1.000000   -0.000000 Ang=-180.00 deg.
 >>>>>>>>>> Convergence criterion not met.
 SCF Done:  E(RHF) =  -845.234427954     A.U. after    2 cycles
            NFock=  1  Conv=0.86D-02     -V/T= 2.0013

 **********************************************************************

            Population analysis using the SCF Density.

 **********************************************************************

 Orbital symmetries:
       Occupied  (A) (A) (A) (A) (A) (A) (A) (A) (A) (A) (A) (A)
                 (A) (A) (A) (A) (A) (A) (A) (A) (A) (A) (A) (A)
                 (A) (A) (A) (A) (A) (A) (A) (A) (A)
       Virtual   (A) (A) (A) (A) (A) (A) (A) (A) (A) (A) (A) (A)
                 (A) (A) (A) (A) (A) (A) (A) (A) (A) (A) (A) (A)
                 (A) (A) (A) (A) (A) (A) (A) (A) (A) (A) (A) (A)
                 (A) (A) (A) (A) (A) (A) (A) (A) (A) (A) (A) (A)
                 (A) (A) (A) (A) (A) (A) (A) (A) (A) (A) (A) (A)
                 (A) (A) (A) (A) (A) (A) (A) (A) (A) (A) (A) (A)
                 (A) (A) (A) (A) (A) (A) (A) (A) (A) (A) (A) (A)
                 (A) (A) (A) (A) (A) (A) (A) (A) (A) (A) (A) (A)
                 (A) (A) (A) (A) (A) (A) (A) (A) (A) (A) (A) (A)
                 (A) (A) (A) (A) (A) (A) (A) (A) (A) (A) (A) (A)
                 (A) (A) (A) (A) (A) (A) (A) (A) (A) (A) (A) (A)
                 (A) (A) (A) (A) (A) (A) (A) (A) (A) (A) (A) (A)
                 (A) (A) (A) (A) (A) (A) (A) (A) (A) (A) (A) (A)
                 (A) (A) (A) (A) (A) (A) (A) (A) (A) (A) (A) (A)
                 (A) (A) (A) (A) (A) (A) (A) (A) (A) (A) (A) (A)
                 (A) (A) (A) (A) (A) (A) (A) (A) (A) (A) (A) (A)
                 (A) (A) (A) (A) (A) (A) (A) (A) (A) (A) (A) (A)
                 (A) (A) (A) (A) (A) (A) (A) (A) (A) (A) (A) (A)
                 (A) (A) (A) (A) (A)
 The electronic state is 1-A.
 Alpha  occ. eigenvalues --  -93.92677 -69.55039 -11.29013 -11.23564 -11.23550
 Alpha  occ. eigenvalues --  -11.23475  -8.20959  -6.21893  -6.18752  -6.18601
 Alpha  occ. eigenvalues --   -6.18428  -3.97301  -3.97231  -3.97197  -1.12211
 Alpha  occ. eigenvalues --   -0.96357  -0.94816  -0.94739  -0.76831  -0.71349
 Alpha  occ. eigenvalues --   -0.62851  -0.62099  -0.61834  -0.56291  -0.56071
 Alpha  occ. eigenvalues --   -0.53343  -0.50765  -0.49913  -0.49489  -0.49478
 Alpha  occ. eigenvalues --   -0.45035  -0.41631  -0.35885
 Alpha virt. eigenvalues --    0.03496   0.03715   0.04187   0.04235   0.05682
 Alpha virt. eigenvalues --    0.06293   0.06312   0.06780   0.07011   0.08567
 Alpha virt. eigenvalues --    0.09244   0.09733   0.10267   0.11048   0.11681
 Alpha virt. eigenvalues --    0.12600   0.13132   0.14048   0.15072   0.15769
 Alpha virt. eigenvalues --    0.16048   0.16343   0.17132   0.17297   0.17801
 Alpha virt. eigenvalues --    0.18334   0.19118   0.19252   0.20083   0.20114
 Alpha virt. eigenvalues --    0.21271   0.21408   0.21618   0.21878   0.22604
 Alpha virt. eigenvalues --    0.22959   0.23430   0.24585   0.26987   0.27429
 Alpha virt. eigenvalues --    0.28588   0.29528   0.30462   0.31320   0.33131
 Alpha virt. eigenvalues --    0.34879   0.34944   0.35912   0.36180   0.37839
 Alpha virt. eigenvalues --    0.38055   0.39865   0.40907   0.41454   0.42040
 Alpha virt. eigenvalues --    0.42844   0.43102   0.45027   0.45176   0.45512
 Alpha virt. eigenvalues --    0.46410   0.46754   0.47736   0.48181   0.48295
 Alpha virt. eigenvalues --    0.49021   0.49662   0.50700   0.51433   0.51890
 Alpha virt. eigenvalues --    0.52218   0.52229   0.53920   0.55115   0.55348
 Alpha virt. eigenvalues --    0.56049   0.57837   0.58411   0.59114   0.59237
 Alpha virt. eigenvalues --    0.60720   0.60935   0.61504   0.61968   0.62229
 Alpha virt. eigenvalues --    0.64116   0.64191   0.64526   0.65183   0.66470
 Alpha virt. eigenvalues --    0.68080   0.68987   0.70326   0.70756   0.71757
 Alpha virt. eigenvalues --    0.72234   0.73410   0.74906   0.75750   0.76248
 Alpha virt. eigenvalues --    0.77152   0.78075   0.78491   0.79098   0.80664
 Alpha virt. eigenvalues --    0.81440   0.82616   0.83998   0.84997   0.85480
 Alpha virt. eigenvalues --    0.88114   0.88910   0.90447   0.90579   0.91914
 Alpha virt. eigenvalues --    0.92495   0.93504   0.93919   0.96386   0.97527
 Alpha virt. eigenvalues --    0.98003   0.98464   1.00032   1.02002   1.05315
 Alpha virt. eigenvalues --    1.05583   1.07796   1.09776   1.09878   1.11741
 Alpha virt. eigenvalues --    1.15783   1.17165   1.17934   1.24661   1.26737
 Alpha virt. eigenvalues --    1.27677   1.28982   1.33486   1.34854   1.37895
 Alpha virt. eigenvalues --    1.38389   1.38766   1.42279   1.42886   1.45119
 Alpha virt. eigenvalues --    1.45695   1.47783   1.50254   1.53567   1.54544
 Alpha virt. eigenvalues --    1.57449   1.61462   1.62186   1.63817   1.65857
 Alpha virt. eigenvalues --    1.68043   1.70525   1.72409   1.80103   1.81065
 Alpha virt. eigenvalues --    1.83518   1.84522   1.87028   1.87402   1.90542
 Alpha virt. eigenvalues --    1.91727   1.95028   1.96500   1.98122   2.00906
 Alpha virt. eigenvalues --    2.01167   2.02586   2.05259   2.07735   2.08217
 Alpha virt. eigenvalues --    2.08890   2.10905   2.14376   2.15619   2.20510
 Alpha virt. eigenvalues --    2.20512   2.24265   2.25480   2.27437   2.27592
 Alpha virt. eigenvalues --    2.29281   2.34904   2.35507   2.36717   2.37441
 Alpha virt. eigenvalues --    2.38019   2.38832   2.40506   2.41301   2.44635
 Alpha virt. eigenvalues --    2.45627   2.50424   2.54622   2.54634   2.57720
 Alpha virt. eigenvalues --    2.59441   2.64247   2.64978   2.67064   2.67953
 Alpha virt. eigenvalues --    2.68491   2.81605   2.82050   2.83221   2.93422
 Alpha virt. eigenvalues --    2.97268   2.97905   3.00385   3.02628   3.06911
 Alpha virt. eigenvalues --    3.17447   3.23872   3.24044   3.29911   3.47410
 Alpha virt. eigenvalues --    3.53689
          Condensed to atoms (all electrons):
 Mulliken charges:
               1
     1  S   -0.421864
     2  C   -1.537740
     3  C    0.097942
     4  H    0.215633
     5  H    0.182243
     6  H    0.182285
     7  C   -0.049318
     8  H    0.104321
     9  H    0.170819
    10  H    0.223156
    11  Si   0.869194
    12  C   -0.049382
    13  H    0.170794
    14  H    0.104361
    15  H    0.223189
    16  H   -0.199706
    17  H   -0.142966
    18  H   -0.142960
 Sum of Mulliken charges =  -0.00000
 Mulliken charges with hydrogens summed into heavy atoms:
               1
     1  S   -0.421864
     2  C   -1.537740
     3  C    0.678103
     7  C    0.448978
    11  Si   0.383561
    12  C    0.448962
 Electronic spatial extent (au):  <R**2>=           1070.3057
 Charge=              0.0000 electrons
 Dipole moment (field-independent basis, Debye):
    X=              1.1081    Y=              1.6035    Z=             -0.0000  Tot=              1.9492

 Test job not archived.
 1\1\GINC-SE333\SP\RHF\Aug-CC-pVDZ\C4H12S1Si1\OHZDE\09-Apr-2025\0\\#t h
 f aug-cc-pvdz iop(5/13=1,5/36=2,99/5=2) pseudo=read geom=check guess=(
 read,tcheck) scf=(maxcycle=1)\\title\\0,1\S,0,0.466422,-1.025978,-0.00
 0003\C,0,-1.03654,0.122305,-0.000004\C,0,-2.236537,-0.836476,0.000213\
 H,0,-3.165797,-0.257547,0.000337\H,0,-2.233831,-1.476198,0.885682\H,0,
 -2.234097,-1.476245,-0.885224\C,0,-1.052185,0.987715,1.264303\H,0,-0.2
 08002,1.680115,1.295953\H,0,-1.019239,0.371022,2.164473\H,0,-1.970924,
 1.584446,1.289703\Si,0,2.208097,0.236239,-0.000009\C,0,-1.052422,0.987
 422,-1.264495\H,0,-1.019606,0.370541,-2.164541\H,0,-0.208268,1.679842,
 -1.296434\H,0,-1.971186,1.584117,-1.289876\H,0,3.332455,-0.723536,0.00
 0067\H,0,2.294209,1.103021,1.198499\H,0,2.294273,1.102934,-1.198575\\V
 ersion=ES64L-G16RevC.01\State=1-A\HF=-845.234428\RMSD=8.564e-03\Dipole
 =-0.4359787,0.6308711,0.0000072\Quadrupole=2.2048035,-1.5487871,-0.656
 0165,0.5475218,-0.0000253,0.0000091\PG=C01 [X(C4H12S1Si1)]\\@


 NO MATTER HOW THIN YOU SLICE IT, IT'S STILL BALONEY

                                   -- ALFRED E. SMITH
 Job cpu time:       0 days  0 hours  1 minutes 25.5 seconds.
 Elapsed time:       0 days  0 hours  0 minutes  6.3 seconds.
 File lengths (MBytes):  RWF=     14 Int=      0 D2E=      0 Chk=      9 Scr=      1
 Normal termination of Gaussian 16 at Wed Apr  9 00:16:17 2025.
