 Entering Gaussian System, Link 0=g16
 Input=BDE49_nonexpt_2388_mol2.gjf
 Output=BDE49_nonexpt_2388_mol2.log
 Initial command:
 /arc/software/Gaussian/g16.c01/l1.exe "/tmp/slurm/4852109/Gau-393414.inp" -scrdir="/tmp/slurm/4852109/"
 Entering Link 1 = /arc/software/Gaussian/g16.c01/l1.exe PID=    393418.
  
 Copyright (c) 1988-2019, Gaussian, Inc.  All Rights Reserved.
  
 This is part of the Gaussian(R) 16 program.  It is based on
 the Gaussian(R) 09 system (copyright 2009, Gaussian, Inc.),
 the Gaussian(R) 03 system (copyright 2003, Gaussian, Inc.),
 the Gaussian(R) 98 system (copyright 1998, Gaussian, Inc.),
 the Gaussian(R) 94 system (copyright 1995, Gaussian, Inc.),
 the Gaussian 92(TM) system (copyright 1992, Gaussian, Inc.),
 the Gaussian 90(TM) system (copyright 1990, Gaussian, Inc.),
 the Gaussian 88(TM) system (copyright 1988, Gaussian, Inc.),
 the Gaussian 86(TM) system (copyright 1986, Carnegie Mellon
 University), and the Gaussian 82(TM) system (copyright 1983,
 Carnegie Mellon University). Gaussian is a federally registered
 trademark of Gaussian, Inc.
  
 This software contains proprietary and confidential information,
 including trade secrets, belonging to Gaussian, Inc.
  
 This software is provided under written license and may be
 used, copied, transmitted, or stored only in accord with that
 written license.
  
 The following legend is applicable only to US Government
 contracts under FAR:
  
                    RESTRICTED RIGHTS LEGEND
  
 Use, reproduction and disclosure by the US Government is
 subject to restrictions as set forth in subparagraphs (a)
 and (c) of the Commercial Computer Software - Restricted
 Rights clause in FAR 52.227-19.
  
 Gaussian, Inc.
 340 Quinnipiac St., Bldg. 40, Wallingford CT 06492
  
  
 ---------------------------------------------------------------
 Warning -- This program may not be used in any manner that
 competes with the business of Gaussian, Inc. or will provide
 assistance to any competitor of Gaussian, Inc.  The licensee
 of this program is prohibited from giving any competitor of
 Gaussian, Inc. access to this program.  By using this program,
 the user acknowledges that Gaussian, Inc. is engaged in the
 business of creating and licensing software in the field of
 computational chemistry and represents and warrants to the
 licensee that it is not a competitor of Gaussian, Inc. and that
 it will not use this program in any manner prohibited above.
 ---------------------------------------------------------------
  

 Cite this work as:
 Gaussian 16, Revision C.01,
 M. J. Frisch, G. W. Trucks, H. B. Schlegel, G. E. Scuseria, 
 M. A. Robb, J. R. Cheeseman, G. Scalmani, V. Barone, 
 G. A. Petersson, H. Nakatsuji, X. Li, M. Caricato, A. V. Marenich, 
 J. Bloino, B. G. Janesko, R. Gomperts, B. Mennucci, H. P. Hratchian, 
 J. V. Ortiz, A. F. Izmaylov, J. L. Sonnenberg, D. Williams-Young, 
 F. Ding, F. Lipparini, F. Egidi, J. Goings, B. Peng, A. Petrone, 
 T. Henderson, D. Ranasinghe, V. G. Zakrzewski, J. Gao, N. Rega, 
 G. Zheng, W. Liang, M. Hada, M. Ehara, K. Toyota, R. Fukuda, 
 J. Hasegawa, M. Ishida, T. Nakajima, Y. Honda, O. Kitao, H. Nakai, 
 T. Vreven, K. Throssell, J. A. Montgomery, Jr., J. E. Peralta, 
 F. Ogliaro, M. J. Bearpark, J. J. Heyd, E. N. Brothers, K. N. Kudin, 
 V. N. Staroverov, T. A. Keith, R. Kobayashi, J. Normand, 
 K. Raghavachari, A. P. Rendell, J. C. Burant, S. S. Iyengar, 
 J. Tomasi, M. Cossi, J. M. Millam, M. Klene, C. Adamo, R. Cammi, 
 J. W. Ochterski, R. L. Martin, K. Morokuma, O. Farkas, 
 J. B. Foresman, and D. J. Fox, Gaussian, Inc., Wallingford CT, 2019.
 
 ******************************************
 Gaussian 16:  ES64L-G16RevC.01  3-Jul-2019
                 9-Apr-2025 
 ******************************************
 %nprocs=16
 Will use up to   16 processors via shared memory.
 %mem=30GB
 %chk=BDE49_nonexpt_2388_mol2.chk
 ----------------------------------------------------------------------
 #t hf aug-cc-pvdz symm=none int=(grid=ultrafine) guess=(read,tcheck) s
 table=opt
 ----------------------------------------------------------------------
 -----
 title
 -----
 Symbolic Z-matrix:
 Charge =  0 Multiplicity = 2
 Si                    1.85274  -0.00777  -0.06878 
 N                     0.22238  -0.67251  -0.00154 
 H                     2.0799    0.94589   1.04342 
 H                     2.7219   -1.20656   0.0745 
 C                    -0.88093   0.15983  -0.0155 
 O                    -0.74078   1.36797  -0.06221 
 H                     0.05539  -1.66972  -0.01574 
 C                    -2.23742  -0.51692   0.04537 
 H                    -2.34766  -1.24313  -0.76508 
 H                    -3.01393   0.24042  -0.03741 
 H                    -2.3542   -1.0518    0.99234 
 
                    Distance matrix (angstroms):
                    1          2          3          4          5
     1  Si   0.000000
     2  N    1.761944   0.000000
     3  H    1.482578   2.676100   0.000000
     4  H    1.487641   2.557066   2.446219   0.000000
     5  C    2.739320   1.382133   3.241255   3.854289   0.000000
     6  O    2.935812   2.257183   3.058889   4.317059   1.217131
     7  H    2.448534   1.011194   3.473014   2.707937   2.055226
     8  C    4.123307   2.465168   4.666391   5.007130   1.517155
     9  H    4.433314   2.741117   5.259826   5.138742   2.163669
    10  H    4.873092   3.362803   5.254811   5.916590   2.134632
    11  H    4.462546   2.787555   4.863609   5.160738   2.157390
                    6          7          8          9         10
     6  O    0.000000
     7  H    3.140628   0.000000
     8  C    2.409213   2.567037   0.000000
     9  H    3.145459   2.553066   1.093784   0.000000
    10  H    2.537561   3.615221   1.087829   1.781664   0.000000
    11  H    3.093625   2.684062   1.093846   1.767816   1.779177
                   11
    11  H    0.000000
 Symmetry turned off by external request.
 Rotational constants (GHZ):          10.0444224           2.4080377           1.9860168
   173 basis functions,   319 primitive gaussians,   183 cartesian basis functions
    24 alpha electrons       23 beta electrons
       nuclear repulsion energy       216.7135930956 Hartrees.
 NAtoms=   11 NActive=   11 NUniq=   11 SFac= 1.00D+00 NAtFMM=   60 NAOKFM=F Big=F
 ExpMin= 2.50D-02 ExpMax= 7.89D+04 ExpMxC= 2.69D+03 IAcc=3 IRadAn=         5 AccDes= 0.00D+00
 Harris functional with IExCor=  205 and IRadAn=       5 diagonalized for initial guess.
 HarFok:  IExCor=  205 AccDes= 0.00D+00 IRadAn=         5 IDoV= 1 UseB2=F ITyADJ=14
 ICtDFT=  3500011 ScaDFX=  1.000000  1.000000  1.000000  1.000000
 FoFCou: FMM=F IPFlag=           0 FMFlag=      100000 FMFlg1=           0
         NFxFlg=           0 DoJE=T BraDBF=F KetDBF=T FulRan=T
         wScrn=  0.000000 ICntrl=       500 IOpCl=  0 I1Cent=   200000004 NGrid=           0
         NMat0=    1 NMatS0=      1 NMatT0=    0 NMatD0=    1 NMtDS0=    0 NMtDT0=    0
 Symmetry not used in FoFCou.
 Initial guess <Sx>= 0.0000 <Sy>= 0.0000 <Sz>= 0.5000 <S**2>= 0.7500 S= 0.5000
 SCF Done:  E(UHF) =  -497.504780208     A.U. after   18 cycles
            NFock= 18  Conv=0.53D-08     -V/T= 2.0007
 <Sx>= 0.0000 <Sy>= 0.0000 <Sz>= 0.5000 <S**2>= 0.7538 S= 0.5019
 <L.S>=  0.00000000000    
 Annihilation of the first spin contaminant:
 S**2 before annihilation     0.7538,   after     0.7500

 **********************************************************************

            Population analysis using the SCF Density.

 **********************************************************************

 Alpha  occ. eigenvalues --  -68.81431 -20.54239 -15.58679 -11.36956 -11.25197
 Alpha  occ. eigenvalues --   -6.15956  -4.27076  -4.26305  -4.26208  -1.39761
 Alpha  occ. eigenvalues --   -1.20663  -1.00968  -0.80220  -0.74501  -0.68196
 Alpha  occ. eigenvalues --   -0.62850  -0.62240  -0.58071  -0.54346  -0.53532
 Alpha  occ. eigenvalues --   -0.48950  -0.44194  -0.43100  -0.32656
 Alpha virt. eigenvalues --    0.02774   0.04445   0.05019   0.05087   0.06670
 Alpha virt. eigenvalues --    0.07311   0.07473   0.08451   0.09913   0.11079
 Alpha virt. eigenvalues --    0.12492   0.13875   0.14599   0.14992   0.16024
 Alpha virt. eigenvalues --    0.16917   0.17181   0.17352   0.19147   0.19651
 Alpha virt. eigenvalues --    0.20982   0.21943   0.22131   0.23389   0.25770
 Alpha virt. eigenvalues --    0.27881   0.28540   0.29493   0.30739   0.31845
 Alpha virt. eigenvalues --    0.33211   0.34280   0.35205   0.36291   0.37444
 Alpha virt. eigenvalues --    0.38441   0.39230   0.40866   0.41518   0.42595
 Alpha virt. eigenvalues --    0.43531   0.44723   0.45995   0.47111   0.48234
 Alpha virt. eigenvalues --    0.48832   0.49197   0.51295   0.52579   0.53205
 Alpha virt. eigenvalues --    0.55838   0.56797   0.57023   0.57923   0.58777
 Alpha virt. eigenvalues --    0.59528   0.61823   0.62970   0.65088   0.65636
 Alpha virt. eigenvalues --    0.65995   0.68178   0.69671   0.70564   0.71272
 Alpha virt. eigenvalues --    0.72793   0.74713   0.75395   0.76780   0.79911
 Alpha virt. eigenvalues --    0.80555   0.81369   0.84952   0.86728   0.87905
 Alpha virt. eigenvalues --    0.92189   0.92911   0.97051   0.98787   1.01649
 Alpha virt. eigenvalues --    1.02452   1.05677   1.07901   1.08605   1.10600
 Alpha virt. eigenvalues --    1.11369   1.13662   1.16323   1.21455   1.26117
 Alpha virt. eigenvalues --    1.27740   1.29568   1.31763   1.37591   1.42359
 Alpha virt. eigenvalues --    1.43252   1.48259   1.49755   1.55207   1.58570
 Alpha virt. eigenvalues --    1.58865   1.64875   1.72681   1.75383   1.79017
 Alpha virt. eigenvalues --    1.80828   1.85887   1.87170   1.88472   1.92081
 Alpha virt. eigenvalues --    1.97661   1.99579   2.00505   2.04048   2.09021
 Alpha virt. eigenvalues --    2.12161   2.15695   2.16941   2.19027   2.23215
 Alpha virt. eigenvalues --    2.23825   2.26771   2.28574   2.31564   2.35043
 Alpha virt. eigenvalues --    2.40350   2.43088   2.44407   2.45928   2.52895
 Alpha virt. eigenvalues --    2.60712   2.63515   2.73968   2.75543   2.79089
 Alpha virt. eigenvalues --    2.85341   2.89340   2.91343   2.97727   3.00183
 Alpha virt. eigenvalues --    3.09935   3.28776   3.44879   3.55022   3.77588
 Alpha virt. eigenvalues --    3.80920   3.84548   3.99908   4.16187
  Beta  occ. eigenvalues --  -68.80865 -20.54204 -15.58471 -11.36957 -11.25199
  Beta  occ. eigenvalues --   -6.15069  -4.25937  -4.25852  -4.25001  -1.39652
  Beta  occ. eigenvalues --   -1.20087  -1.00890  -0.79655  -0.72561  -0.67706
  Beta  occ. eigenvalues --   -0.62127  -0.61350  -0.57872  -0.53488  -0.52923
  Beta  occ. eigenvalues --   -0.47655  -0.43291  -0.41991
  Beta virt. eigenvalues --    0.02777   0.03350   0.04563   0.05153   0.05662
  Beta virt. eigenvalues --    0.06785   0.07474   0.08191   0.09718   0.10117
  Beta virt. eigenvalues --    0.11287   0.12809   0.14050   0.15024   0.15765
  Beta virt. eigenvalues --    0.16169   0.17206   0.17825   0.18045   0.19565
  Beta virt. eigenvalues --    0.20940   0.22227   0.22634   0.23133   0.24676
  Beta virt. eigenvalues --    0.26300   0.28197   0.29374   0.30210   0.31335
  Beta virt. eigenvalues --    0.32221   0.33515   0.35075   0.35783   0.36856
  Beta virt. eigenvalues --    0.37708   0.39352   0.40306   0.41226   0.42031
  Beta virt. eigenvalues --    0.42912   0.44124   0.45157   0.46519   0.47707
  Beta virt. eigenvalues --    0.48583   0.49016   0.49697   0.51963   0.53532
  Beta virt. eigenvalues --    0.53762   0.55947   0.57141   0.57680   0.58571
  Beta virt. eigenvalues --    0.59073   0.59952   0.62198   0.63858   0.65607
  Beta virt. eigenvalues --    0.66000   0.66540   0.69034   0.70241   0.71301
  Beta virt. eigenvalues --    0.71743   0.73120   0.75187   0.75744   0.77288
  Beta virt. eigenvalues --    0.80757   0.81423   0.82547   0.85853   0.87678
  Beta virt. eigenvalues --    0.89628   0.92320   0.93785   0.97422   0.99649
  Beta virt. eigenvalues --    1.02221   1.03135   1.05861   1.08370   1.08971
  Beta virt. eigenvalues --    1.10973   1.11716   1.14293   1.16721   1.21917
  Beta virt. eigenvalues --    1.26441   1.28001   1.30197   1.31983   1.38057
  Beta virt. eigenvalues --    1.42599   1.43351   1.48687   1.49804   1.55414
  Beta virt. eigenvalues --    1.58870   1.59043   1.65080   1.72731   1.75446
  Beta virt. eigenvalues --    1.79041   1.80967   1.86163   1.87244   1.88867
  Beta virt. eigenvalues --    1.92437   1.97888   1.99726   2.00811   2.04278
  Beta virt. eigenvalues --    2.09472   2.12577   2.15885   2.17109   2.19490
  Beta virt. eigenvalues --    2.23352   2.23974   2.26960   2.28662   2.31648
  Beta virt. eigenvalues --    2.35218   2.40567   2.43378   2.44531   2.46026
  Beta virt. eigenvalues --    2.53076   2.60863   2.63616   2.74243   2.75677
  Beta virt. eigenvalues --    2.79352   2.85390   2.89463   2.91428   2.97774
  Beta virt. eigenvalues --    3.00242   3.10056   3.28932   3.44978   3.55121
  Beta virt. eigenvalues --    3.77664   3.80988   3.84631   3.99943   4.16232
          Condensed to atoms (all electrons):
          Atomic-Atomic Spin Densities.
 Mulliken charges and spin densities:
               1          2
     1  Si   0.441188   0.906484
     2  N   -0.785216  -0.009791
     3  H    0.046121   0.060738
     4  H   -0.004638   0.026813
     5  C    0.784591   0.017468
     6  O   -0.721488   0.006127
     7  H   -0.082524  -0.002536
     8  C    0.328797  -0.006394
     9  H    0.013470   0.001264
    10  H   -0.062372  -0.000651
    11  H    0.042072   0.000480
 Sum of Mulliken charges =  -0.00000   1.00000
 Mulliken charges and spin densities with hydrogens summed into heavy atoms:
               1          2
     1  Si   0.482670   0.994035
     2  N   -0.867740  -0.012327
     5  C    0.784591   0.017468
     6  O   -0.721488   0.006127
     8  C    0.321967  -0.005302
 Electronic spatial extent (au):  <R**2>=            621.5033
 Charge=             -0.0000 electrons
 Dipole moment (field-independent basis, Debye):
    X=             -0.7031    Y=             -3.8277    Z=              0.0958  Tot=              3.8929
                          Isotropic Fermi Contact Couplings
        Atom                 a.u.       MegaHertz       Gauss      10(-4) cm-1
     1  Si(29)             0.72770    -646.72780    -230.76856    -215.72517
     2  N(14)              0.02745       8.86996       3.16502       2.95870
     3  H(1)               0.01500      67.06994      23.93222      22.37212
     4  H(1)               0.00854      38.18839      13.62657      12.73827
     5  C(13)             -0.00164      -1.84738      -0.65919      -0.61622
     6  O(17)              0.00330      -1.99816      -0.71299      -0.66651
     7  H(1)              -0.00002      -0.10914      -0.03895      -0.03641
     8  C(13)             -0.00019      -0.21858      -0.07800      -0.07291
     9  H(1)               0.00023       1.01080       0.36068       0.33717
    10  H(1)              -0.00001      -0.06031      -0.02152      -0.02012
    11  H(1)               0.00016       0.69858       0.24927       0.23302
 --------------------------------------------------------
       Center         ----  Spin Dipole Couplings  ----
                      3XX-RR        3YY-RR        3ZZ-RR
 --------------------------------------------------------
     1   Atom       -0.597094     -0.260821      0.857914
     2   Atom       -0.025480     -0.057438      0.082918
     3   Atom       -0.014800      0.001205      0.013595
     4   Atom       -0.007603      0.007071      0.000531
     5   Atom        0.003629     -0.006224      0.002595
     6   Atom        0.001829     -0.016030      0.014202
     7   Atom       -0.003065      0.009111     -0.006046
     8   Atom        0.003311     -0.002104     -0.001208
     9   Atom        0.002779     -0.001209     -0.001570
    10   Atom        0.002298     -0.001164     -0.001134
    11   Atom        0.002206     -0.001182     -0.001024
 --------------------------------------------------------
                        XY            XZ            YZ
 --------------------------------------------------------
     1   Atom        0.105487     -0.230138     -0.765236
     2   Atom        0.022909     -0.085555     -0.041705
     3   Atom        0.001530      0.000741      0.005055
     4   Atom       -0.011780     -0.000340     -0.009451
     5   Atom        0.000877     -0.004163      0.004782
     6   Atom        0.003623      0.044913      0.010798
     7   Atom        0.006466     -0.004333     -0.000188
     8   Atom        0.000473     -0.000030     -0.000218
     9   Atom        0.001428      0.000316      0.000006
    10   Atom       -0.000071     -0.000369      0.000024
    11   Atom        0.000993     -0.001413     -0.000501
 --------------------------------------------------------


 ---------------------------------------------------------------------------------
              Anisotropic Spin Dipole Couplings in Principal Axis System
 ---------------------------------------------------------------------------------

       Atom             a.u.   MegaHertz   Gauss  10(-4) cm-1        Axes

              Baa    -0.6538    69.356    24.748    23.135  0.4020  0.7908  0.4615
     1 Si(29) Bbb    -0.6267    66.485    23.724    22.177  0.9058 -0.4170 -0.0745
              Bcc     1.2805  -135.841   -48.472   -45.312 -0.1335 -0.4480  0.8840
 
              Baa    -0.0726    -2.798    -0.999    -0.933  0.8751  0.0089  0.4839
     2 N(14)  Bbb    -0.0688    -2.654    -0.947    -0.885 -0.1202  0.9725  0.1995
              Bcc     0.1414     5.453     1.946     1.819 -0.4688 -0.2328  0.8521
 
              Baa    -0.0149    -7.975    -2.846    -2.660  0.9958 -0.0913 -0.0097
     3 H(1)   Bbb    -0.0005    -0.265    -0.095    -0.088  0.0826  0.9367 -0.3403
              Bcc     0.0154     8.240     2.940     2.749  0.0401  0.3381  0.9403
 
              Baa    -0.0158    -8.447    -3.014    -2.818  0.7796  0.5352  0.3253
     4 H(1)   Bbb    -0.0018    -0.957    -0.341    -0.319 -0.5021  0.2235  0.8354
              Bcc     0.0176     9.404     3.355     3.137 -0.3744  0.8146 -0.4429
 
              Baa    -0.0088    -1.187    -0.424    -0.396 -0.2084  0.8731 -0.4407
     5 C(13)  Bbb     0.0010     0.137     0.049     0.046  0.7144  0.4437  0.5411
              Bcc     0.0078     1.050     0.375     0.350 -0.6680  0.2021  0.7162
 
              Baa    -0.0382     2.766     0.987     0.923  0.7225  0.2035 -0.6608
     6 O(17)  Bbb    -0.0167     1.207     0.431     0.403 -0.2499  0.9680  0.0249
              Bcc     0.0549    -3.974    -1.418    -1.325  0.6447  0.1471  0.7502
 
              Baa    -0.0099    -5.304    -1.893    -1.769  0.6579 -0.2162  0.7214
     7 H(1)   Bbb    -0.0022    -1.158    -0.413    -0.386 -0.6279  0.3714  0.6839
              Bcc     0.0121     6.462     2.306     2.155  0.4158  0.9030 -0.1086
 
              Baa    -0.0022    -0.294    -0.105    -0.098 -0.0826  0.9736  0.2128
     8 C(13)  Bbb    -0.0012    -0.156    -0.056    -0.052  0.0289 -0.2111  0.9770
              Bcc     0.0034     0.450     0.161     0.150  0.9962  0.0869 -0.0107
 
              Baa    -0.0017    -0.921    -0.329    -0.307 -0.2872  0.7855  0.5482
     9 H(1)   Bbb    -0.0015    -0.816    -0.291    -0.272  0.1175 -0.5391  0.8340
              Bcc     0.0033     1.738     0.620     0.580  0.9506  0.3040  0.0625
 
              Baa    -0.0012    -0.633    -0.226    -0.211  0.0692 -0.6289  0.7744
    10 H(1)   Bbb    -0.0012    -0.615    -0.219    -0.205  0.0826  0.7772  0.6238
              Bcc     0.0023     1.248     0.445     0.416  0.9942 -0.0208 -0.1057
 
              Baa    -0.0016    -0.873    -0.311    -0.291  0.1554  0.5582  0.8150
    11 H(1)   Bbb    -0.0014    -0.742    -0.265    -0.248 -0.4005  0.7898 -0.4646
              Bcc     0.0030     1.615     0.576     0.539  0.9030  0.2542 -0.3463
 

 ---------------------------------------------------------------------------------

 NROrb=    173 NOA=    24 NOB=    23 NVA=   149 NVB=   150

 **** Warning!!: The largest alpha MO coefficient is  0.34472623D+02


 **** Warning!!: The largest beta MO coefficient is  0.36656398D+02

    12 initial guesses have been made.
 Iteration     1 Dimension    12 NMult     0 NNew     12
 New state      1 was old state      2
 Iteration     2 Dimension    24 NMult    12 NNew     12
 Iteration     3 Dimension    27 NMult    24 NNew      3
 New state      1 was old state      3
 Iteration     4 Dimension    30 NMult    27 NNew      3
 Iteration     5 Dimension    33 NMult    30 NNew      3
 Iteration     6 Dimension    36 NMult    33 NNew      3
 Iteration     7 Dimension    39 NMult    36 NNew      3
 Iteration     8 Dimension    42 NMult    39 NNew      3
 Iteration     9 Dimension    45 NMult    42 NNew      3
 Iteration    10 Dimension    48 NMult    45 NNew      3
 ***********************************************************************
 Stability analysis using <AA,BB:AA,BB> singles matrix:
 ***********************************************************************
 Ground to excited state transition densities written to RWF  633

 Eigenvectors of the stability matrix:
 
 Excited state symmetry could not be determined.
 Eigenvector   1:  3.445-?Sym  Eigenvalue= 0.0861842  <S**2>=2.717
     17A -> 40A       -0.11921
     19A -> 40A        0.10092
     20A -> 40A       -0.11860
     22A -> 36A       -0.13788
     22A -> 39A       -0.16151
     22A -> 40A        0.25021
     22A -> 42A        0.11228
     22A -> 43A       -0.14853
     22A -> 55A        0.15161
     23A -> 39A       -0.10702
     23A -> 40A        0.16216
     16B -> 42B        0.12879
     19B -> 42B        0.15728
     20B -> 42B        0.13262
     21B -> 42B        0.10317
     23B -> 32B       -0.10697
     23B -> 35B       -0.12272
     23B -> 36B        0.10742
     23B -> 39B       -0.11841
     23B -> 41B        0.15304
     23B -> 42B       -0.31861
     23B -> 43B        0.15883
     23B -> 55B        0.16686
 The wavefunction is stable under the perturbations considered.
 The wavefunction is already stable.

 **********************************************************************

            Population analysis using the SCF Density.

 **********************************************************************

 Alpha  occ. eigenvalues --  -68.81431 -20.54239 -15.58679 -11.36956 -11.25197
 Alpha  occ. eigenvalues --   -6.15956  -4.27076  -4.26305  -4.26208  -1.39761
 Alpha  occ. eigenvalues --   -1.20663  -1.00968  -0.80220  -0.74501  -0.68196
 Alpha  occ. eigenvalues --   -0.62850  -0.62240  -0.58071  -0.54346  -0.53532
 Alpha  occ. eigenvalues --   -0.48950  -0.44194  -0.43100  -0.32656
 Alpha virt. eigenvalues --    0.02774   0.04445   0.05019   0.05087   0.06670
 Alpha virt. eigenvalues --    0.07311   0.07473   0.08451   0.09913   0.11079
 Alpha virt. eigenvalues --    0.12492   0.13875   0.14599   0.14992   0.16024
 Alpha virt. eigenvalues --    0.16917   0.17181   0.17352   0.19147   0.19651
 Alpha virt. eigenvalues --    0.20982   0.21943   0.22131   0.23389   0.25770
 Alpha virt. eigenvalues --    0.27881   0.28540   0.29493   0.30739   0.31845
 Alpha virt. eigenvalues --    0.33211   0.34280   0.35205   0.36291   0.37444
 Alpha virt. eigenvalues --    0.38441   0.39230   0.40866   0.41518   0.42595
 Alpha virt. eigenvalues --    0.43531   0.44723   0.45995   0.47111   0.48234
 Alpha virt. eigenvalues --    0.48832   0.49197   0.51295   0.52579   0.53205
 Alpha virt. eigenvalues --    0.55838   0.56797   0.57023   0.57923   0.58777
 Alpha virt. eigenvalues --    0.59528   0.61823   0.62970   0.65088   0.65636
 Alpha virt. eigenvalues --    0.65995   0.68178   0.69671   0.70564   0.71272
 Alpha virt. eigenvalues --    0.72793   0.74713   0.75395   0.76780   0.79911
 Alpha virt. eigenvalues --    0.80555   0.81369   0.84952   0.86728   0.87905
 Alpha virt. eigenvalues --    0.92189   0.92911   0.97051   0.98787   1.01649
 Alpha virt. eigenvalues --    1.02452   1.05677   1.07901   1.08605   1.10600
 Alpha virt. eigenvalues --    1.11369   1.13662   1.16323   1.21455   1.26117
 Alpha virt. eigenvalues --    1.27740   1.29568   1.31763   1.37591   1.42359
 Alpha virt. eigenvalues --    1.43252   1.48259   1.49755   1.55207   1.58570
 Alpha virt. eigenvalues --    1.58865   1.64875   1.72681   1.75383   1.79017
 Alpha virt. eigenvalues --    1.80828   1.85887   1.87170   1.88472   1.92081
 Alpha virt. eigenvalues --    1.97661   1.99579   2.00505   2.04048   2.09021
 Alpha virt. eigenvalues --    2.12161   2.15695   2.16941   2.19027   2.23215
 Alpha virt. eigenvalues --    2.23825   2.26771   2.28574   2.31564   2.35043
 Alpha virt. eigenvalues --    2.40350   2.43088   2.44407   2.45928   2.52895
 Alpha virt. eigenvalues --    2.60712   2.63515   2.73968   2.75543   2.79089
 Alpha virt. eigenvalues --    2.85341   2.89340   2.91343   2.97727   3.00183
 Alpha virt. eigenvalues --    3.09935   3.28776   3.44879   3.55022   3.77588
 Alpha virt. eigenvalues --    3.80920   3.84548   3.99908   4.16187
  Beta  occ. eigenvalues --  -68.80865 -20.54204 -15.58471 -11.36957 -11.25199
  Beta  occ. eigenvalues --   -6.15069  -4.25937  -4.25852  -4.25001  -1.39652
  Beta  occ. eigenvalues --   -1.20087  -1.00890  -0.79655  -0.72561  -0.67706
  Beta  occ. eigenvalues --   -0.62127  -0.61350  -0.57872  -0.53488  -0.52923
  Beta  occ. eigenvalues --   -0.47655  -0.43291  -0.41991
  Beta virt. eigenvalues --    0.02777   0.03350   0.04563   0.05153   0.05662
  Beta virt. eigenvalues --    0.06785   0.07474   0.08191   0.09718   0.10117
  Beta virt. eigenvalues --    0.11287   0.12809   0.14050   0.15024   0.15765
  Beta virt. eigenvalues --    0.16169   0.17206   0.17825   0.18045   0.19565
  Beta virt. eigenvalues --    0.20940   0.22227   0.22634   0.23133   0.24676
  Beta virt. eigenvalues --    0.26300   0.28197   0.29374   0.30210   0.31335
  Beta virt. eigenvalues --    0.32221   0.33515   0.35075   0.35783   0.36856
  Beta virt. eigenvalues --    0.37708   0.39352   0.40306   0.41226   0.42031
  Beta virt. eigenvalues --    0.42912   0.44124   0.45157   0.46519   0.47707
  Beta virt. eigenvalues --    0.48583   0.49016   0.49697   0.51963   0.53532
  Beta virt. eigenvalues --    0.53762   0.55947   0.57141   0.57680   0.58571
  Beta virt. eigenvalues --    0.59073   0.59952   0.62198   0.63858   0.65607
  Beta virt. eigenvalues --    0.66000   0.66540   0.69034   0.70241   0.71301
  Beta virt. eigenvalues --    0.71743   0.73120   0.75187   0.75744   0.77288
  Beta virt. eigenvalues --    0.80757   0.81423   0.82547   0.85853   0.87678
  Beta virt. eigenvalues --    0.89628   0.92320   0.93785   0.97422   0.99649
  Beta virt. eigenvalues --    1.02221   1.03135   1.05861   1.08370   1.08971
  Beta virt. eigenvalues --    1.10973   1.11716   1.14293   1.16721   1.21917
  Beta virt. eigenvalues --    1.26441   1.28001   1.30197   1.31983   1.38057
  Beta virt. eigenvalues --    1.42599   1.43351   1.48687   1.49804   1.55414
  Beta virt. eigenvalues --    1.58870   1.59043   1.65080   1.72731   1.75446
  Beta virt. eigenvalues --    1.79041   1.80967   1.86163   1.87244   1.88867
  Beta virt. eigenvalues --    1.92437   1.97888   1.99726   2.00811   2.04278
  Beta virt. eigenvalues --    2.09472   2.12577   2.15885   2.17109   2.19490
  Beta virt. eigenvalues --    2.23352   2.23974   2.26960   2.28662   2.31648
  Beta virt. eigenvalues --    2.35218   2.40567   2.43378   2.44531   2.46026
  Beta virt. eigenvalues --    2.53076   2.60863   2.63616   2.74243   2.75677
  Beta virt. eigenvalues --    2.79352   2.85390   2.89463   2.91428   2.97774
  Beta virt. eigenvalues --    3.00242   3.10056   3.28932   3.44978   3.55121
  Beta virt. eigenvalues --    3.77664   3.80988   3.84631   3.99943   4.16232
          Condensed to atoms (all electrons):
          Atomic-Atomic Spin Densities.
 Mulliken charges and spin densities:
               1          2
     1  Si   0.441188   0.906484
     2  N   -0.785216  -0.009791
     3  H    0.046121   0.060738
     4  H   -0.004638   0.026813
     5  C    0.784591   0.017468
     6  O   -0.721488   0.006127
     7  H   -0.082524  -0.002536
     8  C    0.328797  -0.006394
     9  H    0.013470   0.001264
    10  H   -0.062372  -0.000651
    11  H    0.042072   0.000480
 Sum of Mulliken charges =  -0.00000   1.00000
 Mulliken charges and spin densities with hydrogens summed into heavy atoms:
               1          2
     1  Si   0.482670   0.994035
     2  N   -0.867740  -0.012327
     5  C    0.784591   0.017468
     6  O   -0.721488   0.006127
     8  C    0.321967  -0.005302
 Electronic spatial extent (au):  <R**2>=            621.5033
 Charge=             -0.0000 electrons
 Dipole moment (field-independent basis, Debye):
    X=             -0.7031    Y=             -3.8277    Z=              0.0958  Tot=              3.8929
                          Isotropic Fermi Contact Couplings
        Atom                 a.u.       MegaHertz       Gauss      10(-4) cm-1
     1  Si(29)             0.72770    -646.72780    -230.76856    -215.72517
     2  N(14)              0.02745       8.86996       3.16502       2.95870
     3  H(1)               0.01500      67.06994      23.93222      22.37212
     4  H(1)               0.00854      38.18839      13.62657      12.73827
     5  C(13)             -0.00164      -1.84738      -0.65919      -0.61622
     6  O(17)              0.00330      -1.99816      -0.71299      -0.66651
     7  H(1)              -0.00002      -0.10914      -0.03895      -0.03641
     8  C(13)             -0.00019      -0.21858      -0.07800      -0.07291
     9  H(1)               0.00023       1.01080       0.36068       0.33717
    10  H(1)              -0.00001      -0.06031      -0.02152      -0.02012
    11  H(1)               0.00016       0.69858       0.24927       0.23302
 --------------------------------------------------------
       Center         ----  Spin Dipole Couplings  ----
                      3XX-RR        3YY-RR        3ZZ-RR
 --------------------------------------------------------
     1   Atom       -0.597094     -0.260821      0.857914
     2   Atom       -0.025480     -0.057438      0.082918
     3   Atom       -0.014800      0.001205      0.013595
     4   Atom       -0.007603      0.007071      0.000531
     5   Atom        0.003629     -0.006224      0.002595
     6   Atom        0.001829     -0.016030      0.014202
     7   Atom       -0.003065      0.009111     -0.006046
     8   Atom        0.003311     -0.002104     -0.001208
     9   Atom        0.002779     -0.001209     -0.001570
    10   Atom        0.002298     -0.001164     -0.001134
    11   Atom        0.002206     -0.001182     -0.001024
 --------------------------------------------------------
                        XY            XZ            YZ
 --------------------------------------------------------
     1   Atom        0.105487     -0.230138     -0.765236
     2   Atom        0.022909     -0.085555     -0.041705
     3   Atom        0.001530      0.000741      0.005055
     4   Atom       -0.011780     -0.000340     -0.009451
     5   Atom        0.000877     -0.004163      0.004782
     6   Atom        0.003623      0.044913      0.010798
     7   Atom        0.006466     -0.004333     -0.000188
     8   Atom        0.000473     -0.000030     -0.000218
     9   Atom        0.001428      0.000316      0.000006
    10   Atom       -0.000071     -0.000369      0.000024
    11   Atom        0.000993     -0.001413     -0.000501
 --------------------------------------------------------


 ---------------------------------------------------------------------------------
              Anisotropic Spin Dipole Couplings in Principal Axis System
 ---------------------------------------------------------------------------------

       Atom             a.u.   MegaHertz   Gauss  10(-4) cm-1        Axes

              Baa    -0.6538    69.356    24.748    23.135  0.4020  0.7908  0.4615
     1 Si(29) Bbb    -0.6267    66.485    23.724    22.177  0.9058 -0.4170 -0.0745
              Bcc     1.2805  -135.841   -48.472   -45.312 -0.1335 -0.4480  0.8840
 
              Baa    -0.0726    -2.798    -0.999    -0.933  0.8751  0.0089  0.4839
     2 N(14)  Bbb    -0.0688    -2.654    -0.947    -0.885 -0.1202  0.9725  0.1995
              Bcc     0.1414     5.453     1.946     1.819 -0.4688 -0.2328  0.8521
 
              Baa    -0.0149    -7.975    -2.846    -2.660  0.9958 -0.0913 -0.0097
     3 H(1)   Bbb    -0.0005    -0.265    -0.095    -0.088  0.0826  0.9367 -0.3403
              Bcc     0.0154     8.240     2.940     2.749  0.0401  0.3381  0.9403
 
              Baa    -0.0158    -8.447    -3.014    -2.818  0.7796  0.5352  0.3253
     4 H(1)   Bbb    -0.0018    -0.957    -0.341    -0.319 -0.5021  0.2235  0.8354
              Bcc     0.0176     9.404     3.355     3.137 -0.3744  0.8146 -0.4429
 
              Baa    -0.0088    -1.187    -0.424    -0.396 -0.2084  0.8731 -0.4407
     5 C(13)  Bbb     0.0010     0.137     0.049     0.046  0.7144  0.4437  0.5411
              Bcc     0.0078     1.050     0.375     0.350 -0.6680  0.2021  0.7162
 
              Baa    -0.0382     2.766     0.987     0.923  0.7225  0.2035 -0.6608
     6 O(17)  Bbb    -0.0167     1.207     0.431     0.403 -0.2499  0.9680  0.0249
              Bcc     0.0549    -3.974    -1.418    -1.325  0.6447  0.1471  0.7502
 
              Baa    -0.0099    -5.304    -1.893    -1.769  0.6579 -0.2162  0.7214
     7 H(1)   Bbb    -0.0022    -1.158    -0.413    -0.386 -0.6279  0.3714  0.6839
              Bcc     0.0121     6.462     2.306     2.155  0.4158  0.9030 -0.1086
 
              Baa    -0.0022    -0.294    -0.105    -0.098 -0.0826  0.9736  0.2128
     8 C(13)  Bbb    -0.0012    -0.156    -0.056    -0.052  0.0289 -0.2111  0.9770
              Bcc     0.0034     0.450     0.161     0.150  0.9962  0.0869 -0.0107
 
              Baa    -0.0017    -0.921    -0.329    -0.307 -0.2872  0.7855  0.5482
     9 H(1)   Bbb    -0.0015    -0.816    -0.291    -0.272  0.1175 -0.5391  0.8340
              Bcc     0.0033     1.738     0.620     0.580  0.9506  0.3040  0.0625
 
              Baa    -0.0012    -0.633    -0.226    -0.211  0.0692 -0.6289  0.7744
    10 H(1)   Bbb    -0.0012    -0.615    -0.219    -0.205  0.0826  0.7772  0.6238
              Bcc     0.0023     1.248     0.445     0.416  0.9942 -0.0208 -0.1057
 
              Baa    -0.0016    -0.873    -0.311    -0.291  0.1554  0.5582  0.8150
    11 H(1)   Bbb    -0.0014    -0.742    -0.265    -0.248 -0.4005  0.7898 -0.4646
              Bcc     0.0030     1.615     0.576     0.539  0.9030  0.2542 -0.3463
 

 ---------------------------------------------------------------------------------

 Unable to Open any file for archive entry.
 1\1\GINC-SE454\Stability\UHF\Aug-CC-pVDZ\C2H6N1O1Si1\OHZDE\09-Apr-2025
 \0\\#t hf aug-cc-pvdz symm=none int=(grid=ultrafine) guess=(read,tchec
 k) stable=opt\\title\\0,2\Si,0,1.852735,-0.00777,-0.068775\N,0,0.22238
 2,-0.672506,-0.001537\H,0,2.079904,0.945886,1.043418\H,0,2.7219,-1.206
 561,0.0745\C,0,-0.880934,0.159834,-0.015495\O,0,-0.740776,1.367965,-0.
 062211\H,0,0.055391,-1.669715,-0.015736\C,0,-2.237424,-0.516916,0.0453
 72\H,0,-2.347661,-1.243129,-0.765076\H,0,-3.013932,0.240418,-0.03741\H
 ,0,-2.354204,-1.051804,0.992344\\Version=ES64L-G16RevC.01\HF=-497.5047
 802\S2=0.753825\S2-1=0.\S2A=0.750007\RMSD=5.311e-09\Dipole=-0.2766108,
 -1.5059362,0.0376883\Quadrupole=2.3449701,-1.8951244,-0.4498456,2.5557
 629,-0.0960991,0.312288\PG=Unknown\\@
 The archive entry for this job was punched.


 MY GROUP MEETINGS AREN'T VERY STRUCTURED.
     -- PROF. M. S. GORDON, OCT. 5, 1984
 Job cpu time:       0 days  0 hours  2 minutes 26.6 seconds.
 Elapsed time:       0 days  0 hours  0 minutes 16.6 seconds.
 File lengths (MBytes):  RWF=    173 Int=      0 D2E=      0 Chk=      6 Scr=      1
 Normal termination of Gaussian 16 at Wed Apr  9 00:11:44 2025.
 Initial command:
 /arc/software/Gaussian/g16.c01/l1.exe "/tmp/slurm/4852109/Gau-393414.inp" -scrdir="/tmp/slurm/4852109/"
 Entering Link 1 = /arc/software/Gaussian/g16.c01/l1.exe PID=    393753.
  
 Copyright (c) 1988-2019, Gaussian, Inc.  All Rights Reserved.
  
 This is part of the Gaussian(R) 16 program.  It is based on
 the Gaussian(R) 09 system (copyright 2009, Gaussian, Inc.),
 the Gaussian(R) 03 system (copyright 2003, Gaussian, Inc.),
 the Gaussian(R) 98 system (copyright 1998, Gaussian, Inc.),
 the Gaussian(R) 94 system (copyright 1995, Gaussian, Inc.),
 the Gaussian 92(TM) system (copyright 1992, Gaussian, Inc.),
 the Gaussian 90(TM) system (copyright 1990, Gaussian, Inc.),
 the Gaussian 88(TM) system (copyright 1988, Gaussian, Inc.),
 the Gaussian 86(TM) system (copyright 1986, Carnegie Mellon
 University), and the Gaussian 82(TM) system (copyright 1983,
 Carnegie Mellon University). Gaussian is a federally registered
 trademark of Gaussian, Inc.
  
 This software contains proprietary and confidential information,
 including trade secrets, belonging to Gaussian, Inc.
  
 This software is provided under written license and may be
 used, copied, transmitted, or stored only in accord with that
 written license.
  
 The following legend is applicable only to US Government
 contracts under FAR:
  
                    RESTRICTED RIGHTS LEGEND
  
 Use, reproduction and disclosure by the US Government is
 subject to restrictions as set forth in subparagraphs (a)
 and (c) of the Commercial Computer Software - Restricted
 Rights clause in FAR 52.227-19.
  
 Gaussian, Inc.
 340 Quinnipiac St., Bldg. 40, Wallingford CT 06492
  
  
 ---------------------------------------------------------------
 Warning -- This program may not be used in any manner that
 competes with the business of Gaussian, Inc. or will provide
 assistance to any competitor of Gaussian, Inc.  The licensee
 of this program is prohibited from giving any competitor of
 Gaussian, Inc. access to this program.  By using this program,
 the user acknowledges that Gaussian, Inc. is engaged in the
 business of creating and licensing software in the field of
 computational chemistry and represents and warrants to the
 licensee that it is not a competitor of Gaussian, Inc. and that
 it will not use this program in any manner prohibited above.
 ---------------------------------------------------------------
  

 Cite this work as:
 Gaussian 16, Revision C.01,
 M. J. Frisch, G. W. Trucks, H. B. Schlegel, G. E. Scuseria, 
 M. A. Robb, J. R. Cheeseman, G. Scalmani, V. Barone, 
 G. A. Petersson, H. Nakatsuji, X. Li, M. Caricato, A. V. Marenich, 
 J. Bloino, B. G. Janesko, R. Gomperts, B. Mennucci, H. P. Hratchian, 
 J. V. Ortiz, A. F. Izmaylov, J. L. Sonnenberg, D. Williams-Young, 
 F. Ding, F. Lipparini, F. Egidi, J. Goings, B. Peng, A. Petrone, 
 T. Henderson, D. Ranasinghe, V. G. Zakrzewski, J. Gao, N. Rega, 
 G. Zheng, W. Liang, M. Hada, M. Ehara, K. Toyota, R. Fukuda, 
 J. Hasegawa, M. Ishida, T. Nakajima, Y. Honda, O. Kitao, H. Nakai, 
 T. Vreven, K. Throssell, J. A. Montgomery, Jr., J. E. Peralta, 
 F. Ogliaro, M. J. Bearpark, J. J. Heyd, E. N. Brothers, K. N. Kudin, 
 V. N. Staroverov, T. A. Keith, R. Kobayashi, J. Normand, 
 K. Raghavachari, A. P. Rendell, J. C. Burant, S. S. Iyengar, 
 J. Tomasi, M. Cossi, J. M. Millam, M. Klene, C. Adamo, R. Cammi, 
 J. W. Ochterski, R. L. Martin, K. Morokuma, O. Farkas, 
 J. B. Foresman, and D. J. Fox, Gaussian, Inc., Wallingford CT, 2019.
 
 ******************************************
 Gaussian 16:  ES64L-G16RevC.01  3-Jul-2019
                 9-Apr-2025 
 ******************************************
 %nprocs=16
 Will use up to   16 processors via shared memory.
 %mem=30GB
 %chk=BDE49_nonexpt_2388_mol2.chk
 ----------------------------------------------------------------------
 #t hf aug-cc-pvdz iop(5/13=1,5/36=2,99/5=2) pseudo=read geom=check gue
 ss=(read,tcheck) scf=(maxcycle=1)
 ----------------------------------------------------------------------
 -----
 title
 -----
 Structure from the checkpoint file:  "BDE49_nonexpt_2388_mol2.chk"
 Charge =  0 Multiplicity = 2
 Z-Matrix found in chk file.
 Si,0,1.852735,-0.00777,-0.068775
 N,0,0.222382,-0.672506,-0.001537
 H,0,2.079904,0.945886,1.043418
 H,0,2.7219,-1.206561,0.0745
 C,0,-0.880934,0.159834,-0.015495
 O,0,-0.740776,1.367965,-0.062211
 H,0,0.055391,-1.669715,-0.015736
 C,0,-2.237424,-0.516916,0.045372
 H,0,-2.347661,-1.243129,-0.765076
 H,0,-3.013932,0.240418,-0.03741
 H,0,-2.354204,-1.051804,0.992344
 Recover connectivity data from disk.
                    Distance matrix (angstroms):
                    1          2          3          4          5
     1  Si   0.000000
     2  N    1.761944   0.000000
     3  H    1.482578   2.676100   0.000000
     4  H    1.487641   2.557066   2.446219   0.000000
     5  C    2.739320   1.382133   3.241255   3.854289   0.000000
     6  O    2.935812   2.257183   3.058889   4.317059   1.217131
     7  H    2.448534   1.011194   3.473014   2.707937   2.055226
     8  C    4.123307   2.465168   4.666391   5.007130   1.517155
     9  H    4.433314   2.741117   5.259826   5.138742   2.163669
    10  H    4.873092   3.362803   5.254811   5.916590   2.134632
    11  H    4.462546   2.787555   4.863609   5.160738   2.157390
                    6          7          8          9         10
     6  O    0.000000
     7  H    3.140628   0.000000
     8  C    2.409213   2.567037   0.000000
     9  H    3.145459   2.553066   1.093784   0.000000
    10  H    2.537561   3.615221   1.087829   1.781664   0.000000
    11  H    3.093625   2.684062   1.093846   1.767816   1.779177
                   11
    11  H    0.000000
 Framework group  C1[X(C2H6NOSi)]
 Deg. of freedom    27
                         Standard orientation:                         
 ---------------------------------------------------------------------
 Center     Atomic      Atomic             Coordinates (Angstroms)
 Number     Number       Type             X           Y           Z
 ---------------------------------------------------------------------
      1         14           0        1.852735   -0.007770   -0.068775
      2          7           0        0.222382   -0.672506   -0.001537
      3          1           0        2.079904    0.945886    1.043418
      4          1           0        2.721900   -1.206561    0.074500
      5          6           0       -0.880934    0.159834   -0.015495
      6          8           0       -0.740776    1.367965   -0.062211
      7          1           0        0.055391   -1.669715   -0.015736
      8          6           0       -2.237424   -0.516916    0.045372
      9          1           0       -2.347661   -1.243129   -0.765076
     10          1           0       -3.013932    0.240418   -0.037410
     11          1           0       -2.354204   -1.051804    0.992344
 ---------------------------------------------------------------------
 Rotational constants (GHZ):          10.0444224           2.4080377           1.9860168
 ======================================================================================================
                                       Pseudopotential Parameters
 ======================================================================================================
  Center     Atomic      Valence      Angular      Power
  Number     Number     Electrons     Momentum     of R      Exponent        Coefficient   SO-Coeffient
 ======================================================================================================
    1         14           14
                                      G and up 
                                                     0        0.0000010       -0.00102307    0.00000000
                                                     2        0.1200000        0.00490993    0.00000000
                                                     2        0.1400000       -0.01106599    0.00000000
                                                     2        0.2200000        0.05301915    0.00000000
                                                     2        0.3000000       -0.05427393    0.00000000
                                                     2        0.6000000       -0.20148550    0.00000000
                                      S - G
                                                     0        0.0000010       -0.00096383    0.00000000
                                                     2        0.1200000       -0.05566998    0.00000000
                                                     2        0.2800000        0.06986809    0.00000000
                                                     2        0.8000000        0.18625194    0.00000000
                                      P - G
                                                     0        0.0000010       -0.03837268    0.00000000
                                                     2        0.1200000       -0.19497759    0.00000000
                                                     2        0.1400000        0.28757076    0.00000000
                                                     2        0.2800000       -0.24963270    0.00000000
                                                     2        1.0000000        1.25739652    0.00000000
                                      D - G
                                                     0        0.0000010        0.02249755    0.00000000
                                                     2        0.1800000       -0.04521011    0.00000000
                                                     2        0.4000000        0.14019324    0.00000000
                                      F - G
                                                     0        0.0000010        0.04694636    0.00000000
                                                     2        0.1200000        0.05516301    0.00000000
                                                     2        0.1600000       -0.18839048    0.00000000
                                                     2        0.4000000        0.63201960    0.00000000
    2          7            7
                                      G and up 
                                                     0        0.0000010       -0.00039818    0.00000000
                                                     2        0.1200000       -0.37616123    0.00000000
                                                     2        0.1400000        2.13837358    0.00000000
                                                     2        0.1600000       -3.36562035    0.00000000
                                                     2        0.2000000        2.53463289    0.00000000
                                                     2        0.3000000       -1.98118833    0.00000000
                                                     2        0.5000000        4.06642919    0.00000000
                                                     2        0.7000000       -6.15327959    0.00000000
                                                     2        1.2000000       10.22492851    0.00000000
                                                     2        2.0000000      -14.94707511    0.00000000
                                      S - G
                                                     0        0.0000010        0.02721443    0.00000000
                                                     2        0.1200000       -0.60186009    0.00000000
                                                     2        0.1600000        1.10088134    0.00000000
                                                     2        0.2600000       -0.59857981    0.00000000
                                                     2        0.6000000        0.21288222    0.00000000
                                                     2        3.0000000        5.09059205    0.00000000
                                      P - G
                                                     0        0.0000010        0.40558062    0.00000000
                                                     2        0.1200000        0.81809854    0.00000000
                                                     2        0.1600000       -2.44952728    0.00000000
                                                     2        0.2800000        4.16638749    0.00000000
                                                     2        0.5000000       -6.02944147    0.00000000
                                                     2        1.1000000        5.78262914    0.00000000
                                      D - G
                                                     0        0.0000010       -0.62770267    0.00000000
                                                     2        0.1600000        0.91438653    0.00000000
                                                     2        0.2600000       -2.00568466    0.00000000
                                                     2        0.5000000        3.30798839    0.00000000
                                                     2        1.1000000       -3.91526108    0.00000000
                                      F - G
                                                     0        0.0000010        0.29726344    0.00000000
                                                     2        0.1200000       -0.41591527    0.00000000
                                                     2        0.1600000        0.51444439    0.00000000
                                                     2        0.4000000       -0.69401726    0.00000000
                                                     2        0.7000000        0.51478123    0.00000000
    3          1            1
                                      F and up 
                                                     0        0.0000010       -0.00007675    0.00000000
                                                     2        0.1200000        0.05352699    0.00000000
                                                     2        0.1400000       -0.25123645    0.00000000
                                                     2        0.1600000        0.32188106    0.00000000
                                                     2        0.2200000       -0.25206857    0.00000000
                                                     2        0.3000000        0.19290477    0.00000000
                                                     2        0.5000000       -0.10129770    0.00000000
                                                     2        0.9000000        0.00314995    0.00000000
                                                     2        1.5000000        0.18401192    0.00000000
                                      S - F
                                                     0        0.0000010        0.08065976    0.00000000
                                                     2        0.1200000       -0.09231673    0.00000000
                                                     2        0.1600000       -0.03278082    0.00000000
                                                     2        0.2800000        0.38423402    0.00000000
                                                     2        0.6000000       -1.09357590    0.00000000
                                                     2        1.1000000        1.53099489    0.00000000
                                                     2        3.0000000       -2.63300202    0.00000000
                                      P - F
                                                     0        0.0000010       -0.11638665    0.00000000
                                                     2        0.1200000        0.35468655    0.00000000
                                                     2        0.1600000       -0.59160923    0.00000000
                                                     2        0.3000000        0.49390547    0.00000000
                                                     2        0.6000000       -0.37949835    0.00000000
                                                     2        1.6000000        0.89304688    0.00000000
                                      D - F
                                                     0        0.0000010        0.05443663    0.00000000
                                                     2        0.1200000       -0.29679479    0.00000000
                                                     2        0.1400000        0.36849872    0.00000000
                                                     2        0.2400000        0.02793449    0.00000000
                                                     2        0.4000000       -0.46312857    0.00000000
                                                     2        0.7000000        0.97587598    0.00000000
                                                     2        1.5000000       -2.43431102    0.00000000
    4          1            1
                                      F and up 
                                                     0        0.0000010       -0.00007675    0.00000000
                                                     2        0.1200000        0.05352699    0.00000000
                                                     2        0.1400000       -0.25123645    0.00000000
                                                     2        0.1600000        0.32188106    0.00000000
                                                     2        0.2200000       -0.25206857    0.00000000
                                                     2        0.3000000        0.19290477    0.00000000
                                                     2        0.5000000       -0.10129770    0.00000000
                                                     2        0.9000000        0.00314995    0.00000000
                                                     2        1.5000000        0.18401192    0.00000000
                                      S - F
                                                     0        0.0000010        0.08065976    0.00000000
                                                     2        0.1200000       -0.09231673    0.00000000
                                                     2        0.1600000       -0.03278082    0.00000000
                                                     2        0.2800000        0.38423402    0.00000000
                                                     2        0.6000000       -1.09357590    0.00000000
                                                     2        1.1000000        1.53099489    0.00000000
                                                     2        3.0000000       -2.63300202    0.00000000
                                      P - F
                                                     0        0.0000010       -0.11638665    0.00000000
                                                     2        0.1200000        0.35468655    0.00000000
                                                     2        0.1600000       -0.59160923    0.00000000
                                                     2        0.3000000        0.49390547    0.00000000
                                                     2        0.6000000       -0.37949835    0.00000000
                                                     2        1.6000000        0.89304688    0.00000000
                                      D - F
                                                     0        0.0000010        0.05443663    0.00000000
                                                     2        0.1200000       -0.29679479    0.00000000
                                                     2        0.1400000        0.36849872    0.00000000
                                                     2        0.2400000        0.02793449    0.00000000
                                                     2        0.4000000       -0.46312857    0.00000000
                                                     2        0.7000000        0.97587598    0.00000000
                                                     2        1.5000000       -2.43431102    0.00000000
    5          6            6
                                      G and up 
                                                     0        0.0000010       -0.00007288    0.00000000
                                                     2        0.1200000        0.10466671    0.00000000
                                                     2        0.1400000       -0.65716157    0.00000000
                                                     2        0.1600000        1.18890794    0.00000000
                                                     2        0.2000000       -1.25772850    0.00000000
                                                     2        0.2600000        1.01188378    0.00000000
                                                     2        0.4000000       -1.09380874    0.00000000
                                                     2        0.5000000        0.96944888    0.00000000
                                                     2        1.0000000       -0.79256938    0.00000000
                                                     2        3.0000000        1.06443276    0.00000000
                                      S - G
                                                     0        0.0000010       -0.00635295    0.00000000
                                                     2        0.1200000        0.16918955    0.00000000
                                                     2        0.1600000       -0.38862576    0.00000000
                                                     2        0.2800000        0.25638263    0.00000000
                                                     2        0.5000000        0.29628419    0.00000000
                                                     2        0.9000000       -0.28791512    0.00000000
                                      P - G
                                                     0        0.0000010       -0.04756931    0.00000000
                                                     2        0.1200000        0.28430375    0.00000000
                                                     2        0.1600000       -0.69640032    0.00000000
                                                     2        0.2600000        1.13005668    0.00000000
                                                     2        0.4000000       -1.31433324    0.00000000
                                                     2        0.7000000        0.91526469    0.00000000
                                      D - G
                                                     0        0.0000010       -0.11496411    0.00000000
                                                     2        0.1200000        0.16620776    0.00000000
                                                     2        0.1800000       -0.30959819    0.00000000
                                                     2        0.3000000        0.16621458    0.00000000
                                                     2        0.6000000        0.27350556    0.00000000
                                      F - G
                                                     0        0.0000010        0.12037550    0.00000000
                                                     2        0.1200000       -0.48737077    0.00000000
                                                     2        0.1400000        0.58315350    0.00000000
                                                     2        0.3000000        0.00005188    0.00000000
                                                     2        0.5000000       -1.16063549    0.00000000
                                                     2        0.8000000        2.09053308    0.00000000
    6          8            8
                                      G and up 
                                                     0        0.0000010        0.00049668    0.00000000
                                                     2        0.1200000       -0.01803391    0.00000000
                                                     2        0.1400000        0.04014195    0.00000000
                                                     2        0.2000000       -0.02692147    0.00000000
                                                     2        0.2800000       -0.04241843    0.00000000
                                                     2        0.4000000        0.15412145    0.00000000
                                                     2        0.7000000       -0.40587006    0.00000000
                                                     2        1.1000000        1.75666647    0.00000000
                                      S - G
                                                     0        0.0000010       -0.01088195    0.00000000
                                                     2        0.1200000        0.09867335    0.00000000
                                                     2        0.2400000       -0.08484177    0.00000000
                                                     2        0.6000000       -1.39011554    0.00000000
                                                     2        2.5000000        1.36225910    0.00000000
                                      P - G
                                                     0        0.0000010        0.05874028    0.00000000
                                                     2        0.1200000       -0.11700340    0.00000000
                                                     2        0.1600000        0.08847775    0.00000000
                                                     2        0.3000000        0.04709907    0.00000000
                                                     2        1.2000000       -1.80388338    0.00000000
                                      D - G
                                                     0        0.0000010       -0.00541262    0.00000000
                                                     2        0.1200000       -0.26547906    0.00000000
                                                     2        0.1600000        1.04289661    0.00000000
                                                     2        0.2400000       -1.92800913    0.00000000
                                                     2        0.4000000        2.26691633    0.00000000
                                                     2        0.7000000       -1.97391482    0.00000000
                                      F - G
                                                     0        0.0000010       -0.02604870    0.00000000
                                                     2        0.1200000        0.37362552    0.00000000
                                                     2        0.1600000       -1.43526367    0.00000000
                                                     2        0.2200000        1.76778079    0.00000000
                                                     2        0.5000000       -1.90846303    0.00000000
    7          1            1
                                      F and up 
                                                     0        0.0000010       -0.00007675    0.00000000
                                                     2        0.1200000        0.05352699    0.00000000
                                                     2        0.1400000       -0.25123645    0.00000000
                                                     2        0.1600000        0.32188106    0.00000000
                                                     2        0.2200000       -0.25206857    0.00000000
                                                     2        0.3000000        0.19290477    0.00000000
                                                     2        0.5000000       -0.10129770    0.00000000
                                                     2        0.9000000        0.00314995    0.00000000
                                                     2        1.5000000        0.18401192    0.00000000
                                      S - F
                                                     0        0.0000010        0.08065976    0.00000000
                                                     2        0.1200000       -0.09231673    0.00000000
                                                     2        0.1600000       -0.03278082    0.00000000
                                                     2        0.2800000        0.38423402    0.00000000
                                                     2        0.6000000       -1.09357590    0.00000000
                                                     2        1.1000000        1.53099489    0.00000000
                                                     2        3.0000000       -2.63300202    0.00000000
                                      P - F
                                                     0        0.0000010       -0.11638665    0.00000000
                                                     2        0.1200000        0.35468655    0.00000000
                                                     2        0.1600000       -0.59160923    0.00000000
                                                     2        0.3000000        0.49390547    0.00000000
                                                     2        0.6000000       -0.37949835    0.00000000
                                                     2        1.6000000        0.89304688    0.00000000
                                      D - F
                                                     0        0.0000010        0.05443663    0.00000000
                                                     2        0.1200000       -0.29679479    0.00000000
                                                     2        0.1400000        0.36849872    0.00000000
                                                     2        0.2400000        0.02793449    0.00000000
                                                     2        0.4000000       -0.46312857    0.00000000
                                                     2        0.7000000        0.97587598    0.00000000
                                                     2        1.5000000       -2.43431102    0.00000000
    8          6            6
                                      G and up 
                                                     0        0.0000010       -0.00007288    0.00000000
                                                     2        0.1200000        0.10466671    0.00000000
                                                     2        0.1400000       -0.65716157    0.00000000
                                                     2        0.1600000        1.18890794    0.00000000
                                                     2        0.2000000       -1.25772850    0.00000000
                                                     2        0.2600000        1.01188378    0.00000000
                                                     2        0.4000000       -1.09380874    0.00000000
                                                     2        0.5000000        0.96944888    0.00000000
                                                     2        1.0000000       -0.79256938    0.00000000
                                                     2        3.0000000        1.06443276    0.00000000
                                      S - G
                                                     0        0.0000010       -0.00635295    0.00000000
                                                     2        0.1200000        0.16918955    0.00000000
                                                     2        0.1600000       -0.38862576    0.00000000
                                                     2        0.2800000        0.25638263    0.00000000
                                                     2        0.5000000        0.29628419    0.00000000
                                                     2        0.9000000       -0.28791512    0.00000000
                                      P - G
                                                     0        0.0000010       -0.04756931    0.00000000
                                                     2        0.1200000        0.28430375    0.00000000
                                                     2        0.1600000       -0.69640032    0.00000000
                                                     2        0.2600000        1.13005668    0.00000000
                                                     2        0.4000000       -1.31433324    0.00000000
                                                     2        0.7000000        0.91526469    0.00000000
                                      D - G
                                                     0        0.0000010       -0.11496411    0.00000000
                                                     2        0.1200000        0.16620776    0.00000000
                                                     2        0.1800000       -0.30959819    0.00000000
                                                     2        0.3000000        0.16621458    0.00000000
                                                     2        0.6000000        0.27350556    0.00000000
                                      F - G
                                                     0        0.0000010        0.12037550    0.00000000
                                                     2        0.1200000       -0.48737077    0.00000000
                                                     2        0.1400000        0.58315350    0.00000000
                                                     2        0.3000000        0.00005188    0.00000000
                                                     2        0.5000000       -1.16063549    0.00000000
                                                     2        0.8000000        2.09053308    0.00000000
    9          1            1
                                      F and up 
                                                     0        0.0000010       -0.00007675    0.00000000
                                                     2        0.1200000        0.05352699    0.00000000
                                                     2        0.1400000       -0.25123645    0.00000000
                                                     2        0.1600000        0.32188106    0.00000000
                                                     2        0.2200000       -0.25206857    0.00000000
                                                     2        0.3000000        0.19290477    0.00000000
                                                     2        0.5000000       -0.10129770    0.00000000
                                                     2        0.9000000        0.00314995    0.00000000
                                                     2        1.5000000        0.18401192    0.00000000
                                      S - F
                                                     0        0.0000010        0.08065976    0.00000000
                                                     2        0.1200000       -0.09231673    0.00000000
                                                     2        0.1600000       -0.03278082    0.00000000
                                                     2        0.2800000        0.38423402    0.00000000
                                                     2        0.6000000       -1.09357590    0.00000000
                                                     2        1.1000000        1.53099489    0.00000000
                                                     2        3.0000000       -2.63300202    0.00000000
                                      P - F
                                                     0        0.0000010       -0.11638665    0.00000000
                                                     2        0.1200000        0.35468655    0.00000000
                                                     2        0.1600000       -0.59160923    0.00000000
                                                     2        0.3000000        0.49390547    0.00000000
                                                     2        0.6000000       -0.37949835    0.00000000
                                                     2        1.6000000        0.89304688    0.00000000
                                      D - F
                                                     0        0.0000010        0.05443663    0.00000000
                                                     2        0.1200000       -0.29679479    0.00000000
                                                     2        0.1400000        0.36849872    0.00000000
                                                     2        0.2400000        0.02793449    0.00000000
                                                     2        0.4000000       -0.46312857    0.00000000
                                                     2        0.7000000        0.97587598    0.00000000
                                                     2        1.5000000       -2.43431102    0.00000000
   10          1            1
                                      F and up 
                                                     0        0.0000010       -0.00007675    0.00000000
                                                     2        0.1200000        0.05352699    0.00000000
                                                     2        0.1400000       -0.25123645    0.00000000
                                                     2        0.1600000        0.32188106    0.00000000
                                                     2        0.2200000       -0.25206857    0.00000000
                                                     2        0.3000000        0.19290477    0.00000000
                                                     2        0.5000000       -0.10129770    0.00000000
                                                     2        0.9000000        0.00314995    0.00000000
                                                     2        1.5000000        0.18401192    0.00000000
                                      S - F
                                                     0        0.0000010        0.08065976    0.00000000
                                                     2        0.1200000       -0.09231673    0.00000000
                                                     2        0.1600000       -0.03278082    0.00000000
                                                     2        0.2800000        0.38423402    0.00000000
                                                     2        0.6000000       -1.09357590    0.00000000
                                                     2        1.1000000        1.53099489    0.00000000
                                                     2        3.0000000       -2.63300202    0.00000000
                                      P - F
                                                     0        0.0000010       -0.11638665    0.00000000
                                                     2        0.1200000        0.35468655    0.00000000
                                                     2        0.1600000       -0.59160923    0.00000000
                                                     2        0.3000000        0.49390547    0.00000000
                                                     2        0.6000000       -0.37949835    0.00000000
                                                     2        1.6000000        0.89304688    0.00000000
                                      D - F
                                                     0        0.0000010        0.05443663    0.00000000
                                                     2        0.1200000       -0.29679479    0.00000000
                                                     2        0.1400000        0.36849872    0.00000000
                                                     2        0.2400000        0.02793449    0.00000000
                                                     2        0.4000000       -0.46312857    0.00000000
                                                     2        0.7000000        0.97587598    0.00000000
                                                     2        1.5000000       -2.43431102    0.00000000
   11          1            1
                                      F and up 
                                                     0        0.0000010       -0.00007675    0.00000000
                                                     2        0.1200000        0.05352699    0.00000000
                                                     2        0.1400000       -0.25123645    0.00000000
                                                     2        0.1600000        0.32188106    0.00000000
                                                     2        0.2200000       -0.25206857    0.00000000
                                                     2        0.3000000        0.19290477    0.00000000
                                                     2        0.5000000       -0.10129770    0.00000000
                                                     2        0.9000000        0.00314995    0.00000000
                                                     2        1.5000000        0.18401192    0.00000000
                                      S - F
                                                     0        0.0000010        0.08065976    0.00000000
                                                     2        0.1200000       -0.09231673    0.00000000
                                                     2        0.1600000       -0.03278082    0.00000000
                                                     2        0.2800000        0.38423402    0.00000000
                                                     2        0.6000000       -1.09357590    0.00000000
                                                     2        1.1000000        1.53099489    0.00000000
                                                     2        3.0000000       -2.63300202    0.00000000
                                      P - F
                                                     0        0.0000010       -0.11638665    0.00000000
                                                     2        0.1200000        0.35468655    0.00000000
                                                     2        0.1600000       -0.59160923    0.00000000
                                                     2        0.3000000        0.49390547    0.00000000
                                                     2        0.6000000       -0.37949835    0.00000000
                                                     2        1.6000000        0.89304688    0.00000000
                                      D - F
                                                     0        0.0000010        0.05443663    0.00000000
                                                     2        0.1200000       -0.29679479    0.00000000
                                                     2        0.1400000        0.36849872    0.00000000
                                                     2        0.2400000        0.02793449    0.00000000
                                                     2        0.4000000       -0.46312857    0.00000000
                                                     2        0.7000000        0.97587598    0.00000000
                                                     2        1.5000000       -2.43431102    0.00000000
 ======================================================================================================
   173 basis functions,   319 primitive gaussians,   183 cartesian basis functions
    24 alpha electrons       23 beta electrons
       nuclear repulsion energy       216.7135930956 Hartrees.
 NAtoms=   11 NActive=   11 NUniq=   11 SFac= 1.00D+00 NAtFMM=   60 NAOKFM=F Big=F
   1 Symmetry operations used in ECPInt.
 ECPInt:  NShTT=    3003 NPrTT=   16073 LenC2=    3001 LenP2D=   12563.
 LDataN:  DoStor=T MaxTD1= 6 Len=  172
 Initial guess from the checkpoint file:  "BDE49_nonexpt_2388_mol2.chk"
 B after Tr=    -0.000000   -0.000000   -0.000000
         Rot=    1.000000    0.000000   -0.000000    0.000000 Ang=   0.00 deg.
 Initial guess <Sx>= 0.0000 <Sy>= 0.0000 <Sz>= 0.5000 <S**2>= 0.7538 S= 0.5019
 >>>>>>>>>> Convergence criterion not met.
 SCF Done:  E(UHF) =  -497.744730597     A.U. after    2 cycles
            NFock=  1  Conv=0.13D-01     -V/T= 2.0016
 <Sx>= 0.0000 <Sy>= 0.0000 <Sz>= 0.5000 <S**2>= 0.7537 S= 0.5018
 <L.S>=  0.00000000000    
 Annihilation of the first spin contaminant:
 S**2 before annihilation     0.7537,   after     0.7500

 **********************************************************************

            Population analysis using the SCF Density.

 **********************************************************************

 Orbital symmetries:
 Alpha Orbitals:
       Occupied  (A) (A) (A) (A) (A) (A) (A) (A) (A) (A) (A) (A)
                 (A) (A) (A) (A) (A) (A) (A) (A) (A) (A) (A) (A)
       Virtual   (A) (A) (A) (A) (A) (A) (A) (A) (A) (A) (A) (A)
                 (A) (A) (A) (A) (A) (A) (A) (A) (A) (A) (A) (A)
                 (A) (A) (A) (A) (A) (A) (A) (A) (A) (A) (A) (A)
                 (A) (A) (A) (A) (A) (A) (A) (A) (A) (A) (A) (A)
                 (A) (A) (A) (A) (A) (A) (A) (A) (A) (A) (A) (A)
                 (A) (A) (A) (A) (A) (A) (A) (A) (A) (A) (A) (A)
                 (A) (A) (A) (A) (A) (A) (A) (A) (A) (A) (A) (A)
                 (A) (A) (A) (A) (A) (A) (A) (A) (A) (A) (A) (A)
                 (A) (A) (A) (A) (A) (A) (A) (A) (A) (A) (A) (A)
                 (A) (A) (A) (A) (A) (A) (A) (A) (A) (A) (A) (A)
                 (A) (A) (A) (A) (A) (A) (A) (A) (A) (A) (A) (A)
                 (A) (A) (A) (A) (A) (A) (A) (A) (A) (A) (A) (A)
                 (A) (A) (A) (A) (A)
 Beta  Orbitals:
       Occupied  (A) (A) (A) (A) (A) (A) (A) (A) (A) (A) (A) (A)
                 (A) (A) (A) (A) (A) (A) (A) (A) (A) (A) (A)
       Virtual   (A) (A) (A) (A) (A) (A) (A) (A) (A) (A) (A) (A)
                 (A) (A) (A) (A) (A) (A) (A) (A) (A) (A) (A) (A)
                 (A) (A) (A) (A) (A) (A) (A) (A) (A) (A) (A) (A)
                 (A) (A) (A) (A) (A) (A) (A) (A) (A) (A) (A) (A)
                 (A) (A) (A) (A) (A) (A) (A) (A) (A) (A) (A) (A)
                 (A) (A) (A) (A) (A) (A) (A) (A) (A) (A) (A) (A)
                 (A) (A) (A) (A) (A) (A) (A) (A) (A) (A) (A) (A)
                 (A) (A) (A) (A) (A) (A) (A) (A) (A) (A) (A) (A)
                 (A) (A) (A) (A) (A) (A) (A) (A) (A) (A) (A) (A)
                 (A) (A) (A) (A) (A) (A) (A) (A) (A) (A) (A) (A)
                 (A) (A) (A) (A) (A) (A) (A) (A) (A) (A) (A) (A)
                 (A) (A) (A) (A) (A) (A) (A) (A) (A) (A) (A) (A)
                 (A) (A) (A) (A) (A) (A)
 The electronic state is 2-A.
 Alpha  occ. eigenvalues --  -69.56208 -20.52014 -15.51982 -11.36808 -11.25508
 Alpha  occ. eigenvalues --   -6.23028  -3.98885  -3.98122  -3.98023  -1.46870
 Alpha  occ. eigenvalues --   -1.21611  -1.01472  -0.83326  -0.77806  -0.69316
 Alpha  occ. eigenvalues --   -0.64154  -0.63455  -0.58929  -0.56205  -0.55345
 Alpha  occ. eigenvalues --   -0.49861  -0.45589  -0.43292  -0.33922
 Alpha virt. eigenvalues --    0.02758   0.04491   0.04631   0.04940   0.06152
 Alpha virt. eigenvalues --    0.06775   0.07082   0.08003   0.10005   0.11187
 Alpha virt. eigenvalues --    0.12043   0.13534   0.14440   0.14909   0.15726
 Alpha virt. eigenvalues --    0.16803   0.16947   0.17377   0.18896   0.19161
 Alpha virt. eigenvalues --    0.20901   0.21627   0.21982   0.23184   0.25291
 Alpha virt. eigenvalues --    0.27916   0.28353   0.29293   0.30428   0.31718
 Alpha virt. eigenvalues --    0.32990   0.33621   0.34579   0.35917   0.37070
 Alpha virt. eigenvalues --    0.38107   0.38919   0.40591   0.41201   0.42316
 Alpha virt. eigenvalues --    0.43290   0.44452   0.45834   0.46954   0.47867
 Alpha virt. eigenvalues --    0.48657   0.48991   0.51105   0.52447   0.52929
 Alpha virt. eigenvalues --    0.55471   0.56236   0.56901   0.57384   0.58729
 Alpha virt. eigenvalues --    0.59279   0.61588   0.62944   0.64826   0.65116
 Alpha virt. eigenvalues --    0.65807   0.67934   0.69321   0.69993   0.71394
 Alpha virt. eigenvalues --    0.72852   0.74699   0.75217   0.76484   0.79624
 Alpha virt. eigenvalues --    0.80257   0.81268   0.84782   0.86452   0.87884
 Alpha virt. eigenvalues --    0.91882   0.92643   0.96983   0.98748   1.00385
 Alpha virt. eigenvalues --    1.02658   1.05170   1.08063   1.08837   1.10986
 Alpha virt. eigenvalues --    1.12248   1.13872   1.16568   1.22620   1.26766
 Alpha virt. eigenvalues --    1.28005   1.31724   1.32442   1.38797   1.43746
 Alpha virt. eigenvalues --    1.44397   1.49452   1.50722   1.55024   1.56068
 Alpha virt. eigenvalues --    1.60403   1.63923   1.72670   1.76075   1.78625
 Alpha virt. eigenvalues --    1.79171   1.88352   1.89992   1.91620   1.92351
 Alpha virt. eigenvalues --    1.97550   1.99794   2.00626   2.05021   2.10737
 Alpha virt. eigenvalues --    2.11711   2.14936   2.16351   2.17889   2.19625
 Alpha virt. eigenvalues --    2.20027   2.23132   2.23872   2.26015   2.29304
 Alpha virt. eigenvalues --    2.34415   2.36015   2.38901   2.39281   2.40239
 Alpha virt. eigenvalues --    2.47321   2.50602   2.57800   2.64646   2.66787
 Alpha virt. eigenvalues --    2.80521   2.80865   2.94342   2.95990   3.01423
 Alpha virt. eigenvalues --    3.03681   3.19822   3.33382   3.47307   3.87941
 Alpha virt. eigenvalues --    3.91301   3.94124   4.08210   4.26358
  Beta  occ. eigenvalues --  -69.55643 -20.51980 -15.51766 -11.36809 -11.25509
  Beta  occ. eigenvalues --   -6.22141  -3.97751  -3.97664  -3.96811  -1.46781
  Beta  occ. eigenvalues --   -1.20989  -1.01388  -0.82726  -0.75900  -0.68916
  Beta  occ. eigenvalues --   -0.63230  -0.62374  -0.58700  -0.55392  -0.54577
  Beta  occ. eigenvalues --   -0.48571  -0.44200  -0.43168
  Beta virt. eigenvalues --    0.02617   0.03026   0.04557   0.04858   0.05040
  Beta virt. eigenvalues --    0.06246   0.07095   0.07788   0.09133   0.10202
  Beta virt. eigenvalues --    0.11401   0.12359   0.13771   0.14971   0.15550
  Beta virt. eigenvalues --    0.16106   0.17076   0.17533   0.17693   0.19329
  Beta virt. eigenvalues --    0.20683   0.21909   0.22347   0.22800   0.24473
  Beta virt. eigenvalues --    0.25875   0.28297   0.29209   0.29993   0.31065
  Beta virt. eigenvalues --    0.32073   0.33216   0.34405   0.35278   0.36528
  Beta virt. eigenvalues --    0.37270   0.38965   0.40000   0.40951   0.41764
  Beta virt. eigenvalues --    0.42637   0.43817   0.44868   0.46308   0.47508
  Beta virt. eigenvalues --    0.48248   0.48864   0.49460   0.51794   0.53260
  Beta virt. eigenvalues --    0.53565   0.55649   0.56663   0.57232   0.58138
  Beta virt. eigenvalues --    0.59067   0.59632   0.61998   0.63718   0.65496
  Beta virt. eigenvalues --    0.65699   0.65996   0.68775   0.70003   0.70691
  Beta virt. eigenvalues --    0.71896   0.73129   0.75232   0.75610   0.77027
  Beta virt. eigenvalues --    0.80584   0.80850   0.82490   0.85885   0.87545
  Beta virt. eigenvalues --    0.89348   0.92028   0.93471   0.97506   0.99551
  Beta virt. eigenvalues --    1.01109   1.03221   1.05400   1.08617   1.09236
  Beta virt. eigenvalues --    1.11444   1.12650   1.14321   1.16982   1.22975
  Beta virt. eigenvalues --    1.27005   1.28200   1.32027   1.33089   1.39177
  Beta virt. eigenvalues --    1.44014   1.44533   1.49766   1.50976   1.55390
  Beta virt. eigenvalues --    1.56247   1.60503   1.64111   1.72724   1.76143
  Beta virt. eigenvalues --    1.78704   1.79304   1.88608   1.90138   1.91659
  Beta virt. eigenvalues --    1.92818   1.97843   2.00084   2.00864   2.05389
  Beta virt. eigenvalues --    2.10949   2.12124   2.15365   2.16744   2.18148
  Beta virt. eigenvalues --    2.19914   2.20244   2.23234   2.24307   2.26111
  Beta virt. eigenvalues --    2.29595   2.34529   2.36113   2.39043   2.39449
  Beta virt. eigenvalues --    2.40319   2.47760   2.50675   2.57861   2.64727
  Beta virt. eigenvalues --    2.66803   2.80659   2.80937   2.94363   2.96093
  Beta virt. eigenvalues --    3.01485   3.03693   3.19876   3.33447   3.47352
  Beta virt. eigenvalues --    3.88017   3.91369   3.94206   4.08243   4.26402
          Condensed to atoms (all electrons):
          Atomic-Atomic Spin Densities.
 Mulliken charges and spin densities:
               1          2
     1  Si   0.511295   0.906798
     2  N    0.369271  -0.010203
     3  H   -0.080571   0.063252
     4  H   -0.130140   0.028732
     5  C    0.448595   0.014825
     6  O   -1.226284   0.004186
     7  H   -0.046866  -0.003192
     8  C   -0.427623  -0.005657
     9  H    0.204947   0.001498
    10  H    0.139317  -0.000759
    11  H    0.238059   0.000520
 Sum of Mulliken charges =  -0.00000   1.00000
 Mulliken charges and spin densities with hydrogens summed into heavy atoms:
               1          2
     1  Si   0.300583   0.998781
     2  N    0.322405  -0.013395
     5  C    0.448595   0.014825
     6  O   -1.226284   0.004186
     8  C    0.154700  -0.004398
 Electronic spatial extent (au):  <R**2>=            619.7546
 Charge=             -0.0000 electrons
 Dipole moment (field-independent basis, Debye):
    X=             -0.6712    Y=             -3.5422    Z=              0.1260  Tot=              3.6075
                          Isotropic Fermi Contact Couplings
        Atom                 a.u.       MegaHertz       Gauss      10(-4) cm-1
     1  Si(29)             0.72289    -642.44802    -229.24143    -214.29759
     2  N(14)              0.03275      10.58323       3.77636       3.53019
     3  H(1)               0.01496      66.87529      23.86277      22.30720
     4  H(1)               0.00879      39.30819      14.02614      13.11180
     5  C(13)             -0.00139      -1.56374      -0.55798      -0.52161
     6  O(17)              0.00289      -1.75002      -0.62445      -0.58374
     7  H(1)              -0.00007      -0.29548      -0.10543      -0.09856
     8  C(13)             -0.00008      -0.09217      -0.03289      -0.03074
     9  H(1)               0.00021       0.95091       0.33931       0.31719
    10  H(1)              -0.00001      -0.02731      -0.00975      -0.00911
    11  H(1)               0.00017       0.77649       0.27707       0.25901
 --------------------------------------------------------
       Center         ----  Spin Dipole Couplings  ----
                      3XX-RR        3YY-RR        3ZZ-RR
 --------------------------------------------------------
     1   Atom       -0.614721     -0.270430      0.885151
     2   Atom       -0.024952     -0.059780      0.084732
     3   Atom       -0.014558      0.001338      0.013220
     4   Atom       -0.007545      0.006785      0.000760
     5   Atom        0.004575     -0.005380      0.000806
     6   Atom        0.003115     -0.015640      0.012525
     7   Atom       -0.003141      0.009423     -0.006282
     8   Atom        0.003190     -0.002214     -0.000977
     9   Atom        0.002767     -0.001207     -0.001560
    10   Atom        0.002274     -0.001148     -0.001126
    11   Atom        0.002159     -0.001169     -0.000990
 --------------------------------------------------------
                        XY            XZ            YZ
 --------------------------------------------------------
     1   Atom        0.097106     -0.216363     -0.775770
     2   Atom        0.024440     -0.090478     -0.043632
     3   Atom        0.001437      0.000738      0.004754
     4   Atom       -0.011530     -0.000357     -0.009144
     5   Atom        0.000660     -0.004333      0.004521
     6   Atom        0.003235      0.044337      0.009897
     7   Atom        0.006373     -0.004254     -0.000061
     8   Atom        0.000342      0.000147     -0.000269
     9   Atom        0.001399      0.000308      0.000007
    10   Atom       -0.000077     -0.000364      0.000025
    11   Atom        0.000988     -0.001420     -0.000538
 --------------------------------------------------------


 ---------------------------------------------------------------------------------
              Anisotropic Spin Dipole Couplings in Principal Axis System
 ---------------------------------------------------------------------------------

       Atom             a.u.   MegaHertz   Gauss  10(-4) cm-1        Axes

              Baa    -0.6649    70.538    25.170    23.529  0.4354  0.7793  0.4508
     1 Si(29) Bbb    -0.6390    67.787    24.188    22.611  0.8919 -0.4415 -0.0981
              Bcc     1.3039  -138.325   -49.358   -46.140 -0.1226 -0.4447  0.8872
 
              Baa    -0.0759    -2.928    -1.045    -0.977  0.8678  0.0270  0.4961
     2 N(14)  Bbb    -0.0718    -2.770    -0.989    -0.924 -0.1391  0.9718  0.1904
              Bcc     0.1477     5.698     2.033     1.901 -0.4770 -0.2343  0.8471
 
              Baa    -0.0147    -7.838    -2.797    -2.615  0.9962 -0.0858 -0.0117
     3 H(1)   Bbb    -0.0002    -0.130    -0.046    -0.043  0.0769  0.9388 -0.3357
              Bcc     0.0149     7.968     2.843     2.658  0.0398  0.3335  0.9419
 
              Baa    -0.0155    -8.296    -2.960    -2.767  0.7837  0.5343  0.3167
     4 H(1)   Bbb    -0.0016    -0.832    -0.297    -0.278 -0.4961  0.2316  0.8368
              Bcc     0.0171     9.128     3.257     3.045 -0.3737  0.8130 -0.4466
 
              Baa    -0.0083    -1.119    -0.399    -0.373 -0.2145  0.8313 -0.5127
     5 C(13)  Bbb     0.0006     0.080     0.029     0.027  0.5828  0.5302  0.6158
              Bcc     0.0077     1.039     0.371     0.347  0.7838 -0.1667 -0.5983
 
              Baa    -0.0376     2.722     0.971     0.908  0.7148  0.1970 -0.6710
     6 O(17)  Bbb    -0.0161     1.165     0.416     0.389 -0.2374  0.9709  0.0321
              Bcc     0.0537    -3.887    -1.387    -1.297  0.6578  0.1364  0.7408
 
              Baa    -0.0100    -5.348    -1.908    -1.784  0.6473 -0.2099  0.7328
     7 H(1)   Bbb    -0.0022    -1.190    -0.425    -0.397 -0.6469  0.3573  0.6737
              Bcc     0.0123     6.538     2.333     2.181  0.4032  0.9101 -0.0955
 
              Baa    -0.0023    -0.308    -0.110    -0.103 -0.0665  0.9761  0.2069
     8 C(13)  Bbb    -0.0009    -0.124    -0.044    -0.041 -0.0176 -0.2085  0.9779
              Bcc     0.0032     0.432     0.154     0.144  0.9976  0.0613  0.0311
 
              Baa    -0.0017    -0.911    -0.325    -0.304 -0.2830  0.7836  0.5531
     9 H(1)   Bbb    -0.0015    -0.811    -0.289    -0.271  0.1178 -0.5439  0.8308
              Bcc     0.0032     1.722     0.615     0.574  0.9519  0.3003  0.0616
 
              Baa    -0.0012    -0.627    -0.224    -0.209  0.0758 -0.5461  0.8343
    10 H(1)   Bbb    -0.0011    -0.608    -0.217    -0.203  0.0765  0.8374  0.5412
              Bcc     0.0023     1.235     0.441     0.412  0.9942 -0.0228 -0.1053
 
              Baa    -0.0016    -0.879    -0.314    -0.293  0.1389  0.5986  0.7889
    11 H(1)   Bbb    -0.0014    -0.723    -0.258    -0.241 -0.4160  0.7582 -0.5020
              Bcc     0.0030     1.602     0.572     0.534  0.8987  0.2585 -0.3544
 

 ---------------------------------------------------------------------------------


 Test job not archived.
 1\1\GINC-SE454\SP\UHF\Aug-CC-pVDZ\C2H6N1O1Si1(2)\OHZDE\09-Apr-2025\0\\
 #t hf aug-cc-pvdz iop(5/13=1,5/36=2,99/5=2) pseudo=read geom=check gue
 ss=(read,tcheck) scf=(maxcycle=1)\\title\\0,2\Si,0,1.852735,-0.00777,-
 0.068775\N,0,0.222382,-0.672506,-0.001537\H,0,2.079904,0.945886,1.0434
 18\H,0,2.7219,-1.206561,0.0745\C,0,-0.880934,0.159834,-0.015495\O,0,-0
 .740776,1.367965,-0.062211\H,0,0.055391,-1.669715,-0.015736\C,0,-2.237
 424,-0.516916,0.045372\H,0,-2.347661,-1.243129,-0.765076\H,0,-3.013932
 ,0.240418,-0.03741\H,0,-2.354204,-1.051804,0.992344\\Version=ES64L-G16
 RevC.01\State=2-A\HF=-497.7447306\S2=0.753693\S2-1=0.\S2A=0.750006\RMS
 D=1.345e-02\Dipole=-0.2640566,-1.3936254,0.0495708\Quadrupole=2.560101
 1,-1.8013942,-0.7587069,2.4373666,-0.0287679,0.3349249\PG=C01 [X(C2H6N
 1O1Si1)]\\@


 O WAD SOME POWER THE GIFTIE GIE US       
 TO SEE OURSELS AS OTHERS SEE US.....     
 IT WOULD FRAE MONIE A BLUNDER FREE US,   
                     AND FOOLISH NOTION...
 WHAT AIRS IN DRESS AND GAIT WAD LEA'E US,
                     AND EV'N DEVOTION....
                                          
              (ROBERT BURNS 'TO A LOUSE') 
 Job cpu time:       0 days  0 hours  0 minutes 44.2 seconds.
 Elapsed time:       0 days  0 hours  0 minutes  3.9 seconds.
 File lengths (MBytes):  RWF=     10 Int=      0 D2E=      0 Chk=      6 Scr=      1
 Normal termination of Gaussian 16 at Wed Apr  9 00:11:48 2025.
