 Entering Gaussian System, Link 0=g16
 Input=BDE49_expt_388_mol2.gjf
 Output=BDE49_expt_388_mol2.log
 Initial command:
 /arc/software/Gaussian/g16.c01/l1.exe "/tmp/slurm/4843213/Gau-2351112.inp" -scrdir="/tmp/slurm/4843213/"
 Entering Link 1 = /arc/software/Gaussian/g16.c01/l1.exe PID=   2351113.
  
 Copyright (c) 1988-2019, Gaussian, Inc.  All Rights Reserved.
  
 This is part of the Gaussian(R) 16 program.  It is based on
 the Gaussian(R) 09 system (copyright 2009, Gaussian, Inc.),
 the Gaussian(R) 03 system (copyright 2003, Gaussian, Inc.),
 the Gaussian(R) 98 system (copyright 1998, Gaussian, Inc.),
 the Gaussian(R) 94 system (copyright 1995, Gaussian, Inc.),
 the Gaussian 92(TM) system (copyright 1992, Gaussian, Inc.),
 the Gaussian 90(TM) system (copyright 1990, Gaussian, Inc.),
 the Gaussian 88(TM) system (copyright 1988, Gaussian, Inc.),
 the Gaussian 86(TM) system (copyright 1986, Carnegie Mellon
 University), and the Gaussian 82(TM) system (copyright 1983,
 Carnegie Mellon University). Gaussian is a federally registered
 trademark of Gaussian, Inc.
  
 This software contains proprietary and confidential information,
 including trade secrets, belonging to Gaussian, Inc.
  
 This software is provided under written license and may be
 used, copied, transmitted, or stored only in accord with that
 written license.
  
 The following legend is applicable only to US Government
 contracts under FAR:
  
                    RESTRICTED RIGHTS LEGEND
  
 Use, reproduction and disclosure by the US Government is
 subject to restrictions as set forth in subparagraphs (a)
 and (c) of the Commercial Computer Software - Restricted
 Rights clause in FAR 52.227-19.
  
 Gaussian, Inc.
 340 Quinnipiac St., Bldg. 40, Wallingford CT 06492
  
  
 ---------------------------------------------------------------
 Warning -- This program may not be used in any manner that
 competes with the business of Gaussian, Inc. or will provide
 assistance to any competitor of Gaussian, Inc.  The licensee
 of this program is prohibited from giving any competitor of
 Gaussian, Inc. access to this program.  By using this program,
 the user acknowledges that Gaussian, Inc. is engaged in the
 business of creating and licensing software in the field of
 computational chemistry and represents and warrants to the
 licensee that it is not a competitor of Gaussian, Inc. and that
 it will not use this program in any manner prohibited above.
 ---------------------------------------------------------------
  

 Cite this work as:
 Gaussian 16, Revision C.01,
 M. J. Frisch, G. W. Trucks, H. B. Schlegel, G. E. Scuseria, 
 M. A. Robb, J. R. Cheeseman, G. Scalmani, V. Barone, 
 G. A. Petersson, H. Nakatsuji, X. Li, M. Caricato, A. V. Marenich, 
 J. Bloino, B. G. Janesko, R. Gomperts, B. Mennucci, H. P. Hratchian, 
 J. V. Ortiz, A. F. Izmaylov, J. L. Sonnenberg, D. Williams-Young, 
 F. Ding, F. Lipparini, F. Egidi, J. Goings, B. Peng, A. Petrone, 
 T. Henderson, D. Ranasinghe, V. G. Zakrzewski, J. Gao, N. Rega, 
 G. Zheng, W. Liang, M. Hada, M. Ehara, K. Toyota, R. Fukuda, 
 J. Hasegawa, M. Ishida, T. Nakajima, Y. Honda, O. Kitao, H. Nakai, 
 T. Vreven, K. Throssell, J. A. Montgomery, Jr., J. E. Peralta, 
 F. Ogliaro, M. J. Bearpark, J. J. Heyd, E. N. Brothers, K. N. Kudin, 
 V. N. Staroverov, T. A. Keith, R. Kobayashi, J. Normand, 
 K. Raghavachari, A. P. Rendell, J. C. Burant, S. S. Iyengar, 
 J. Tomasi, M. Cossi, J. M. Millam, M. Klene, C. Adamo, R. Cammi, 
 J. W. Ochterski, R. L. Martin, K. Morokuma, O. Farkas, 
 J. B. Foresman, and D. J. Fox, Gaussian, Inc., Wallingford CT, 2019.
 
 ******************************************
 Gaussian 16:  ES64L-G16RevC.01  3-Jul-2019
                 8-Apr-2025 
 ******************************************
 %nprocs=16
 Will use up to   16 processors via shared memory.
 %mem=30GB
 %chk=BDE49_expt_388_mol2.chk
 ----------------------------------------------------------------------
 #t hf aug-cc-pvdz symm=none int=(grid=ultrafine) guess=(read,tcheck) s
 table=opt
 ----------------------------------------------------------------------
 -----
 title
 -----
 Symbolic Z-matrix:
 Charge =  0 Multiplicity = 2
 O                     0.66854  -1.26288  -0.43998 
 C                     2.04681  -0.8912   -0.45635 
 C                     2.20685   0.2875    0.50345 
 H                     2.33672  -0.60144  -1.47268 
 H                     2.61697  -1.76769  -0.14676 
 S                     0.69133   1.28194   0.21516 
 H                     3.08929   0.88602   0.27942 
 H                     2.23634  -0.03902   1.544 
 C                    -0.13425  -0.14609  -0.50672 
 C                    -1.59676  -0.41817  -0.289 
 C                    -1.89032  -0.94313   1.1331 
 C                    -2.4528    0.8094   -0.6284 
 H                    -1.84919  -1.21809  -0.99675 
 H                    -2.24576   1.63701   0.05746 
 H                    -3.51559   0.56931  -0.54153 
 H                    -2.26187   1.15671  -1.6465 
 H                    -1.67394  -0.17446   1.88036 
 H                    -1.27717  -1.81909   1.35414 
 H                    -2.94252  -1.22719   1.22955 
 
                    Distance matrix (angstroms):
                    1          2          3          4          5
     1  O    0.000000
     2  C    1.427603   0.000000
     3  C    2.379101   1.528447   0.000000
     4  H    2.070466   1.095880   2.170753   0.000000
     5  H    2.034013   1.090482   2.194257   1.787938   0.000000
     6  S    2.627895   2.647792   1.835433   3.017164   3.624819
     7  H    3.315925   2.187841   1.089549   2.418425   2.728900
     8  H    2.809270   2.182546   1.090977   3.070301   2.447824
     9  C    1.377005   2.305378   2.586345   2.691871   3.213780
    10  C    2.422372   3.677955   3.948841   4.111810   4.426844
    11  C    3.020684   4.246174   4.324080   4.977422   4.757475
    12  C    3.751345   4.813330   4.823460   5.063876   5.707534
    13  H    2.578942   3.946859   4.579172   4.257772   4.579424
    14  H    4.141244   5.008193   4.673949   5.324581   5.939681
    15  H    4.568818   5.751573   5.823885   6.040466   6.574622
    16  H    3.987150   4.916821   5.034603   4.926295   5.882549
    17  H    3.472143   4.451724   4.143643   5.245053   5.005944
    18  H    2.704438   3.897133   4.159296   4.746977   4.173688
    19  H    3.978478   5.277168   5.416407   5.963556   5.752763
                    6          7          8          9         10
     6  S    0.000000
     7  H    2.431273   0.000000
     8  H    2.428537   1.783918   0.000000
     9  C    1.800546   3.474837   3.136336   0.000000
    10  C    2.894801   4.897247   4.265708   1.503444   0.000000
    11  C    3.529654   5.373177   4.244472   2.531411   1.544067
    12  C    3.289442   5.616471   5.237094   2.510663   1.534577
    13  H    3.764718   5.517649   4.953499   2.080941   1.097503
    14  H    2.962675   5.392216   5.010798   2.820672   2.182881
    15  H    4.333423   6.663229   6.148508   3.456358   2.172736
    16  H    3.493259   5.693624   5.642954   2.742834   2.182980
    17  H    3.238588   5.135748   3.927053   2.840696   2.184366
    18  H    3.845596   5.247719   3.943275   2.750993   2.182802
    19  H    4.530954   6.461507   5.322705   3.474153   2.184393
                   11         12         13         14         15
    11  C    0.000000
    12  C    2.547680   0.000000
    13  H    2.147925   2.147265   0.000000
    14  H    2.817887   1.094619   3.069232   0.000000
    15  H    2.780899   1.093026   2.485737   1.763865   0.000000
    16  H    3.503366   1.092520   2.496420   1.770429   1.771379
    17  H    1.093649   2.805082   3.065556   2.632749   3.132160
    18  H    1.091833   3.495932   2.493013   3.816299   3.782662
    19  H    1.094129   2.799912   2.480296   3.172205   2.586996
                   16         17         18         19
    16  H    0.000000
    17  H    3.815285   0.000000
    18  H    4.339219   1.771756   0.000000
    19  H    3.797089   1.772312   1.771794   0.000000
 Symmetry turned off by external request.
 Rotational constants (GHZ):           2.8975511           1.2858414           1.0801411
   287 basis functions,   503 primitive gaussians,   303 cartesian basis functions
    36 alpha electrons       35 beta electrons
       nuclear repulsion energy       473.1783461108 Hartrees.
 NAtoms=   19 NActive=   19 NUniq=   19 SFac= 1.00D+00 NAtFMM=   60 NAOKFM=F Big=F
 ExpMin= 2.97D-02 ExpMax= 1.11D+05 ExpMxC= 1.07D+03 IAcc=3 IRadAn=         5 AccDes= 0.00D+00
 Harris functional with IExCor=  205 and IRadAn=       5 diagonalized for initial guess.
 HarFok:  IExCor=  205 AccDes= 0.00D+00 IRadAn=         5 IDoV= 1 UseB2=F ITyADJ=14
 ICtDFT=  3500011 ScaDFX=  1.000000  1.000000  1.000000  1.000000
 FoFCou: FMM=F IPFlag=           0 FMFlag=      100000 FMFlg1=           0
         NFxFlg=           0 DoJE=T BraDBF=F KetDBF=T FulRan=T
         wScrn=  0.000000 ICntrl=       500 IOpCl=  0 I1Cent=   200000004 NGrid=           0
         NMat0=    1 NMatS0=      1 NMatT0=    0 NMatD0=    1 NMtDS0=    0 NMtDT0=    0
 Symmetry not used in FoFCou.
 Initial guess <Sx>= 0.0000 <Sy>= 0.0000 <Sz>= 0.5000 <S**2>= 0.7500 S= 0.5000
 SCF Done:  E(UHF) =  -706.000709288     A.U. after   18 cycles
            NFock= 18  Conv=0.92D-08     -V/T= 2.0005
 <Sx>= 0.0000 <Sy>= 0.0000 <Sz>= 0.5000 <S**2>= 0.7650 S= 0.5075
 <L.S>=  0.00000000000    
 Annihilation of the first spin contaminant:
 S**2 before annihilation     0.7650,   after     0.7502

 **********************************************************************

            Population analysis using the SCF Density.

 **********************************************************************

 Alpha  occ. eigenvalues --  -91.95582 -20.59534 -11.30824 -11.30298 -11.27473
 Alpha  occ. eigenvalues --  -11.24005 -11.22087 -11.21739  -8.95774  -6.63951
 Alpha  occ. eigenvalues --   -6.63831  -6.63667  -1.42034  -1.09438  -1.07052
 Alpha  occ. eigenvalues --   -0.98946  -0.93107  -0.84992  -0.83676  -0.74614
 Alpha  occ. eigenvalues --   -0.69288  -0.66772  -0.62739  -0.61470  -0.59142
 Alpha  occ. eigenvalues --   -0.56870  -0.54363  -0.53424  -0.51419  -0.50977
 Alpha  occ. eigenvalues --   -0.48518  -0.47583  -0.46845  -0.44562  -0.39426
 Alpha  occ. eigenvalues --   -0.28917
 Alpha virt. eigenvalues --    0.03513   0.04184   0.04637   0.04945   0.05975
 Alpha virt. eigenvalues --    0.06166   0.06289   0.07262   0.07681   0.08650
 Alpha virt. eigenvalues --    0.09002   0.10351   0.11690   0.12559   0.13476
 Alpha virt. eigenvalues --    0.14260   0.14442   0.15755   0.16007   0.16234
 Alpha virt. eigenvalues --    0.16643   0.17086   0.17360   0.17606   0.17867
 Alpha virt. eigenvalues --    0.18179   0.18808   0.19021   0.19974   0.20575
 Alpha virt. eigenvalues --    0.21371   0.21485   0.22399   0.22807   0.24192
 Alpha virt. eigenvalues --    0.24407   0.24723   0.26107   0.27131   0.29524
 Alpha virt. eigenvalues --    0.30187   0.30772   0.31760   0.33200   0.33368
 Alpha virt. eigenvalues --    0.33989   0.35092   0.35460   0.36042   0.37293
 Alpha virt. eigenvalues --    0.38167   0.38849   0.39902   0.40236   0.40597
 Alpha virt. eigenvalues --    0.42202   0.42855   0.43857   0.44478   0.45225
 Alpha virt. eigenvalues --    0.45756   0.46652   0.47122   0.47306   0.47793
 Alpha virt. eigenvalues --    0.48425   0.48624   0.49037   0.49136   0.50184
 Alpha virt. eigenvalues --    0.51216   0.52308   0.52643   0.53369   0.54198
 Alpha virt. eigenvalues --    0.55726   0.56537   0.56760   0.57572   0.58402
 Alpha virt. eigenvalues --    0.58838   0.59185   0.60409   0.61381   0.62309
 Alpha virt. eigenvalues --    0.63171   0.63391   0.63792   0.64736   0.65250
 Alpha virt. eigenvalues --    0.65850   0.66548   0.68060   0.68798   0.69625
 Alpha virt. eigenvalues --    0.70187   0.71168   0.71819   0.72571   0.72930
 Alpha virt. eigenvalues --    0.73312   0.74458   0.75315   0.75954   0.76772
 Alpha virt. eigenvalues --    0.77038   0.77834   0.79555   0.80412   0.80508
 Alpha virt. eigenvalues --    0.81643   0.82447   0.83371   0.84377   0.85552
 Alpha virt. eigenvalues --    0.86184   0.88534   0.89296   0.89954   0.90445
 Alpha virt. eigenvalues --    0.92850   0.93540   0.94621   0.94805   0.95452
 Alpha virt. eigenvalues --    0.97628   0.98446   1.00687   1.04587   1.06044
 Alpha virt. eigenvalues --    1.06763   1.07805   1.08829   1.10350   1.11476
 Alpha virt. eigenvalues --    1.14149   1.15471   1.16141   1.17789   1.19303
 Alpha virt. eigenvalues --    1.21298   1.22179   1.23135   1.23938   1.27168
 Alpha virt. eigenvalues --    1.28042   1.29705   1.31678   1.33351   1.34493
 Alpha virt. eigenvalues --    1.37506   1.37933   1.38355   1.40678   1.42967
 Alpha virt. eigenvalues --    1.44170   1.45743   1.48507   1.49847   1.52673
 Alpha virt. eigenvalues --    1.55003   1.59525   1.60822   1.62893   1.64936
 Alpha virt. eigenvalues --    1.67764   1.68740   1.69438   1.71288   1.74289
 Alpha virt. eigenvalues --    1.77336   1.78448   1.79429   1.81358   1.83512
 Alpha virt. eigenvalues --    1.84866   1.87291   1.89350   1.92496   1.93087
 Alpha virt. eigenvalues --    1.94837   1.95465   1.96230   1.98144   2.02195
 Alpha virt. eigenvalues --    2.03458   2.04870   2.05649   2.07195   2.08045
 Alpha virt. eigenvalues --    2.09391   2.10021   2.12091   2.15173   2.16779
 Alpha virt. eigenvalues --    2.17447   2.19149   2.20221   2.20771   2.23013
 Alpha virt. eigenvalues --    2.24319   2.28315   2.29498   2.30192   2.30843
 Alpha virt. eigenvalues --    2.34179   2.35684   2.37544   2.38683   2.39761
 Alpha virt. eigenvalues --    2.42427   2.45584   2.47593   2.48857   2.51156
 Alpha virt. eigenvalues --    2.53891   2.54219   2.56253   2.58360   2.59354
 Alpha virt. eigenvalues --    2.59858   2.63572   2.67460   2.72229   2.75630
 Alpha virt. eigenvalues --    2.76756   2.78440   2.80476   2.84250   2.85960
 Alpha virt. eigenvalues --    2.87001   2.89189   2.92090   2.94802   2.97153
 Alpha virt. eigenvalues --    3.02555   3.06000   3.09291   3.13329   3.14104
 Alpha virt. eigenvalues --    3.18003   3.19438   3.30801   3.34858   3.54773
 Alpha virt. eigenvalues --    3.72995   3.84117   3.88909   3.98129   4.08560
 Alpha virt. eigenvalues --    4.20595
  Beta  occ. eigenvalues --  -91.95532 -20.59111 -11.30310 -11.28196 -11.27472
  Beta  occ. eigenvalues --  -11.24172 -11.22057 -11.21562  -8.95712  -6.63954
  Beta  occ. eigenvalues --   -6.63830  -6.63422  -1.40561  -1.08023  -1.06791
  Beta  occ. eigenvalues --   -0.97383  -0.92766  -0.83869  -0.82912  -0.72794
  Beta  occ. eigenvalues --   -0.67797  -0.66379  -0.62021  -0.59153  -0.57823
  Beta  occ. eigenvalues --   -0.55732  -0.53821  -0.53238  -0.50425  -0.48961
  Beta  occ. eigenvalues --   -0.47790  -0.46908  -0.46013  -0.43706  -0.35534
  Beta virt. eigenvalues --    0.03512   0.04189   0.04630   0.04951   0.05951
  Beta virt. eigenvalues --    0.06153   0.06262   0.07274   0.07684   0.08651
  Beta virt. eigenvalues --    0.09008   0.10377   0.11421   0.12510   0.12910
  Beta virt. eigenvalues --    0.13783   0.14300   0.14900   0.15905   0.16145
  Beta virt. eigenvalues --    0.16617   0.17124   0.17150   0.17568   0.17926
  Beta virt. eigenvalues --    0.18106   0.18717   0.18911   0.19374   0.20077
  Beta virt. eigenvalues --    0.20831   0.21436   0.21650   0.22468   0.22897
  Beta virt. eigenvalues --    0.24483   0.24825   0.25097   0.26445   0.27678
  Beta virt. eigenvalues --    0.29943   0.30387   0.31059   0.31978   0.33370
  Beta virt. eigenvalues --    0.33506   0.34386   0.35428   0.36022   0.36204
  Beta virt. eigenvalues --    0.37475   0.38887   0.39139   0.40244   0.40576
  Beta virt. eigenvalues --    0.40850   0.42420   0.43137   0.43932   0.44923
  Beta virt. eigenvalues --    0.45572   0.46106   0.46994   0.47228   0.47561
  Beta virt. eigenvalues --    0.47858   0.48654   0.48692   0.49295   0.50271
  Beta virt. eigenvalues --    0.50466   0.51811   0.52657   0.52897   0.53606
  Beta virt. eigenvalues --    0.54604   0.56224   0.56762   0.57252   0.57846
  Beta virt. eigenvalues --    0.58586   0.59073   0.59443   0.60623   0.61685
  Beta virt. eigenvalues --    0.62921   0.63442   0.63749   0.64097   0.64962
  Beta virt. eigenvalues --    0.65662   0.66332   0.67015   0.68417   0.69210
  Beta virt. eigenvalues --    0.69906   0.70418   0.71541   0.72243   0.72933
  Beta virt. eigenvalues --    0.73259   0.73541   0.74828   0.75460   0.76218
  Beta virt. eigenvalues --    0.77015   0.77187   0.78057   0.79865   0.80551
  Beta virt. eigenvalues --    0.81067   0.81755   0.82634   0.83652   0.84681
  Beta virt. eigenvalues --    0.85887   0.86579   0.88898   0.89635   0.90193
  Beta virt. eigenvalues --    0.90857   0.93210   0.93912   0.95099   0.95653
  Beta virt. eigenvalues --    0.95772   0.98116   0.98667   1.01241   1.05122
  Beta virt. eigenvalues --    1.06696   1.07472   1.07964   1.09867   1.10746
  Beta virt. eigenvalues --    1.11759   1.14835   1.15747   1.16445   1.17992
  Beta virt. eigenvalues --    1.19661   1.21868   1.23243   1.23352   1.24196
  Beta virt. eigenvalues --    1.27391   1.28326   1.29984   1.32218   1.33651
  Beta virt. eigenvalues --    1.34970   1.37802   1.38272   1.38651   1.40943
  Beta virt. eigenvalues --    1.43219   1.44994   1.46224   1.48624   1.50423
  Beta virt. eigenvalues --    1.53484   1.55589   1.59796   1.61030   1.63299
  Beta virt. eigenvalues --    1.65853   1.68120   1.69311   1.69976   1.71677
  Beta virt. eigenvalues --    1.74669   1.77972   1.78635   1.79808   1.81551
  Beta virt. eigenvalues --    1.84355   1.85024   1.87822   1.90208   1.93047
  Beta virt. eigenvalues --    1.93481   1.94956   1.95673   1.96680   1.99917
  Beta virt. eigenvalues --    2.03181   2.03864   2.05199   2.05799   2.07515
  Beta virt. eigenvalues --    2.09180   2.10417   2.10638   2.13059   2.15586
  Beta virt. eigenvalues --    2.16965   2.17646   2.19469   2.20488   2.21300
  Beta virt. eigenvalues --    2.23244   2.24593   2.28455   2.29820   2.30416
  Beta virt. eigenvalues --    2.31019   2.34478   2.35963   2.37706   2.39030
  Beta virt. eigenvalues --    2.39892   2.42626   2.45903   2.47827   2.48988
  Beta virt. eigenvalues --    2.51538   2.54192   2.54600   2.56598   2.58462
  Beta virt. eigenvalues --    2.59496   2.60166   2.64237   2.67836   2.72408
  Beta virt. eigenvalues --    2.75710   2.76983   2.78828   2.80821   2.84411
  Beta virt. eigenvalues --    2.86171   2.87044   2.89215   2.92114   2.94950
  Beta virt. eigenvalues --    2.97278   3.02697   3.06083   3.09375   3.13428
  Beta virt. eigenvalues --    3.14439   3.18116   3.19612   3.30959   3.35073
  Beta virt. eigenvalues --    3.55081   3.74117   3.85055   3.89627   3.98841
  Beta virt. eigenvalues --    4.09020   4.21136
          Condensed to atoms (all electrons):
          Atomic-Atomic Spin Densities.
 Mulliken charges and spin densities:
               1          2
     1  O   -0.973504   0.036495
     2  C    0.953299  -0.020232
     3  C   -0.162622   0.005566
     4  H   -0.128194  -0.006815
     5  H   -0.268084   0.000621
     6  S    0.324144  -0.012977
     7  H   -0.068108   0.002286
     8  H   -0.134260  -0.003489
     9  C    0.175554   1.137961
    10  C   -0.781383  -0.190656
    11  C    0.697275   0.049403
    12  C    0.740842   0.019659
    13  H   -0.058133   0.001774
    14  H   -0.028264  -0.002170
    15  H   -0.067258  -0.001001
    16  H   -0.055821  -0.006754
    17  H   -0.009658  -0.008073
    18  H   -0.069545  -0.003609
    19  H   -0.086279   0.002011
 Sum of Mulliken charges =  -0.00000   1.00000
 Mulliken charges and spin densities with hydrogens summed into heavy atoms:
               1          2
     1  O   -0.973504   0.036495
     2  C    0.557020  -0.026426
     3  C   -0.364990   0.004363
     6  S    0.324144  -0.012977
     9  C    0.175554   1.137961
    10  C   -0.839516  -0.188882
    11  C    0.531792   0.039731
    12  C    0.589500   0.009734
 Electronic spatial extent (au):  <R**2>=           1221.3461
 Charge=             -0.0000 electrons
 Dipole moment (field-independent basis, Debye):
    X=              1.3698    Y=             -0.6568    Z=              0.2395  Tot=              1.5379
                          Isotropic Fermi Contact Couplings
        Atom                 a.u.       MegaHertz       Gauss      10(-4) cm-1
     1  O(17)              0.04226     -25.61527      -9.14017      -8.54434
     2  C(13)             -0.00205      -2.30328      -0.82187      -0.76829
     3  C(13)             -0.00093      -1.04259      -0.37202      -0.34777
     4  H(1)               0.00014       0.60809       0.21698       0.20284
     5  H(1)              -0.00068      -3.02664      -1.07998      -1.00958
     6  S(33)              0.06305      21.65749       7.72793       7.22416
     7  H(1)              -0.00073      -3.27410      -1.16828      -1.09212
     8  H(1)               0.00115       5.14225       1.83488       1.71527
     9  C(13)              0.35228     396.03306     141.31444     132.10241
    10  C(13)             -0.02485     -27.93759      -9.96883      -9.31898
    11  C(13)              0.03597      40.44026      14.43009      13.48942
    12  C(13)              0.00729       8.20089       2.92628       2.73552
    13  H(1)               0.00519      23.19111       8.27516       7.73572
    14  H(1)              -0.00044      -1.97205      -0.70368      -0.65781
    15  H(1)              -0.00084      -3.73418      -1.33245      -1.24559
    16  H(1)              -0.00055      -2.45959      -0.87764      -0.82043
    17  H(1)              -0.00121      -5.41929      -1.93374      -1.80768
    18  H(1)              -0.00121      -5.39881      -1.92643      -1.80085
    19  H(1)               0.00107       4.76280       1.69948       1.58870
 --------------------------------------------------------
       Center         ----  Spin Dipole Couplings  ----
                      3XX-RR        3YY-RR        3ZZ-RR
 --------------------------------------------------------
     1   Atom       -0.219091     -0.235740      0.454832
     2   Atom        0.012691     -0.003721     -0.008970
     3   Atom        0.006410     -0.001697     -0.004713
     4   Atom        0.012249     -0.005806     -0.006443
     5   Atom        0.006145     -0.002363     -0.003782
     6   Atom       -0.232094     -0.316023      0.548117
     7   Atom        0.005450     -0.002926     -0.002525
     8   Atom        0.001829     -0.003085      0.001255
     9   Atom       -0.512137     -0.429670      0.941806
    10   Atom        0.018271     -0.005493     -0.012778
    11   Atom       -0.022474     -0.018681      0.041155
    12   Atom        0.013949     -0.004889     -0.009060
    13   Atom        0.013038     -0.002861     -0.010178
    14   Atom        0.003084      0.000457     -0.003541
    15   Atom        0.006038     -0.003103     -0.002935
    16   Atom        0.007875     -0.002924     -0.004951
    17   Atom       -0.002948     -0.004430      0.007379
    18   Atom       -0.002645      0.001764      0.000881
    19   Atom        0.005489     -0.004354     -0.001135
 --------------------------------------------------------
                        XY            XZ            YZ
 --------------------------------------------------------
     1   Atom        0.032045      0.034006     -0.189074
     2   Atom       -0.005104      0.006308      0.000583
     3   Atom       -0.000905      0.007040     -0.000138
     4   Atom       -0.003270     -0.005321      0.000941
     5   Atom       -0.005227      0.002000     -0.000854
     6   Atom       -0.145659     -0.008559      0.012154
     7   Atom        0.001547      0.001856      0.000631
     8   Atom       -0.001019      0.005014      0.000319
     9   Atom        0.045243     -0.110155     -0.362120
    10   Atom        0.002922     -0.013376     -0.000166
    11   Atom        0.008057     -0.022431     -0.028187
    12   Atom       -0.010034     -0.003478      0.001758
    13   Atom        0.014875      0.002897     -0.001261
    14   Atom       -0.006667     -0.003232      0.002694
    15   Atom       -0.001633     -0.000386     -0.000047
    16   Atom       -0.008317      0.004706     -0.003177
    17   Atom        0.001537     -0.005405      0.002665
    18   Atom        0.000747     -0.003718     -0.008276
    19   Atom        0.003441     -0.003061     -0.002023
 --------------------------------------------------------


 ---------------------------------------------------------------------------------
              Anisotropic Spin Dipole Couplings in Principal Axis System
 ---------------------------------------------------------------------------------

       Atom             a.u.   MegaHertz   Gauss  10(-4) cm-1        Axes

              Baa    -0.3029    21.917     7.820     7.311 -0.4294  0.8715  0.2367
     1 O(17)  Bbb    -0.2012    14.558     5.195     4.856  0.9025  0.4241  0.0755
              Bcc     0.5041   -36.475   -13.015   -12.167  0.0346 -0.2461  0.9686
 
              Baa    -0.0112    -1.505    -0.537    -0.502 -0.2998 -0.2752  0.9134
     2 C(13)  Bbb    -0.0044    -0.586    -0.209    -0.196  0.1558  0.9305  0.3315
              Bcc     0.0156     2.091     0.746     0.698  0.9412 -0.2417  0.2361
 
              Baa    -0.0081    -1.092    -0.389    -0.364 -0.4374 -0.0422  0.8983
     3 C(13)  Bbb    -0.0018    -0.235    -0.084    -0.078  0.0494  0.9963  0.0709
              Bcc     0.0099     1.327     0.473     0.443  0.8979 -0.0754  0.4337
 
              Baa    -0.0079    -4.191    -1.495    -1.398  0.2483 -0.0480  0.9675
     4 H(1)   Bbb    -0.0064    -3.404    -1.215    -1.135  0.1741  0.9847  0.0042
              Bcc     0.0142     7.595     2.710     2.533  0.9529 -0.1674 -0.2528
 
              Baa    -0.0049    -2.593    -0.925    -0.865  0.4436  0.8882 -0.1193
     5 H(1)   Bbb    -0.0041    -2.209    -0.788    -0.737 -0.0985  0.1806  0.9786
              Bcc     0.0090     4.802     1.713     1.602  0.8908 -0.4224  0.1676
 
              Baa    -0.4257   -17.452    -6.227    -5.821  0.6011  0.7991 -0.0047
     6 S(33)  Bbb    -0.1228    -5.034    -1.796    -1.679  0.7990 -0.6009  0.0211
              Bcc     0.5484    22.485     8.023     7.500 -0.0140  0.0164  0.9998
 
              Baa    -0.0034    -1.810    -0.646    -0.604 -0.0341  0.8416 -0.5390
     7 H(1)   Bbb    -0.0028    -1.477    -0.527    -0.493 -0.2797  0.5097  0.8136
              Bcc     0.0062     3.287     1.173     1.096  0.9595  0.1785  0.2180
 
              Baa    -0.0042    -2.264    -0.808    -0.755  0.5527  0.6342 -0.5406
     8 H(1)   Bbb    -0.0023    -1.253    -0.447    -0.418 -0.4031  0.7712  0.4926
              Bcc     0.0066     3.517     1.255     1.173  0.7294 -0.0543  0.6819
 
              Baa    -0.5376   -72.145   -25.743   -24.065  0.7218 -0.6828 -0.1134
     9 C(13)  Bbb    -0.5029   -67.478   -24.078   -22.508  0.6880  0.6899  0.2254
              Bcc     1.0405   139.623    49.821    46.573 -0.0757 -0.2407  0.9677
 
              Baa    -0.0178    -2.389    -0.853    -0.797  0.3518 -0.0709  0.9334
    10 C(13)  Bbb    -0.0057    -0.765    -0.273    -0.255 -0.0652  0.9929  0.1000
              Bcc     0.0235     3.155     1.126     1.052  0.9338  0.0961 -0.3447
 
              Baa    -0.0304    -4.083    -1.457    -1.362  0.5736  0.6848  0.4494
    11 C(13)  Bbb    -0.0289    -3.872    -1.382    -1.292  0.7699 -0.6381 -0.0102
              Bcc     0.0593     7.955     2.839     2.654 -0.2798 -0.3519  0.8933
 
              Baa    -0.0097    -1.303    -0.465    -0.435 -0.0575 -0.4453  0.8935
    12 C(13)  Bbb    -0.0091    -1.224    -0.437    -0.408  0.4140  0.8038  0.4272
              Bcc     0.0188     2.527     0.902     0.843  0.9085 -0.3945 -0.1381
 
              Baa    -0.0137    -7.312    -2.609    -2.439 -0.4377  0.6702  0.5993
    13 H(1)   Bbb    -0.0084    -4.459    -1.591    -1.487  0.2670 -0.5396  0.7985
              Bcc     0.0221    11.770     4.200     3.926  0.8585  0.5096  0.0572
 
              Baa    -0.0050    -2.683    -0.957    -0.895  0.5914  0.7923 -0.1499
    14 H(1)   Bbb    -0.0049    -2.591    -0.924    -0.864  0.3279 -0.0664  0.9424
              Bcc     0.0099     5.274     1.882     1.759  0.7367 -0.6065 -0.2991
 
              Baa    -0.0034    -1.821    -0.650    -0.607  0.1748  0.9560  0.2355
    15 H(1)   Bbb    -0.0029    -1.559    -0.556    -0.520 -0.0017 -0.2389  0.9710
              Bcc     0.0063     3.380     1.206     1.128  0.9846 -0.1701 -0.0402
 
              Baa    -0.0077    -4.107    -1.466    -1.370  0.3237  0.8459  0.4239
    16 H(1)   Bbb    -0.0064    -3.401    -1.213    -1.134 -0.4377 -0.2633  0.8597
              Bcc     0.0141     7.508     2.679     2.504  0.8389 -0.4638  0.2850
 
              Baa    -0.0074    -3.962    -1.414    -1.322  0.6605 -0.6590  0.3598
    17 H(1)   Bbb    -0.0025    -1.338    -0.478    -0.446  0.6532  0.7406  0.1574
              Bcc     0.0099     5.300     1.891     1.768 -0.3702  0.1310  0.9197
 
              Baa    -0.0080    -4.250    -1.516    -1.418  0.4150  0.5708  0.7085
    18 H(1)   Bbb    -0.0024    -1.281    -0.457    -0.427  0.8785 -0.4538 -0.1490
              Bcc     0.0104     5.530     1.973     1.845 -0.2365 -0.6843  0.6898
 
              Baa    -0.0057    -3.054    -1.090    -1.019 -0.2140  0.9385  0.2710
    19 H(1)   Bbb    -0.0022    -1.190    -0.425    -0.397  0.4249 -0.1604  0.8909
              Bcc     0.0080     4.244     1.514     1.415  0.8796  0.3058 -0.3644
 

 ---------------------------------------------------------------------------------

 NROrb=    287 NOA=    36 NOB=    35 NVA=   251 NVB=   252

 **** Warning!!: The largest alpha MO coefficient is  0.53373944D+02


 **** Warning!!: The largest beta MO coefficient is  0.51081593D+02

    12 initial guesses have been made.
 Iteration     1 Dimension    12 NMult     0 NNew     12
 Iteration     2 Dimension    24 NMult    12 NNew     12
 Iteration     3 Dimension    27 NMult    24 NNew      3
 Iteration     4 Dimension    30 NMult    27 NNew      3
 Iteration     5 Dimension    33 NMult    30 NNew      3
 Iteration     6 Dimension    36 NMult    33 NNew      3
 Iteration     7 Dimension    39 NMult    36 NNew      3
 Iteration     8 Dimension    42 NMult    39 NNew      3
 Iteration     9 Dimension    45 NMult    42 NNew      3
 Iteration    10 Dimension    48 NMult    45 NNew      3
 ***********************************************************************
 Stability analysis using <AA,BB:AA,BB> singles matrix:
 ***********************************************************************
 Ground to excited state transition densities written to RWF  633

 Eigenvectors of the stability matrix:
 
 Excited state symmetry could not be determined.
 Eigenvector   1:  2.895-?Sym  Eigenvalue= 0.1456593  <S**2>=1.845
     35A -> 51A        0.13723
     36A -> 37A        0.13324
     36A -> 40A        0.11748
     36A -> 48A        0.12677
     36A -> 50A       -0.14590
     36A -> 51A        0.42147
     36A -> 54A        0.14049
     36A -> 55A        0.10391
     36A -> 56A        0.15323
     36A -> 57A        0.24204
     36A -> 60A       -0.14233
     36A -> 61A        0.16031
     36A -> 62A        0.16946
     36A -> 63A        0.13358
     36A -> 68A       -0.22664
     36A -> 71A        0.27648
     35B -> 50B       -0.11032
     35B -> 51B       -0.14447
     35B -> 68B       -0.10675
 The wavefunction is stable under the perturbations considered.
 The wavefunction is already stable.

 **********************************************************************

            Population analysis using the SCF Density.

 **********************************************************************

 Alpha  occ. eigenvalues --  -91.95582 -20.59534 -11.30824 -11.30298 -11.27473
 Alpha  occ. eigenvalues --  -11.24005 -11.22087 -11.21739  -8.95774  -6.63951
 Alpha  occ. eigenvalues --   -6.63831  -6.63667  -1.42034  -1.09438  -1.07052
 Alpha  occ. eigenvalues --   -0.98946  -0.93107  -0.84992  -0.83676  -0.74614
 Alpha  occ. eigenvalues --   -0.69288  -0.66772  -0.62739  -0.61470  -0.59142
 Alpha  occ. eigenvalues --   -0.56870  -0.54363  -0.53424  -0.51419  -0.50977
 Alpha  occ. eigenvalues --   -0.48518  -0.47583  -0.46845  -0.44562  -0.39426
 Alpha  occ. eigenvalues --   -0.28917
 Alpha virt. eigenvalues --    0.03513   0.04184   0.04637   0.04945   0.05975
 Alpha virt. eigenvalues --    0.06166   0.06289   0.07262   0.07681   0.08650
 Alpha virt. eigenvalues --    0.09002   0.10351   0.11690   0.12559   0.13476
 Alpha virt. eigenvalues --    0.14260   0.14442   0.15755   0.16007   0.16234
 Alpha virt. eigenvalues --    0.16643   0.17086   0.17360   0.17606   0.17867
 Alpha virt. eigenvalues --    0.18179   0.18808   0.19021   0.19974   0.20575
 Alpha virt. eigenvalues --    0.21371   0.21485   0.22399   0.22807   0.24192
 Alpha virt. eigenvalues --    0.24407   0.24723   0.26107   0.27131   0.29524
 Alpha virt. eigenvalues --    0.30187   0.30772   0.31760   0.33200   0.33368
 Alpha virt. eigenvalues --    0.33989   0.35092   0.35460   0.36042   0.37293
 Alpha virt. eigenvalues --    0.38167   0.38849   0.39902   0.40236   0.40597
 Alpha virt. eigenvalues --    0.42202   0.42855   0.43857   0.44478   0.45225
 Alpha virt. eigenvalues --    0.45756   0.46652   0.47122   0.47306   0.47793
 Alpha virt. eigenvalues --    0.48425   0.48624   0.49037   0.49136   0.50184
 Alpha virt. eigenvalues --    0.51216   0.52308   0.52643   0.53369   0.54198
 Alpha virt. eigenvalues --    0.55726   0.56537   0.56760   0.57572   0.58402
 Alpha virt. eigenvalues --    0.58838   0.59185   0.60409   0.61381   0.62309
 Alpha virt. eigenvalues --    0.63171   0.63391   0.63792   0.64736   0.65250
 Alpha virt. eigenvalues --    0.65850   0.66548   0.68060   0.68798   0.69625
 Alpha virt. eigenvalues --    0.70187   0.71168   0.71819   0.72571   0.72930
 Alpha virt. eigenvalues --    0.73312   0.74458   0.75315   0.75954   0.76772
 Alpha virt. eigenvalues --    0.77038   0.77834   0.79555   0.80412   0.80508
 Alpha virt. eigenvalues --    0.81643   0.82447   0.83371   0.84377   0.85552
 Alpha virt. eigenvalues --    0.86184   0.88534   0.89296   0.89954   0.90445
 Alpha virt. eigenvalues --    0.92850   0.93540   0.94621   0.94805   0.95452
 Alpha virt. eigenvalues --    0.97628   0.98446   1.00687   1.04587   1.06044
 Alpha virt. eigenvalues --    1.06763   1.07805   1.08829   1.10350   1.11476
 Alpha virt. eigenvalues --    1.14149   1.15471   1.16141   1.17789   1.19303
 Alpha virt. eigenvalues --    1.21298   1.22179   1.23135   1.23938   1.27168
 Alpha virt. eigenvalues --    1.28042   1.29705   1.31678   1.33351   1.34493
 Alpha virt. eigenvalues --    1.37506   1.37933   1.38355   1.40678   1.42967
 Alpha virt. eigenvalues --    1.44170   1.45743   1.48507   1.49847   1.52673
 Alpha virt. eigenvalues --    1.55003   1.59525   1.60822   1.62893   1.64936
 Alpha virt. eigenvalues --    1.67764   1.68740   1.69438   1.71288   1.74289
 Alpha virt. eigenvalues --    1.77336   1.78448   1.79429   1.81358   1.83512
 Alpha virt. eigenvalues --    1.84866   1.87291   1.89350   1.92496   1.93087
 Alpha virt. eigenvalues --    1.94837   1.95465   1.96230   1.98144   2.02195
 Alpha virt. eigenvalues --    2.03458   2.04870   2.05649   2.07195   2.08045
 Alpha virt. eigenvalues --    2.09391   2.10021   2.12091   2.15173   2.16779
 Alpha virt. eigenvalues --    2.17447   2.19149   2.20221   2.20771   2.23013
 Alpha virt. eigenvalues --    2.24319   2.28315   2.29498   2.30192   2.30843
 Alpha virt. eigenvalues --    2.34179   2.35684   2.37544   2.38683   2.39761
 Alpha virt. eigenvalues --    2.42427   2.45584   2.47593   2.48857   2.51156
 Alpha virt. eigenvalues --    2.53891   2.54219   2.56253   2.58360   2.59354
 Alpha virt. eigenvalues --    2.59858   2.63572   2.67460   2.72229   2.75630
 Alpha virt. eigenvalues --    2.76756   2.78440   2.80476   2.84250   2.85960
 Alpha virt. eigenvalues --    2.87001   2.89189   2.92090   2.94802   2.97153
 Alpha virt. eigenvalues --    3.02555   3.06000   3.09291   3.13329   3.14104
 Alpha virt. eigenvalues --    3.18003   3.19438   3.30801   3.34858   3.54773
 Alpha virt. eigenvalues --    3.72995   3.84117   3.88909   3.98129   4.08560
 Alpha virt. eigenvalues --    4.20595
  Beta  occ. eigenvalues --  -91.95532 -20.59111 -11.30310 -11.28196 -11.27472
  Beta  occ. eigenvalues --  -11.24172 -11.22057 -11.21562  -8.95712  -6.63954
  Beta  occ. eigenvalues --   -6.63830  -6.63422  -1.40561  -1.08023  -1.06791
  Beta  occ. eigenvalues --   -0.97383  -0.92766  -0.83869  -0.82912  -0.72794
  Beta  occ. eigenvalues --   -0.67797  -0.66379  -0.62021  -0.59153  -0.57823
  Beta  occ. eigenvalues --   -0.55732  -0.53821  -0.53238  -0.50425  -0.48961
  Beta  occ. eigenvalues --   -0.47790  -0.46908  -0.46013  -0.43706  -0.35534
  Beta virt. eigenvalues --    0.03512   0.04189   0.04630   0.04951   0.05951
  Beta virt. eigenvalues --    0.06153   0.06262   0.07274   0.07684   0.08651
  Beta virt. eigenvalues --    0.09008   0.10377   0.11421   0.12510   0.12910
  Beta virt. eigenvalues --    0.13783   0.14300   0.14900   0.15905   0.16145
  Beta virt. eigenvalues --    0.16617   0.17124   0.17150   0.17568   0.17926
  Beta virt. eigenvalues --    0.18106   0.18717   0.18911   0.19374   0.20077
  Beta virt. eigenvalues --    0.20831   0.21436   0.21650   0.22468   0.22897
  Beta virt. eigenvalues --    0.24483   0.24825   0.25097   0.26445   0.27678
  Beta virt. eigenvalues --    0.29943   0.30387   0.31059   0.31978   0.33370
  Beta virt. eigenvalues --    0.33506   0.34386   0.35428   0.36022   0.36204
  Beta virt. eigenvalues --    0.37475   0.38887   0.39139   0.40244   0.40576
  Beta virt. eigenvalues --    0.40850   0.42420   0.43137   0.43932   0.44923
  Beta virt. eigenvalues --    0.45572   0.46106   0.46994   0.47228   0.47561
  Beta virt. eigenvalues --    0.47858   0.48654   0.48692   0.49295   0.50271
  Beta virt. eigenvalues --    0.50466   0.51811   0.52657   0.52897   0.53606
  Beta virt. eigenvalues --    0.54604   0.56224   0.56762   0.57252   0.57846
  Beta virt. eigenvalues --    0.58586   0.59073   0.59443   0.60623   0.61685
  Beta virt. eigenvalues --    0.62921   0.63442   0.63749   0.64097   0.64962
  Beta virt. eigenvalues --    0.65662   0.66332   0.67015   0.68417   0.69210
  Beta virt. eigenvalues --    0.69906   0.70418   0.71541   0.72243   0.72933
  Beta virt. eigenvalues --    0.73259   0.73541   0.74828   0.75460   0.76218
  Beta virt. eigenvalues --    0.77015   0.77187   0.78057   0.79865   0.80551
  Beta virt. eigenvalues --    0.81067   0.81755   0.82634   0.83652   0.84681
  Beta virt. eigenvalues --    0.85887   0.86579   0.88898   0.89635   0.90193
  Beta virt. eigenvalues --    0.90857   0.93210   0.93912   0.95099   0.95653
  Beta virt. eigenvalues --    0.95772   0.98116   0.98667   1.01241   1.05122
  Beta virt. eigenvalues --    1.06696   1.07472   1.07964   1.09867   1.10746
  Beta virt. eigenvalues --    1.11759   1.14835   1.15747   1.16445   1.17992
  Beta virt. eigenvalues --    1.19661   1.21868   1.23243   1.23352   1.24196
  Beta virt. eigenvalues --    1.27391   1.28326   1.29984   1.32218   1.33651
  Beta virt. eigenvalues --    1.34970   1.37802   1.38272   1.38651   1.40943
  Beta virt. eigenvalues --    1.43219   1.44994   1.46224   1.48624   1.50423
  Beta virt. eigenvalues --    1.53484   1.55589   1.59796   1.61030   1.63299
  Beta virt. eigenvalues --    1.65853   1.68120   1.69311   1.69976   1.71677
  Beta virt. eigenvalues --    1.74669   1.77972   1.78635   1.79808   1.81551
  Beta virt. eigenvalues --    1.84355   1.85024   1.87822   1.90208   1.93047
  Beta virt. eigenvalues --    1.93481   1.94956   1.95673   1.96680   1.99917
  Beta virt. eigenvalues --    2.03181   2.03864   2.05199   2.05799   2.07515
  Beta virt. eigenvalues --    2.09180   2.10417   2.10638   2.13059   2.15586
  Beta virt. eigenvalues --    2.16965   2.17646   2.19469   2.20488   2.21300
  Beta virt. eigenvalues --    2.23244   2.24593   2.28455   2.29820   2.30416
  Beta virt. eigenvalues --    2.31019   2.34478   2.35963   2.37706   2.39030
  Beta virt. eigenvalues --    2.39892   2.42626   2.45903   2.47827   2.48988
  Beta virt. eigenvalues --    2.51538   2.54192   2.54600   2.56598   2.58462
  Beta virt. eigenvalues --    2.59496   2.60166   2.64237   2.67836   2.72408
  Beta virt. eigenvalues --    2.75710   2.76983   2.78828   2.80821   2.84411
  Beta virt. eigenvalues --    2.86171   2.87044   2.89215   2.92114   2.94950
  Beta virt. eigenvalues --    2.97278   3.02697   3.06083   3.09375   3.13428
  Beta virt. eigenvalues --    3.14439   3.18116   3.19612   3.30959   3.35073
  Beta virt. eigenvalues --    3.55081   3.74117   3.85055   3.89627   3.98841
  Beta virt. eigenvalues --    4.09020   4.21136
          Condensed to atoms (all electrons):
          Atomic-Atomic Spin Densities.
 Mulliken charges and spin densities:
               1          2
     1  O   -0.973504   0.036495
     2  C    0.953299  -0.020232
     3  C   -0.162622   0.005566
     4  H   -0.128194  -0.006815
     5  H   -0.268084   0.000621
     6  S    0.324144  -0.012977
     7  H   -0.068108   0.002286
     8  H   -0.134260  -0.003489
     9  C    0.175554   1.137961
    10  C   -0.781383  -0.190656
    11  C    0.697275   0.049403
    12  C    0.740842   0.019659
    13  H   -0.058133   0.001774
    14  H   -0.028264  -0.002170
    15  H   -0.067258  -0.001001
    16  H   -0.055821  -0.006754
    17  H   -0.009658  -0.008073
    18  H   -0.069545  -0.003609
    19  H   -0.086279   0.002011
 Sum of Mulliken charges =  -0.00000   1.00000
 Mulliken charges and spin densities with hydrogens summed into heavy atoms:
               1          2
     1  O   -0.973504   0.036495
     2  C    0.557020  -0.026426
     3  C   -0.364990   0.004363
     6  S    0.324144  -0.012977
     9  C    0.175554   1.137961
    10  C   -0.839516  -0.188882
    11  C    0.531792   0.039731
    12  C    0.589500   0.009734
 Electronic spatial extent (au):  <R**2>=           1221.3461
 Charge=             -0.0000 electrons
 Dipole moment (field-independent basis, Debye):
    X=              1.3698    Y=             -0.6568    Z=              0.2395  Tot=              1.5379
                          Isotropic Fermi Contact Couplings
        Atom                 a.u.       MegaHertz       Gauss      10(-4) cm-1
     1  O(17)              0.04226     -25.61527      -9.14017      -8.54434
     2  C(13)             -0.00205      -2.30328      -0.82187      -0.76829
     3  C(13)             -0.00093      -1.04259      -0.37202      -0.34777
     4  H(1)               0.00014       0.60809       0.21698       0.20284
     5  H(1)              -0.00068      -3.02664      -1.07998      -1.00958
     6  S(33)              0.06305      21.65749       7.72793       7.22416
     7  H(1)              -0.00073      -3.27410      -1.16828      -1.09212
     8  H(1)               0.00115       5.14225       1.83488       1.71527
     9  C(13)              0.35228     396.03306     141.31444     132.10241
    10  C(13)             -0.02485     -27.93759      -9.96883      -9.31898
    11  C(13)              0.03597      40.44026      14.43009      13.48942
    12  C(13)              0.00729       8.20089       2.92628       2.73552
    13  H(1)               0.00519      23.19111       8.27516       7.73572
    14  H(1)              -0.00044      -1.97205      -0.70368      -0.65781
    15  H(1)              -0.00084      -3.73418      -1.33245      -1.24559
    16  H(1)              -0.00055      -2.45959      -0.87764      -0.82043
    17  H(1)              -0.00121      -5.41929      -1.93374      -1.80768
    18  H(1)              -0.00121      -5.39881      -1.92643      -1.80085
    19  H(1)               0.00107       4.76280       1.69948       1.58870
 --------------------------------------------------------
       Center         ----  Spin Dipole Couplings  ----
                      3XX-RR        3YY-RR        3ZZ-RR
 --------------------------------------------------------
     1   Atom       -0.219091     -0.235740      0.454832
     2   Atom        0.012691     -0.003721     -0.008970
     3   Atom        0.006410     -0.001697     -0.004713
     4   Atom        0.012249     -0.005806     -0.006443
     5   Atom        0.006145     -0.002363     -0.003782
     6   Atom       -0.232094     -0.316023      0.548117
     7   Atom        0.005450     -0.002926     -0.002525
     8   Atom        0.001829     -0.003085      0.001255
     9   Atom       -0.512137     -0.429670      0.941806
    10   Atom        0.018271     -0.005493     -0.012778
    11   Atom       -0.022474     -0.018681      0.041155
    12   Atom        0.013949     -0.004889     -0.009060
    13   Atom        0.013038     -0.002861     -0.010178
    14   Atom        0.003084      0.000457     -0.003541
    15   Atom        0.006038     -0.003103     -0.002935
    16   Atom        0.007875     -0.002924     -0.004951
    17   Atom       -0.002948     -0.004430      0.007379
    18   Atom       -0.002645      0.001764      0.000881
    19   Atom        0.005489     -0.004354     -0.001135
 --------------------------------------------------------
                        XY            XZ            YZ
 --------------------------------------------------------
     1   Atom        0.032045      0.034006     -0.189074
     2   Atom       -0.005104      0.006308      0.000583
     3   Atom       -0.000905      0.007040     -0.000138
     4   Atom       -0.003270     -0.005321      0.000941
     5   Atom       -0.005227      0.002000     -0.000854
     6   Atom       -0.145659     -0.008559      0.012154
     7   Atom        0.001547      0.001856      0.000631
     8   Atom       -0.001019      0.005014      0.000319
     9   Atom        0.045243     -0.110155     -0.362120
    10   Atom        0.002922     -0.013376     -0.000166
    11   Atom        0.008057     -0.022431     -0.028187
    12   Atom       -0.010034     -0.003478      0.001758
    13   Atom        0.014875      0.002897     -0.001261
    14   Atom       -0.006667     -0.003232      0.002694
    15   Atom       -0.001633     -0.000386     -0.000047
    16   Atom       -0.008317      0.004706     -0.003177
    17   Atom        0.001537     -0.005405      0.002665
    18   Atom        0.000747     -0.003718     -0.008276
    19   Atom        0.003441     -0.003061     -0.002023
 --------------------------------------------------------


 ---------------------------------------------------------------------------------
              Anisotropic Spin Dipole Couplings in Principal Axis System
 ---------------------------------------------------------------------------------

       Atom             a.u.   MegaHertz   Gauss  10(-4) cm-1        Axes

              Baa    -0.3029    21.917     7.820     7.311 -0.4294  0.8715  0.2367
     1 O(17)  Bbb    -0.2012    14.558     5.195     4.856  0.9025  0.4241  0.0755
              Bcc     0.5041   -36.475   -13.015   -12.167  0.0346 -0.2461  0.9686
 
              Baa    -0.0112    -1.505    -0.537    -0.502 -0.2998 -0.2752  0.9134
     2 C(13)  Bbb    -0.0044    -0.586    -0.209    -0.196  0.1558  0.9305  0.3315
              Bcc     0.0156     2.091     0.746     0.698  0.9412 -0.2417  0.2361
 
              Baa    -0.0081    -1.092    -0.389    -0.364 -0.4374 -0.0422  0.8983
     3 C(13)  Bbb    -0.0018    -0.235    -0.084    -0.078  0.0494  0.9963  0.0709
              Bcc     0.0099     1.327     0.473     0.443  0.8979 -0.0754  0.4337
 
              Baa    -0.0079    -4.191    -1.495    -1.398  0.2483 -0.0480  0.9675
     4 H(1)   Bbb    -0.0064    -3.404    -1.215    -1.135  0.1741  0.9847  0.0042
              Bcc     0.0142     7.595     2.710     2.533  0.9529 -0.1674 -0.2528
 
              Baa    -0.0049    -2.593    -0.925    -0.865  0.4436  0.8882 -0.1193
     5 H(1)   Bbb    -0.0041    -2.209    -0.788    -0.737 -0.0985  0.1806  0.9786
              Bcc     0.0090     4.802     1.713     1.602  0.8908 -0.4224  0.1676
 
              Baa    -0.4257   -17.452    -6.227    -5.821  0.6011  0.7991 -0.0047
     6 S(33)  Bbb    -0.1228    -5.034    -1.796    -1.679  0.7990 -0.6009  0.0211
              Bcc     0.5484    22.485     8.023     7.500 -0.0140  0.0164  0.9998
 
              Baa    -0.0034    -1.810    -0.646    -0.604 -0.0341  0.8416 -0.5390
     7 H(1)   Bbb    -0.0028    -1.477    -0.527    -0.493 -0.2797  0.5097  0.8136
              Bcc     0.0062     3.287     1.173     1.096  0.9595  0.1785  0.2180
 
              Baa    -0.0042    -2.264    -0.808    -0.755  0.5527  0.6342 -0.5406
     8 H(1)   Bbb    -0.0023    -1.253    -0.447    -0.418 -0.4031  0.7712  0.4926
              Bcc     0.0066     3.517     1.255     1.173  0.7294 -0.0543  0.6819
 
              Baa    -0.5376   -72.145   -25.743   -24.065  0.7218 -0.6828 -0.1134
     9 C(13)  Bbb    -0.5029   -67.478   -24.078   -22.508  0.6880  0.6899  0.2254
              Bcc     1.0405   139.623    49.821    46.573 -0.0757 -0.2407  0.9677
 
              Baa    -0.0178    -2.389    -0.853    -0.797  0.3518 -0.0709  0.9334
    10 C(13)  Bbb    -0.0057    -0.765    -0.273    -0.255 -0.0652  0.9929  0.1000
              Bcc     0.0235     3.155     1.126     1.052  0.9338  0.0961 -0.3447
 
              Baa    -0.0304    -4.083    -1.457    -1.362  0.5736  0.6848  0.4494
    11 C(13)  Bbb    -0.0289    -3.872    -1.382    -1.292  0.7699 -0.6381 -0.0102
              Bcc     0.0593     7.955     2.839     2.654 -0.2798 -0.3519  0.8933
 
              Baa    -0.0097    -1.303    -0.465    -0.435 -0.0575 -0.4453  0.8935
    12 C(13)  Bbb    -0.0091    -1.224    -0.437    -0.408  0.4140  0.8038  0.4272
              Bcc     0.0188     2.527     0.902     0.843  0.9085 -0.3945 -0.1381
 
              Baa    -0.0137    -7.312    -2.609    -2.439 -0.4377  0.6702  0.5993
    13 H(1)   Bbb    -0.0084    -4.459    -1.591    -1.487  0.2670 -0.5396  0.7985
              Bcc     0.0221    11.770     4.200     3.926  0.8585  0.5096  0.0572
 
              Baa    -0.0050    -2.683    -0.957    -0.895  0.5914  0.7923 -0.1499
    14 H(1)   Bbb    -0.0049    -2.591    -0.924    -0.864  0.3279 -0.0664  0.9424
              Bcc     0.0099     5.274     1.882     1.759  0.7367 -0.6065 -0.2991
 
              Baa    -0.0034    -1.821    -0.650    -0.607  0.1748  0.9560  0.2355
    15 H(1)   Bbb    -0.0029    -1.559    -0.556    -0.520 -0.0017 -0.2389  0.9710
              Bcc     0.0063     3.380     1.206     1.128  0.9846 -0.1701 -0.0402
 
              Baa    -0.0077    -4.107    -1.466    -1.370  0.3237  0.8459  0.4239
    16 H(1)   Bbb    -0.0064    -3.401    -1.213    -1.134 -0.4377 -0.2633  0.8597
              Bcc     0.0141     7.508     2.679     2.504  0.8389 -0.4638  0.2850
 
              Baa    -0.0074    -3.962    -1.414    -1.322  0.6605 -0.6590  0.3598
    17 H(1)   Bbb    -0.0025    -1.338    -0.478    -0.446  0.6532  0.7406  0.1574
              Bcc     0.0099     5.300     1.891     1.768 -0.3702  0.1310  0.9197
 
              Baa    -0.0080    -4.250    -1.516    -1.418  0.4150  0.5708  0.7085
    18 H(1)   Bbb    -0.0024    -1.281    -0.457    -0.427  0.8785 -0.4538 -0.1490
              Bcc     0.0104     5.530     1.973     1.845 -0.2365 -0.6843  0.6898
 
              Baa    -0.0057    -3.054    -1.090    -1.019 -0.2140  0.9385  0.2710
    19 H(1)   Bbb    -0.0022    -1.190    -0.425    -0.397  0.4249 -0.1604  0.8909
              Bcc     0.0080     4.244     1.514     1.415  0.8796  0.3058 -0.3644
 

 ---------------------------------------------------------------------------------

 Unable to Open any file for archive entry.
 1\1\GINC-SE073\Stability\UHF\Aug-CC-pVDZ\C6H11O1S1\OHZDE\08-Apr-2025\0
 \\#t hf aug-cc-pvdz symm=none int=(grid=ultrafine) guess=(read,tcheck)
  stable=opt\\title\\0,2\O,0,0.668535,-1.262878,-0.439977\C,0,2.046809,
 -0.891202,-0.456345\C,0,2.206847,0.287501,0.503445\H,0,2.336724,-0.601
 443,-1.472682\H,0,2.616971,-1.767686,-0.146763\S,0,0.691328,1.281941,0
 .215162\H,0,3.089287,0.886024,0.279423\H,0,2.23634,-0.039017,1.543996\
 C,0,-0.134254,-0.146089,-0.506717\C,0,-1.596758,-0.418165,-0.288998\C,
 0,-1.890315,-0.943134,1.133104\C,0,-2.4528,0.809404,-0.6284\H,0,-1.849
 189,-1.218086,-0.996753\H,0,-2.245762,1.637007,0.057457\H,0,-3.515586,
 0.56931,-0.541533\H,0,-2.261872,1.156705,-1.6465\H,0,-1.673936,-0.1744
 6,1.880358\H,0,-1.277167,-1.819085,1.354142\H,0,-2.942517,-1.227189,1.
 229549\\Version=ES64L-G16RevC.01\HF=-706.0007093\S2=0.764976\S2-1=0.\S
 2A=0.750179\RMSD=9.199e-09\Dipole=0.5389398,-0.2584,0.0942327\Quadrupo
 le=5.7552182,-4.0110995,-1.7441187,-0.7030384,0.8304957,-0.1425024\PG=
 Unknown\\@
 The archive entry for this job was punched.


 FROM THE ASHES OF OUR DESPAIR GROW THE FLOWERS OF TOMORROW.
 Job cpu time:       0 days  0 hours 29 minutes 12.4 seconds.
 Elapsed time:       0 days  0 hours  1 minutes 58.6 seconds.
 File lengths (MBytes):  RWF=    387 Int=      0 D2E=      0 Chk=     13 Scr=      1
 Normal termination of Gaussian 16 at Tue Apr  8 23:06:36 2025.
 Initial command:
 /arc/software/Gaussian/g16.c01/l1.exe "/tmp/slurm/4843213/Gau-2351112.inp" -scrdir="/tmp/slurm/4843213/"
 Entering Link 1 = /arc/software/Gaussian/g16.c01/l1.exe PID=   2351585.
  
 Copyright (c) 1988-2019, Gaussian, Inc.  All Rights Reserved.
  
 This is part of the Gaussian(R) 16 program.  It is based on
 the Gaussian(R) 09 system (copyright 2009, Gaussian, Inc.),
 the Gaussian(R) 03 system (copyright 2003, Gaussian, Inc.),
 the Gaussian(R) 98 system (copyright 1998, Gaussian, Inc.),
 the Gaussian(R) 94 system (copyright 1995, Gaussian, Inc.),
 the Gaussian 92(TM) system (copyright 1992, Gaussian, Inc.),
 the Gaussian 90(TM) system (copyright 1990, Gaussian, Inc.),
 the Gaussian 88(TM) system (copyright 1988, Gaussian, Inc.),
 the Gaussian 86(TM) system (copyright 1986, Carnegie Mellon
 University), and the Gaussian 82(TM) system (copyright 1983,
 Carnegie Mellon University). Gaussian is a federally registered
 trademark of Gaussian, Inc.
  
 This software contains proprietary and confidential information,
 including trade secrets, belonging to Gaussian, Inc.
  
 This software is provided under written license and may be
 used, copied, transmitted, or stored only in accord with that
 written license.
  
 The following legend is applicable only to US Government
 contracts under FAR:
  
                    RESTRICTED RIGHTS LEGEND
  
 Use, reproduction and disclosure by the US Government is
 subject to restrictions as set forth in subparagraphs (a)
 and (c) of the Commercial Computer Software - Restricted
 Rights clause in FAR 52.227-19.
  
 Gaussian, Inc.
 340 Quinnipiac St., Bldg. 40, Wallingford CT 06492
  
  
 ---------------------------------------------------------------
 Warning -- This program may not be used in any manner that
 competes with the business of Gaussian, Inc. or will provide
 assistance to any competitor of Gaussian, Inc.  The licensee
 of this program is prohibited from giving any competitor of
 Gaussian, Inc. access to this program.  By using this program,
 the user acknowledges that Gaussian, Inc. is engaged in the
 business of creating and licensing software in the field of
 computational chemistry and represents and warrants to the
 licensee that it is not a competitor of Gaussian, Inc. and that
 it will not use this program in any manner prohibited above.
 ---------------------------------------------------------------
  

 Cite this work as:
 Gaussian 16, Revision C.01,
 M. J. Frisch, G. W. Trucks, H. B. Schlegel, G. E. Scuseria, 
 M. A. Robb, J. R. Cheeseman, G. Scalmani, V. Barone, 
 G. A. Petersson, H. Nakatsuji, X. Li, M. Caricato, A. V. Marenich, 
 J. Bloino, B. G. Janesko, R. Gomperts, B. Mennucci, H. P. Hratchian, 
 J. V. Ortiz, A. F. Izmaylov, J. L. Sonnenberg, D. Williams-Young, 
 F. Ding, F. Lipparini, F. Egidi, J. Goings, B. Peng, A. Petrone, 
 T. Henderson, D. Ranasinghe, V. G. Zakrzewski, J. Gao, N. Rega, 
 G. Zheng, W. Liang, M. Hada, M. Ehara, K. Toyota, R. Fukuda, 
 J. Hasegawa, M. Ishida, T. Nakajima, Y. Honda, O. Kitao, H. Nakai, 
 T. Vreven, K. Throssell, J. A. Montgomery, Jr., J. E. Peralta, 
 F. Ogliaro, M. J. Bearpark, J. J. Heyd, E. N. Brothers, K. N. Kudin, 
 V. N. Staroverov, T. A. Keith, R. Kobayashi, J. Normand, 
 K. Raghavachari, A. P. Rendell, J. C. Burant, S. S. Iyengar, 
 J. Tomasi, M. Cossi, J. M. Millam, M. Klene, C. Adamo, R. Cammi, 
 J. W. Ochterski, R. L. Martin, K. Morokuma, O. Farkas, 
 J. B. Foresman, and D. J. Fox, Gaussian, Inc., Wallingford CT, 2019.
 
 ******************************************
 Gaussian 16:  ES64L-G16RevC.01  3-Jul-2019
                 8-Apr-2025 
 ******************************************
 %nprocs=16
 Will use up to   16 processors via shared memory.
 %mem=30GB
 %chk=BDE49_expt_388_mol2.chk
 ----------------------------------------------------------------------
 #t hf aug-cc-pvdz iop(5/13=1,5/36=2,99/5=2) pseudo=read geom=check gue
 ss=(read,tcheck) scf=(maxcycle=1)
 ----------------------------------------------------------------------
 -----
 title
 -----
 Structure from the checkpoint file:  "BDE49_expt_388_mol2.chk"
 Charge =  0 Multiplicity = 2
 Z-Matrix found in chk file.
 O,0,0.668535,-1.262878,-0.439977
 C,0,2.046809,-0.891202,-0.456345
 C,0,2.206847,0.287501,0.503445
 H,0,2.336724,-0.601443,-1.472682
 H,0,2.616971,-1.767686,-0.146763
 S,0,0.691328,1.281941,0.215162
 H,0,3.089287,0.886024,0.279423
 H,0,2.23634,-0.039017,1.543996
 C,0,-0.134254,-0.146089,-0.506717
 C,0,-1.596758,-0.418165,-0.288998
 C,0,-1.890315,-0.943134,1.133104
 C,0,-2.4528,0.809404,-0.6284
 H,0,-1.849189,-1.218086,-0.996753
 H,0,-2.245762,1.637007,0.057457
 H,0,-3.515586,0.56931,-0.541533
 H,0,-2.261872,1.156705,-1.6465
 H,0,-1.673936,-0.17446,1.880358
 H,0,-1.277167,-1.819085,1.354142
 H,0,-2.942517,-1.227189,1.229549
 Recover connectivity data from disk.
                    Distance matrix (angstroms):
                    1          2          3          4          5
     1  O    0.000000
     2  C    1.427603   0.000000
     3  C    2.379101   1.528447   0.000000
     4  H    2.070466   1.095880   2.170753   0.000000
     5  H    2.034013   1.090482   2.194257   1.787938   0.000000
     6  S    2.627895   2.647792   1.835433   3.017164   3.624819
     7  H    3.315925   2.187841   1.089549   2.418425   2.728900
     8  H    2.809270   2.182546   1.090977   3.070301   2.447824
     9  C    1.377005   2.305378   2.586345   2.691871   3.213780
    10  C    2.422372   3.677955   3.948841   4.111810   4.426844
    11  C    3.020684   4.246174   4.324080   4.977422   4.757475
    12  C    3.751345   4.813330   4.823460   5.063876   5.707534
    13  H    2.578942   3.946859   4.579172   4.257772   4.579424
    14  H    4.141244   5.008193   4.673949   5.324581   5.939681
    15  H    4.568818   5.751573   5.823885   6.040466   6.574622
    16  H    3.987150   4.916821   5.034603   4.926295   5.882549
    17  H    3.472143   4.451724   4.143643   5.245053   5.005944
    18  H    2.704438   3.897133   4.159296   4.746977   4.173688
    19  H    3.978478   5.277168   5.416407   5.963556   5.752763
                    6          7          8          9         10
     6  S    0.000000
     7  H    2.431273   0.000000
     8  H    2.428537   1.783918   0.000000
     9  C    1.800546   3.474837   3.136336   0.000000
    10  C    2.894801   4.897247   4.265708   1.503444   0.000000
    11  C    3.529654   5.373177   4.244472   2.531411   1.544067
    12  C    3.289442   5.616471   5.237094   2.510663   1.534577
    13  H    3.764718   5.517649   4.953499   2.080941   1.097503
    14  H    2.962675   5.392216   5.010798   2.820672   2.182881
    15  H    4.333423   6.663229   6.148508   3.456358   2.172736
    16  H    3.493259   5.693624   5.642954   2.742834   2.182980
    17  H    3.238588   5.135748   3.927053   2.840696   2.184366
    18  H    3.845596   5.247719   3.943275   2.750993   2.182802
    19  H    4.530954   6.461507   5.322705   3.474153   2.184393
                   11         12         13         14         15
    11  C    0.000000
    12  C    2.547680   0.000000
    13  H    2.147925   2.147265   0.000000
    14  H    2.817887   1.094619   3.069232   0.000000
    15  H    2.780899   1.093026   2.485737   1.763865   0.000000
    16  H    3.503366   1.092520   2.496420   1.770429   1.771379
    17  H    1.093649   2.805082   3.065556   2.632749   3.132160
    18  H    1.091833   3.495932   2.493013   3.816299   3.782662
    19  H    1.094129   2.799912   2.480296   3.172205   2.586996
                   16         17         18         19
    16  H    0.000000
    17  H    3.815285   0.000000
    18  H    4.339219   1.771756   0.000000
    19  H    3.797089   1.772312   1.771794   0.000000
 Framework group  C1[X(C6H11OS)]
 Deg. of freedom    51
                         Standard orientation:                         
 ---------------------------------------------------------------------
 Center     Atomic      Atomic             Coordinates (Angstroms)
 Number     Number       Type             X           Y           Z
 ---------------------------------------------------------------------
      1          8           0        0.668535   -1.262878   -0.439977
      2          6           0        2.046809   -0.891202   -0.456345
      3          6           0        2.206847    0.287501    0.503445
      4          1           0        2.336724   -0.601443   -1.472682
      5          1           0        2.616971   -1.767686   -0.146763
      6         16           0        0.691328    1.281941    0.215162
      7          1           0        3.089287    0.886024    0.279423
      8          1           0        2.236340   -0.039017    1.543996
      9          6           0       -0.134254   -0.146089   -0.506717
     10          6           0       -1.596758   -0.418165   -0.288998
     11          6           0       -1.890315   -0.943134    1.133104
     12          6           0       -2.452800    0.809404   -0.628400
     13          1           0       -1.849189   -1.218086   -0.996753
     14          1           0       -2.245762    1.637007    0.057457
     15          1           0       -3.515586    0.569310   -0.541533
     16          1           0       -2.261872    1.156705   -1.646500
     17          1           0       -1.673936   -0.174460    1.880358
     18          1           0       -1.277167   -1.819085    1.354142
     19          1           0       -2.942517   -1.227189    1.229549
 ---------------------------------------------------------------------
 Rotational constants (GHZ):           2.8975511           1.2858414           1.0801411
 ======================================================================================================
                                       Pseudopotential Parameters
 ======================================================================================================
  Center     Atomic      Valence      Angular      Power
  Number     Number     Electrons     Momentum     of R      Exponent        Coefficient   SO-Coeffient
 ======================================================================================================
    1          8            8
                                      G and up 
                                                     0        0.0000010        0.00049668    0.00000000
                                                     2        0.1200000       -0.01803391    0.00000000
                                                     2        0.1400000        0.04014195    0.00000000
                                                     2        0.2000000       -0.02692147    0.00000000
                                                     2        0.2800000       -0.04241843    0.00000000
                                                     2        0.4000000        0.15412145    0.00000000
                                                     2        0.7000000       -0.40587006    0.00000000
                                                     2        1.1000000        1.75666647    0.00000000
                                      S - G
                                                     0        0.0000010       -0.01088195    0.00000000
                                                     2        0.1200000        0.09867335    0.00000000
                                                     2        0.2400000       -0.08484177    0.00000000
                                                     2        0.6000000       -1.39011554    0.00000000
                                                     2        2.5000000        1.36225910    0.00000000
                                      P - G
                                                     0        0.0000010        0.05874028    0.00000000
                                                     2        0.1200000       -0.11700340    0.00000000
                                                     2        0.1600000        0.08847775    0.00000000
                                                     2        0.3000000        0.04709907    0.00000000
                                                     2        1.2000000       -1.80388338    0.00000000
                                      D - G
                                                     0        0.0000010       -0.00541262    0.00000000
                                                     2        0.1200000       -0.26547906    0.00000000
                                                     2        0.1600000        1.04289661    0.00000000
                                                     2        0.2400000       -1.92800913    0.00000000
                                                     2        0.4000000        2.26691633    0.00000000
                                                     2        0.7000000       -1.97391482    0.00000000
                                      F - G
                                                     0        0.0000010       -0.02604870    0.00000000
                                                     2        0.1200000        0.37362552    0.00000000
                                                     2        0.1600000       -1.43526367    0.00000000
                                                     2        0.2200000        1.76778079    0.00000000
                                                     2        0.5000000       -1.90846303    0.00000000
    2          6            6
                                      G and up 
                                                     0        0.0000010       -0.00007288    0.00000000
                                                     2        0.1200000        0.10466671    0.00000000
                                                     2        0.1400000       -0.65716157    0.00000000
                                                     2        0.1600000        1.18890794    0.00000000
                                                     2        0.2000000       -1.25772850    0.00000000
                                                     2        0.2600000        1.01188378    0.00000000
                                                     2        0.4000000       -1.09380874    0.00000000
                                                     2        0.5000000        0.96944888    0.00000000
                                                     2        1.0000000       -0.79256938    0.00000000
                                                     2        3.0000000        1.06443276    0.00000000
                                      S - G
                                                     0        0.0000010       -0.00635295    0.00000000
                                                     2        0.1200000        0.16918955    0.00000000
                                                     2        0.1600000       -0.38862576    0.00000000
                                                     2        0.2800000        0.25638263    0.00000000
                                                     2        0.5000000        0.29628419    0.00000000
                                                     2        0.9000000       -0.28791512    0.00000000
                                      P - G
                                                     0        0.0000010       -0.04756931    0.00000000
                                                     2        0.1200000        0.28430375    0.00000000
                                                     2        0.1600000       -0.69640032    0.00000000
                                                     2        0.2600000        1.13005668    0.00000000
                                                     2        0.4000000       -1.31433324    0.00000000
                                                     2        0.7000000        0.91526469    0.00000000
                                      D - G
                                                     0        0.0000010       -0.11496411    0.00000000
                                                     2        0.1200000        0.16620776    0.00000000
                                                     2        0.1800000       -0.30959819    0.00000000
                                                     2        0.3000000        0.16621458    0.00000000
                                                     2        0.6000000        0.27350556    0.00000000
                                      F - G
                                                     0        0.0000010        0.12037550    0.00000000
                                                     2        0.1200000       -0.48737077    0.00000000
                                                     2        0.1400000        0.58315350    0.00000000
                                                     2        0.3000000        0.00005188    0.00000000
                                                     2        0.5000000       -1.16063549    0.00000000
                                                     2        0.8000000        2.09053308    0.00000000
    3          6            6
                                      G and up 
                                                     0        0.0000010       -0.00007288    0.00000000
                                                     2        0.1200000        0.10466671    0.00000000
                                                     2        0.1400000       -0.65716157    0.00000000
                                                     2        0.1600000        1.18890794    0.00000000
                                                     2        0.2000000       -1.25772850    0.00000000
                                                     2        0.2600000        1.01188378    0.00000000
                                                     2        0.4000000       -1.09380874    0.00000000
                                                     2        0.5000000        0.96944888    0.00000000
                                                     2        1.0000000       -0.79256938    0.00000000
                                                     2        3.0000000        1.06443276    0.00000000
                                      S - G
                                                     0        0.0000010       -0.00635295    0.00000000
                                                     2        0.1200000        0.16918955    0.00000000
                                                     2        0.1600000       -0.38862576    0.00000000
                                                     2        0.2800000        0.25638263    0.00000000
                                                     2        0.5000000        0.29628419    0.00000000
                                                     2        0.9000000       -0.28791512    0.00000000
                                      P - G
                                                     0        0.0000010       -0.04756931    0.00000000
                                                     2        0.1200000        0.28430375    0.00000000
                                                     2        0.1600000       -0.69640032    0.00000000
                                                     2        0.2600000        1.13005668    0.00000000
                                                     2        0.4000000       -1.31433324    0.00000000
                                                     2        0.7000000        0.91526469    0.00000000
                                      D - G
                                                     0        0.0000010       -0.11496411    0.00000000
                                                     2        0.1200000        0.16620776    0.00000000
                                                     2        0.1800000       -0.30959819    0.00000000
                                                     2        0.3000000        0.16621458    0.00000000
                                                     2        0.6000000        0.27350556    0.00000000
                                      F - G
                                                     0        0.0000010        0.12037550    0.00000000
                                                     2        0.1200000       -0.48737077    0.00000000
                                                     2        0.1400000        0.58315350    0.00000000
                                                     2        0.3000000        0.00005188    0.00000000
                                                     2        0.5000000       -1.16063549    0.00000000
                                                     2        0.8000000        2.09053308    0.00000000
    4          1            1
                                      F and up 
                                                     0        0.0000010       -0.00007675    0.00000000
                                                     2        0.1200000        0.05352699    0.00000000
                                                     2        0.1400000       -0.25123645    0.00000000
                                                     2        0.1600000        0.32188106    0.00000000
                                                     2        0.2200000       -0.25206857    0.00000000
                                                     2        0.3000000        0.19290477    0.00000000
                                                     2        0.5000000       -0.10129770    0.00000000
                                                     2        0.9000000        0.00314995    0.00000000
                                                     2        1.5000000        0.18401192    0.00000000
                                      S - F
                                                     0        0.0000010        0.08065976    0.00000000
                                                     2        0.1200000       -0.09231673    0.00000000
                                                     2        0.1600000       -0.03278082    0.00000000
                                                     2        0.2800000        0.38423402    0.00000000
                                                     2        0.6000000       -1.09357590    0.00000000
                                                     2        1.1000000        1.53099489    0.00000000
                                                     2        3.0000000       -2.63300202    0.00000000
                                      P - F
                                                     0        0.0000010       -0.11638665    0.00000000
                                                     2        0.1200000        0.35468655    0.00000000
                                                     2        0.1600000       -0.59160923    0.00000000
                                                     2        0.3000000        0.49390547    0.00000000
                                                     2        0.6000000       -0.37949835    0.00000000
                                                     2        1.6000000        0.89304688    0.00000000
                                      D - F
                                                     0        0.0000010        0.05443663    0.00000000
                                                     2        0.1200000       -0.29679479    0.00000000
                                                     2        0.1400000        0.36849872    0.00000000
                                                     2        0.2400000        0.02793449    0.00000000
                                                     2        0.4000000       -0.46312857    0.00000000
                                                     2        0.7000000        0.97587598    0.00000000
                                                     2        1.5000000       -2.43431102    0.00000000
    5          1            1
                                      F and up 
                                                     0        0.0000010       -0.00007675    0.00000000
                                                     2        0.1200000        0.05352699    0.00000000
                                                     2        0.1400000       -0.25123645    0.00000000
                                                     2        0.1600000        0.32188106    0.00000000
                                                     2        0.2200000       -0.25206857    0.00000000
                                                     2        0.3000000        0.19290477    0.00000000
                                                     2        0.5000000       -0.10129770    0.00000000
                                                     2        0.9000000        0.00314995    0.00000000
                                                     2        1.5000000        0.18401192    0.00000000
                                      S - F
                                                     0        0.0000010        0.08065976    0.00000000
                                                     2        0.1200000       -0.09231673    0.00000000
                                                     2        0.1600000       -0.03278082    0.00000000
                                                     2        0.2800000        0.38423402    0.00000000
                                                     2        0.6000000       -1.09357590    0.00000000
                                                     2        1.1000000        1.53099489    0.00000000
                                                     2        3.0000000       -2.63300202    0.00000000
                                      P - F
                                                     0        0.0000010       -0.11638665    0.00000000
                                                     2        0.1200000        0.35468655    0.00000000
                                                     2        0.1600000       -0.59160923    0.00000000
                                                     2        0.3000000        0.49390547    0.00000000
                                                     2        0.6000000       -0.37949835    0.00000000
                                                     2        1.6000000        0.89304688    0.00000000
                                      D - F
                                                     0        0.0000010        0.05443663    0.00000000
[...]
 Alpha virt. eigenvalues --    0.51143   0.52208   0.52593   0.53254   0.54230
 Alpha virt. eigenvalues --    0.55733   0.56503   0.56757   0.57624   0.58440
 Alpha virt. eigenvalues --    0.58857   0.59228   0.60416   0.61427   0.62381
 Alpha virt. eigenvalues --    0.63127   0.63414   0.63868   0.64880   0.65349
 Alpha virt. eigenvalues --    0.65956   0.66690   0.68149   0.68892   0.69773
 Alpha virt. eigenvalues --    0.70319   0.71309   0.72051   0.72721   0.73048
 Alpha virt. eigenvalues --    0.73457   0.74585   0.75420   0.76082   0.76863
 Alpha virt. eigenvalues --    0.77192   0.78106   0.79696   0.80486   0.80859
 Alpha virt. eigenvalues --    0.81831   0.82551   0.83523   0.84599   0.85785
 Alpha virt. eigenvalues --    0.86308   0.88821   0.89668   0.90214   0.90671
 Alpha virt. eigenvalues --    0.93219   0.93893   0.95202   0.95307   0.95851
 Alpha virt. eigenvalues --    0.98148   0.98906   1.01416   1.05630   1.06996
 Alpha virt. eigenvalues --    1.07648   1.08874   1.10141   1.11535   1.12670
 Alpha virt. eigenvalues --    1.15157   1.16805   1.17301   1.19213   1.21082
 Alpha virt. eigenvalues --    1.23529   1.24541   1.25298   1.26288   1.29355
 Alpha virt. eigenvalues --    1.30687   1.31624   1.34869   1.35457   1.38030
 Alpha virt. eigenvalues --    1.39749   1.40566   1.41196   1.42622   1.45865
 Alpha virt. eigenvalues --    1.46578   1.48774   1.50824   1.52838   1.55082
 Alpha virt. eigenvalues --    1.56899   1.61585   1.63053   1.64948   1.67025
 Alpha virt. eigenvalues --    1.69206   1.70394   1.71314   1.73567   1.76918
 Alpha virt. eigenvalues --    1.78823   1.79877   1.80670   1.82404   1.83681
 Alpha virt. eigenvalues --    1.85452   1.88461   1.91456   1.93712   1.94396
 Alpha virt. eigenvalues --    1.96723   1.98093   1.98755   1.99344   2.03674
 Alpha virt. eigenvalues --    2.05846   2.06357   2.07103   2.09595   2.09858
 Alpha virt. eigenvalues --    2.11072   2.12462   2.14498   2.18226   2.19919
 Alpha virt. eigenvalues --    2.20640   2.22090   2.23071   2.23969   2.26917
 Alpha virt. eigenvalues --    2.28562   2.32175   2.33256   2.33997   2.35891
 Alpha virt. eigenvalues --    2.38309   2.39312   2.41669   2.42856   2.44534
 Alpha virt. eigenvalues --    2.46134   2.49778   2.50495   2.51082   2.54028
 Alpha virt. eigenvalues --    2.56535   2.57153   2.58616   2.61346   2.62691
 Alpha virt. eigenvalues --    2.63094   2.66379   2.70255   2.74023   2.77609
 Alpha virt. eigenvalues --    2.78270   2.80838   2.82163   2.85598   2.90205
 Alpha virt. eigenvalues --    2.93922   2.95123   2.98678   3.00951   3.03070
 Alpha virt. eigenvalues --    3.09046   3.11279   3.12998   3.18334   3.21188
 Alpha virt. eigenvalues --    3.24013   3.26559   3.33614   3.37255   3.58015
 Alpha virt. eigenvalues --    3.73508   3.93453   3.98755   4.08591   4.19052
 Alpha virt. eigenvalues --    4.30926
  Beta  occ. eigenvalues --  -93.94775 -20.56828 -11.30500 -11.28273 -11.27739
  Beta  occ. eigenvalues --  -11.24311 -11.22382 -11.21888  -8.22889  -6.20747
  Beta  occ. eigenvalues --   -6.20620  -6.20189  -1.48822  -1.08907  -1.08125
  Beta  occ. eigenvalues --   -0.98421  -0.92852  -0.84865  -0.83403  -0.73511
  Beta  occ. eigenvalues --   -0.68635  -0.67118  -0.62738  -0.59952  -0.58389
  Beta  occ. eigenvalues --   -0.56629  -0.54624  -0.53995  -0.50835  -0.49597
  Beta  occ. eigenvalues --   -0.48764  -0.47920  -0.46233  -0.44512  -0.36273
  Beta virt. eigenvalues --    0.03388   0.03950   0.04052   0.04365   0.05499
  Beta virt. eigenvalues --    0.05707   0.05849   0.07035   0.07429   0.08757
  Beta virt. eigenvalues --    0.09145   0.10473   0.11425   0.12533   0.12811
  Beta virt. eigenvalues --    0.13544   0.14276   0.14928   0.15858   0.16100
  Beta virt. eigenvalues --    0.16585   0.16968   0.17085   0.17668   0.17848
  Beta virt. eigenvalues --    0.17993   0.18663   0.18806   0.19232   0.20068
  Beta virt. eigenvalues --    0.20764   0.21320   0.21598   0.22426   0.22908
  Beta virt. eigenvalues --    0.24347   0.24621   0.25038   0.26380   0.27581
  Beta virt. eigenvalues --    0.29683   0.30221   0.30880   0.31803   0.33142
  Beta virt. eigenvalues --    0.33333   0.34118   0.35213   0.35907   0.35980
  Beta virt. eigenvalues --    0.37324   0.38675   0.38940   0.40081   0.40359
  Beta virt. eigenvalues --    0.40721   0.42310   0.42924   0.43771   0.44808
  Beta virt. eigenvalues --    0.45409   0.46093   0.46880   0.47029   0.47481
  Beta virt. eigenvalues --    0.47735   0.48540   0.48609   0.49281   0.50191
  Beta virt. eigenvalues --    0.50385   0.51739   0.52581   0.52830   0.53493
  Beta virt. eigenvalues --    0.54604   0.56222   0.56767   0.57202   0.57887
  Beta virt. eigenvalues --    0.58629   0.59194   0.59392   0.60634   0.61740
  Beta virt. eigenvalues --    0.62980   0.63401   0.63749   0.64160   0.65118
  Beta virt. eigenvalues --    0.65749   0.66443   0.67144   0.68536   0.69305
  Beta virt. eigenvalues --    0.70036   0.70536   0.71721   0.72463   0.73105
  Beta virt. eigenvalues --    0.73350   0.73686   0.74949   0.75562   0.76347
  Beta virt. eigenvalues --    0.77101   0.77321   0.78342   0.79999   0.80616
  Beta virt. eigenvalues --    0.81439   0.81936   0.82750   0.83802   0.84904
  Beta virt. eigenvalues --    0.86085   0.86743   0.89172   0.89979   0.90462
  Beta virt. eigenvalues --    0.91122   0.93574   0.94248   0.95666   0.96154
  Beta virt. eigenvalues --    0.96169   0.98581   0.99195   1.01950   1.06260
  Beta virt. eigenvalues --    1.07684   1.08301   1.09046   1.11241   1.11887
  Beta virt. eigenvalues --    1.12945   1.15810   1.17056   1.17637   1.19411
  Beta virt. eigenvalues --    1.21518   1.24532   1.25116   1.25553   1.26468
  Beta virt. eigenvalues --    1.29691   1.31031   1.31927   1.35318   1.35784
  Beta virt. eigenvalues --    1.38548   1.40055   1.41004   1.41601   1.42952
  Beta virt. eigenvalues --    1.46096   1.47362   1.49242   1.51136   1.53141
  Beta virt. eigenvalues --    1.55874   1.57509   1.61898   1.63276   1.65379
  Beta virt. eigenvalues --    1.67962   1.69624   1.71076   1.71864   1.73843
  Beta virt. eigenvalues --    1.77236   1.79279   1.80092   1.81128   1.82736
  Beta virt. eigenvalues --    1.84529   1.85659   1.89031   1.92516   1.94126
  Beta virt. eigenvalues --    1.95033   1.96972   1.98874   1.99162   2.00545
  Beta virt. eigenvalues --    2.04507   2.06266   2.06724   2.07198   2.09865
  Beta virt. eigenvalues --    2.11064   2.12273   2.13049   2.15468   2.18523
  Beta virt. eigenvalues --    2.20096   2.20854   2.22376   2.23464   2.24244
  Beta virt. eigenvalues --    2.27124   2.28873   2.32468   2.33452   2.34273
  Beta virt. eigenvalues --    2.35959   2.38563   2.39591   2.41840   2.43135
  Beta virt. eigenvalues --    2.44661   2.46290   2.50008   2.50762   2.51169
  Beta virt. eigenvalues --    2.54378   2.56721   2.57625   2.58942   2.61496
  Beta virt. eigenvalues --    2.62854   2.63332   2.67007   2.70622   2.74204
  Beta virt. eigenvalues --    2.77728   2.78477   2.81196   2.82463   2.85798
  Beta virt. eigenvalues --    2.90454   2.93943   2.95145   2.98707   3.01077
  Beta virt. eigenvalues --    3.03193   3.09212   3.11363   3.13088   3.18656
  Beta virt. eigenvalues --    3.21248   3.24131   3.26703   3.33747   3.37434
  Beta virt. eigenvalues --    3.58311   3.74727   3.94323   3.99516   4.09312
  Beta virt. eigenvalues --    4.19487   4.31466
          Condensed to atoms (all electrons):
          Atomic-Atomic Spin Densities.
 Mulliken charges and spin densities:
               1          2
     1  O   -1.470397   0.032272
     2  C    0.506197  -0.022406
     3  C   -0.778328   0.006471
     4  H    0.176464  -0.008326
     5  H    0.004008   0.000489
     6  S    0.448648  -0.013031
     7  H    0.182504   0.001680
     8  H    0.133409  -0.003457
     9  C    0.809872   1.163077
    10  C   -0.957216  -0.200531
    11  C   -0.244817   0.046600
    12  C   -0.142238   0.020504
    13  H    0.236473  -0.001797
    14  H    0.239215  -0.003127
    15  H    0.144666  -0.000921
    16  H    0.183450  -0.007737
    17  H    0.238129  -0.007790
    18  H    0.151683  -0.004117
    19  H    0.138277   0.002146
 Sum of Mulliken charges =  -0.00000   1.00000
 Mulliken charges and spin densities with hydrogens summed into heavy atoms:
               1          2
     1  O   -1.470397   0.032272
     2  C    0.686669  -0.030242
     3  C   -0.462415   0.004694
     6  S    0.448648  -0.013031
     9  C    0.809872   1.163077
    10  C   -0.720744  -0.202329
    11  C    0.283272   0.036839
    12  C    0.425093   0.008720
 Electronic spatial extent (au):  <R**2>=           1221.2610
 Charge=             -0.0000 electrons
 Dipole moment (field-independent basis, Debye):
    X=              1.3577    Y=             -0.7487    Z=              0.2420  Tot=              1.5692
                          Isotropic Fermi Contact Couplings
        Atom                 a.u.       MegaHertz       Gauss      10(-4) cm-1
     1  O(17)              0.03939     -23.88053      -8.52117      -7.96569
     2  C(13)             -0.00194      -2.18513      -0.77971      -0.72888
     3  C(13)             -0.00089      -0.99567      -0.35528      -0.33212
     4  H(1)               0.00018       0.81791       0.29185       0.27282
     5  H(1)              -0.00065      -2.89051      -1.03140      -0.96417
     6  S(33)              0.05930      20.36724       7.26754       6.79378
     7  H(1)              -0.00069      -3.10518      -1.10801      -1.03578
     8  H(1)               0.00108       4.81422       1.71783       1.60585
     9  C(13)              0.35162     395.28804     141.04860     131.85390
    10  C(13)             -0.02309     -25.96117      -9.26359      -8.65971
    11  C(13)              0.03566      40.08373      14.30287      13.37049
    12  C(13)              0.00755       8.48246       3.02675       2.82944
    13  H(1)               0.00488      21.81077       7.78263       7.27529
    14  H(1)              -0.00042      -1.86739      -0.66633      -0.62289
    15  H(1)              -0.00079      -3.52229      -1.25684      -1.17491
    16  H(1)              -0.00052      -2.31905      -0.82749      -0.77355
    17  H(1)              -0.00114      -5.11506      -1.82518      -1.70620
    18  H(1)              -0.00114      -5.09094      -1.81657      -1.69815
    19  H(1)               0.00106       4.74084       1.69165       1.58137
 --------------------------------------------------------
       Center         ----  Spin Dipole Couplings  ----
                      3XX-RR        3YY-RR        3ZZ-RR
 --------------------------------------------------------
     1   Atom       -0.219963     -0.236980      0.456943
     2   Atom        0.012941     -0.003832     -0.009108
     3   Atom        0.006352     -0.001572     -0.004780
     4   Atom        0.012213     -0.005804     -0.006409
     5   Atom        0.006221     -0.002415     -0.003805
     6   Atom       -0.238747     -0.322802      0.561549
     7   Atom        0.005430     -0.002911     -0.002519
     8   Atom        0.001809     -0.003069      0.001260
     9   Atom       -0.502811     -0.420390      0.923201
    10   Atom        0.018280     -0.005700     -0.012581
    11   Atom       -0.021824     -0.018217      0.040041
    12   Atom        0.013824     -0.004836     -0.008988
    13   Atom        0.012951     -0.002834     -0.010117
    14   Atom        0.003078      0.000454     -0.003532
    15   Atom        0.006018     -0.003092     -0.002927
    16   Atom        0.007875     -0.002923     -0.004952
    17   Atom       -0.002913     -0.004443      0.007355
    18   Atom       -0.002602      0.001712      0.000890
    19   Atom        0.005443     -0.004322     -0.001121
 --------------------------------------------------------
                        XY            XZ            YZ
 --------------------------------------------------------
     1   Atom        0.031081      0.032128     -0.186944
     2   Atom       -0.004769      0.006260      0.000565
     3   Atom       -0.000988      0.006959     -0.000058
     4   Atom       -0.003196     -0.005328      0.000922
     5   Atom       -0.005241      0.002003     -0.000855
     6   Atom       -0.147301     -0.009188      0.011502
     7   Atom        0.001550      0.001843      0.000633
     8   Atom       -0.001025      0.005013      0.000337
     9   Atom        0.042969     -0.105703     -0.356287
    10   Atom        0.002905     -0.013075     -0.000213
    11   Atom        0.007984     -0.022184     -0.027635
    12   Atom       -0.009961     -0.003446      0.001740
    13   Atom        0.014806      0.002881     -0.001205
    14   Atom       -0.006654     -0.003235      0.002685
    15   Atom       -0.001639     -0.000391     -0.000050
    16   Atom       -0.008301      0.004700     -0.003177
    17   Atom        0.001518     -0.005387      0.002621
    18   Atom        0.000769     -0.003730     -0.008234
    19   Atom        0.003408     -0.003036     -0.002017
 --------------------------------------------------------


 ---------------------------------------------------------------------------------
              Anisotropic Spin Dipole Couplings in Principal Axis System
 ---------------------------------------------------------------------------------

       Atom             a.u.   MegaHertz   Gauss  10(-4) cm-1        Axes

              Baa    -0.3019    21.846     7.795     7.287 -0.4236  0.8752  0.2336
     1 O(17)  Bbb    -0.2030    14.686     5.240     4.899  0.9053  0.4182  0.0744
              Bcc     0.5049   -36.532   -13.035   -12.186  0.0326 -0.2429  0.9695
 
              Baa    -0.0112    -1.507    -0.538    -0.503 -0.2895 -0.2570  0.9220
     2 C(13)  Bbb    -0.0044    -0.590    -0.210    -0.197  0.1473  0.9399  0.3082
              Bcc     0.0156     2.097     0.748     0.699  0.9458 -0.2250  0.2342
 
              Baa    -0.0081    -1.093    -0.390    -0.365 -0.4352 -0.0575  0.8985
     3 C(13)  Bbb    -0.0016    -0.218    -0.078    -0.073  0.0476  0.9951  0.0868
              Bcc     0.0098     1.311     0.468     0.437  0.8991 -0.0805  0.4303
 
              Baa    -0.0078    -4.177    -1.491    -1.393  0.2497 -0.0463  0.9672
     4 H(1)   Bbb    -0.0064    -3.390    -1.210    -1.131  0.1705  0.9853  0.0032
              Bcc     0.0142     7.567     2.700     2.524  0.9532 -0.1642 -0.2540
 
              Baa    -0.0049    -2.613    -0.932    -0.872  0.4398  0.8915 -0.1084
     5 H(1)   Bbb    -0.0042    -2.222    -0.793    -0.741 -0.1032  0.1700  0.9800
              Bcc     0.0091     4.835     1.725     1.613  0.8921 -0.4198  0.1668
 
              Baa    -0.4340   -17.792    -6.349    -5.935  0.6022  0.7983 -0.0037
     6 S(33)  Bbb    -0.1279    -5.243    -1.871    -1.749  0.7982 -0.6020  0.0207
              Bcc     0.5619    23.036     8.220     7.684 -0.0143  0.0154  0.9998
 
              Baa    -0.0034    -1.805    -0.644    -0.602 -0.0342  0.8395 -0.5423
     7 H(1)   Bbb    -0.0028    -1.470    -0.524    -0.490 -0.2799  0.5129  0.8115
              Bcc     0.0061     3.275     1.169     1.092  0.9594  0.1796  0.2174
 
              Baa    -0.0043    -2.273    -0.811    -0.758  0.5546  0.6312 -0.5423
     8 H(1)   Bbb    -0.0023    -1.240    -0.442    -0.413 -0.4020  0.7738  0.4895
              Bcc     0.0066     3.512     1.253     1.172  0.7286 -0.0535  0.6828
 
              Baa    -0.5263   -70.621   -25.200   -23.557  0.7284 -0.6757 -0.1130
     9 C(13)  Bbb    -0.4939   -66.281   -23.651   -22.109  0.6811  0.6964  0.2259
              Bcc     1.0202   136.902    48.850    45.666 -0.0740 -0.2415  0.9676
 
              Baa    -0.0174    -2.339    -0.835    -0.780  0.3479 -0.0692  0.9350
    10 C(13)  Bbb    -0.0059    -0.794    -0.283    -0.265 -0.0662  0.9930  0.0981
              Bcc     0.0233     3.133     1.118     1.045  0.9352  0.0960 -0.3409
 
              Baa    -0.0298    -4.001    -1.428    -1.334  0.5731  0.6834  0.4523
    11 C(13)  Bbb    -0.0282    -3.785    -1.351    -1.262  0.7691 -0.6391 -0.0088
              Bcc     0.0580     7.786     2.778     2.597 -0.2831 -0.3529  0.8918
 
              Baa    -0.0096    -1.292    -0.461    -0.431 -0.0550 -0.4396  0.8965
    12 C(13)  Bbb    -0.0090    -1.214    -0.433    -0.405  0.4147  0.8067  0.4210
              Bcc     0.0187     2.507     0.894     0.836  0.9083 -0.3950 -0.1380
 
              Baa    -0.0136    -7.253    -2.588    -2.419 -0.4393  0.6714  0.5969
    13 H(1)   Bbb    -0.0084    -4.456    -1.590    -1.486  0.2655 -0.5377  0.8002
              Bcc     0.0219    11.708     4.178     3.906  0.8582  0.5100  0.0580
 
              Baa    -0.0050    -2.677    -0.955    -0.893  0.6055  0.7886 -0.1068
    14 H(1)   Bbb    -0.0048    -2.587    -0.923    -0.863  0.3009 -0.1025  0.9481
              Bcc     0.0099     5.265     1.879     1.756  0.7368 -0.6062 -0.2994
 
              Baa    -0.0034    -1.818    -0.649    -0.606  0.1760  0.9540  0.2428
    15 H(1)   Bbb    -0.0029    -1.554    -0.555    -0.518 -0.0027 -0.2462  0.9692
              Bcc     0.0063     3.372     1.203     1.125  0.9844 -0.1712 -0.0407
 
              Baa    -0.0077    -4.103    -1.464    -1.369  0.3207  0.8443  0.4292
    16 H(1)   Bbb    -0.0064    -3.397    -1.212    -1.133 -0.4395 -0.2688  0.8571
              Bcc     0.0141     7.500     2.676     2.502  0.8390 -0.4635  0.2849
 
              Baa    -0.0074    -3.934    -1.404    -1.312 -0.6583  0.6618 -0.3586
    17 H(1)   Bbb    -0.0025    -1.348    -0.481    -0.450  0.6547  0.7385  0.1610
              Bcc     0.0099     5.281     1.884     1.762 -0.3714  0.1288  0.9195
 
              Baa    -0.0079    -4.232    -1.510    -1.412  0.4132  0.5720  0.7086
    18 H(1)   Bbb    -0.0024    -1.273    -0.454    -0.425  0.8784 -0.4554 -0.1446
              Bcc     0.0103     5.506     1.965     1.837 -0.2400 -0.6822  0.6907
 
              Baa    -0.0057    -3.032    -1.082    -1.011 -0.2127  0.9381  0.2733
    19 H(1)   Bbb    -0.0022    -1.177    -0.420    -0.392  0.4258 -0.1627  0.8901
              Bcc     0.0079     4.209     1.502     1.404  0.8794  0.3057 -0.3648
 

 ---------------------------------------------------------------------------------


 Test job not archived.
 1\1\GINC-SE073\SP\UHF\Aug-CC-pVDZ\C6H11O1S1(2)\OHZDE\08-Apr-2025\0\\#t
  hf aug-cc-pvdz iop(5/13=1,5/36=2,99/5=2) pseudo=read geom=check guess
 =(read,tcheck) scf=(maxcycle=1)\\title\\0,2\O,0,0.668535,-1.262878,-0.
 439977\C,0,2.046809,-0.891202,-0.456345\C,0,2.206847,0.287501,0.503445
 \H,0,2.336724,-0.601443,-1.472682\H,0,2.616971,-1.767686,-0.146763\S,0
 ,0.691328,1.281941,0.215162\H,0,3.089287,0.886024,0.279423\H,0,2.23634
 ,-0.039017,1.543996\C,0,-0.134254,-0.146089,-0.506717\C,0,-1.596758,-0
 .418165,-0.288998\C,0,-1.890315,-0.943134,1.133104\C,0,-2.4528,0.80940
 4,-0.6284\H,0,-1.849189,-1.218086,-0.996753\H,0,-2.245762,1.637007,0.0
 57457\H,0,-3.515586,0.56931,-0.541533\H,0,-2.261872,1.156705,-1.6465\H
 ,0,-1.673936,-0.17446,1.880358\H,0,-1.277167,-1.819085,1.354142\H,0,-2
 .942517,-1.227189,1.229549\\Version=ES64L-G16RevC.01\State=2-A\HF=-706
 .3848954\S2=0.764816\S2-1=0.\S2A=0.750175\RMSD=1.075e-02\Dipole=0.5341
 695,-0.2945491,0.0952003\Quadrupole=5.7426451,-3.9063344,-1.8363107,-0
 .7487996,0.8724969,-0.0987519\PG=C01 [X(C6H11O1S1)]\\@


 THOSE WHO ASPIRE NOT TO GUESS AND DIVINE,
 BUT TO DISCOVER AND KNOW, WHO PROPOSE NOT TO DEVISE 
 MIMIC AND FABULOUS WORLDS OF THEIR OWN, BUT TO 
 EXAMINE AND DISSECT THE NATURE OF THIS VERY WORLD 
 ITSELF, MUST GO TO THE FACTS THEMSELVES FOR EVERYTHING.

                               -- FRANCIS BACON, 1620
 Job cpu time:       0 days  0 hours  2 minutes 14.0 seconds.
 Elapsed time:       0 days  0 hours  0 minutes 10.1 seconds.
 File lengths (MBytes):  RWF=     18 Int=      0 D2E=      0 Chk=     13 Scr=      1
 Normal termination of Gaussian 16 at Tue Apr  8 23:06:46 2025.
