 Entering Gaussian System, Link 0=g16
 Input=BDE49_nonexpt_1710_mol1.gjf
 Output=BDE49_nonexpt_1710_mol1.log
 Initial command:
 /arc/software/Gaussian/g16.c01/l1.exe "/tmp/slurm/4846921/Gau-1970860.inp" -scrdir="/tmp/slurm/4846921/"
 Entering Link 1 = /arc/software/Gaussian/g16.c01/l1.exe PID=   1970877.
  
 Copyright (c) 1988-2019, Gaussian, Inc.  All Rights Reserved.
  
 This is part of the Gaussian(R) 16 program.  It is based on
 the Gaussian(R) 09 system (copyright 2009, Gaussian, Inc.),
 the Gaussian(R) 03 system (copyright 2003, Gaussian, Inc.),
 the Gaussian(R) 98 system (copyright 1998, Gaussian, Inc.),
 the Gaussian(R) 94 system (copyright 1995, Gaussian, Inc.),
 the Gaussian 92(TM) system (copyright 1992, Gaussian, Inc.),
 the Gaussian 90(TM) system (copyright 1990, Gaussian, Inc.),
 the Gaussian 88(TM) system (copyright 1988, Gaussian, Inc.),
 the Gaussian 86(TM) system (copyright 1986, Carnegie Mellon
 University), and the Gaussian 82(TM) system (copyright 1983,
 Carnegie Mellon University). Gaussian is a federally registered
 trademark of Gaussian, Inc.
  
 This software contains proprietary and confidential information,
 including trade secrets, belonging to Gaussian, Inc.
  
 This software is provided under written license and may be
 used, copied, transmitted, or stored only in accord with that
 written license.
  
 The following legend is applicable only to US Government
 contracts under FAR:
  
                    RESTRICTED RIGHTS LEGEND
  
 Use, reproduction and disclosure by the US Government is
 subject to restrictions as set forth in subparagraphs (a)
 and (c) of the Commercial Computer Software - Restricted
 Rights clause in FAR 52.227-19.
  
 Gaussian, Inc.
 340 Quinnipiac St., Bldg. 40, Wallingford CT 06492
  
  
 ---------------------------------------------------------------
 Warning -- This program may not be used in any manner that
 competes with the business of Gaussian, Inc. or will provide
 assistance to any competitor of Gaussian, Inc.  The licensee
 of this program is prohibited from giving any competitor of
 Gaussian, Inc. access to this program.  By using this program,
 the user acknowledges that Gaussian, Inc. is engaged in the
 business of creating and licensing software in the field of
 computational chemistry and represents and warrants to the
 licensee that it is not a competitor of Gaussian, Inc. and that
 it will not use this program in any manner prohibited above.
 ---------------------------------------------------------------
  

 Cite this work as:
 Gaussian 16, Revision C.01,
 M. J. Frisch, G. W. Trucks, H. B. Schlegel, G. E. Scuseria, 
 M. A. Robb, J. R. Cheeseman, G. Scalmani, V. Barone, 
 G. A. Petersson, H. Nakatsuji, X. Li, M. Caricato, A. V. Marenich, 
 J. Bloino, B. G. Janesko, R. Gomperts, B. Mennucci, H. P. Hratchian, 
 J. V. Ortiz, A. F. Izmaylov, J. L. Sonnenberg, D. Williams-Young, 
 F. Ding, F. Lipparini, F. Egidi, J. Goings, B. Peng, A. Petrone, 
 T. Henderson, D. Ranasinghe, V. G. Zakrzewski, J. Gao, N. Rega, 
 G. Zheng, W. Liang, M. Hada, M. Ehara, K. Toyota, R. Fukuda, 
 J. Hasegawa, M. Ishida, T. Nakajima, Y. Honda, O. Kitao, H. Nakai, 
 T. Vreven, K. Throssell, J. A. Montgomery, Jr., J. E. Peralta, 
 F. Ogliaro, M. J. Bearpark, J. J. Heyd, E. N. Brothers, K. N. Kudin, 
 V. N. Staroverov, T. A. Keith, R. Kobayashi, J. Normand, 
 K. Raghavachari, A. P. Rendell, J. C. Burant, S. S. Iyengar, 
 J. Tomasi, M. Cossi, J. M. Millam, M. Klene, C. Adamo, R. Cammi, 
 J. W. Ochterski, R. L. Martin, K. Morokuma, O. Farkas, 
 J. B. Foresman, and D. J. Fox, Gaussian, Inc., Wallingford CT, 2019.
 
 ******************************************
 Gaussian 16:  ES64L-G16RevC.01  3-Jul-2019
                 8-Apr-2025 
 ******************************************
 %nprocs=16
 Will use up to   16 processors via shared memory.
 %mem=30GB
 %chk=BDE49_nonexpt_1710_mol1.chk
 ----------------------------------------------------------------------
 #t hf aug-cc-pvdz symm=none int=(grid=ultrafine) guess=(read,tcheck) s
 table=(opt,rrhf)
 ----------------------------------------------------------------------
 -----
 title
 -----
 Symbolic Z-matrix:
 Charge =  0 Multiplicity = 1
 C                     1.69203   0.68396  -0.00013 
 S                     0.5119   -0.72191   0.00003 
 H                     1.57707   1.29509  -0.89448 
 H                     2.68617   0.23417  -0.00008 
 H                     1.57706   1.29529   0.89409 
 P                    -1.34641   0.35742   0.00007 
 H                    -1.99352  -0.36977   1.03181 
 H                    -1.99323  -0.36931  -1.03218 
 
                    Distance matrix (angstroms):
                    1          2          3          4          5
     1  C    0.000000
     2  S    1.835534   0.000000
     3  H    1.089297   2.450107   0.000000
     4  H    1.091154   2.375186   1.776409   0.000000
     5  H    1.089297   2.450102   1.788574   1.776410   0.000000
     6  P    3.055943   2.149016   3.197841   4.034462   3.197746
     7  H    3.969701   2.732342   4.385366   4.830007   3.942134
     8  H    3.969341   2.732298   3.941599   4.829715   4.385018
                    6          7          8
     6  P    0.000000
     7  H    1.418460   0.000000
     8  H    1.418466   2.063991   0.000000
 Symmetry turned off by external request.
 Rotational constants (GHZ):          15.2353028           4.0985350           3.3926847
   122 basis functions,   260 primitive gaussians,   128 cartesian basis functions
    21 alpha electrons       21 beta electrons
       nuclear repulsion energy       149.3727129797 Hartrees.
 NAtoms=    8 NActive=    8 NUniq=    8 SFac= 1.00D+00 NAtFMM=   60 NAOKFM=F Big=F
 ExpMin= 2.97D-02 ExpMax= 1.11D+05 ExpMxC= 3.24D+03 IAcc=3 IRadAn=         5 AccDes= 0.00D+00
 Harris functional with IExCor=  205 and IRadAn=       5 diagonalized for initial guess.
 HarFok:  IExCor=  205 AccDes= 0.00D+00 IRadAn=         5 IDoV= 1 UseB2=F ITyADJ=14
 ICtDFT=  3500011 ScaDFX=  1.000000  1.000000  1.000000  1.000000
 FoFCou: FMM=F IPFlag=           0 FMFlag=      100000 FMFlg1=           0
         NFxFlg=           0 DoJE=T BraDBF=F KetDBF=T FulRan=T
         wScrn=  0.000000 ICntrl=       500 IOpCl=  0 I1Cent=   200000004 NGrid=           0
         NMat0=    1 NMatS0=      1 NMatT0=    0 NMatD0=    1 NMtDS0=    0 NMtDT0=    0
 Symmetry not used in FoFCou.
 SCF Done:  E(RHF) =  -779.056668754     A.U. after   12 cycles
            NFock= 12  Conv=0.60D-08     -V/T= 2.0003

 **********************************************************************

            Population analysis using the SCF Density.

 **********************************************************************

 Alpha  occ. eigenvalues --  -91.95709 -79.97852 -11.26747  -8.95874  -7.51699
 Alpha  occ. eigenvalues --   -6.64048  -6.63923  -6.63716  -5.41082  -5.41025
 Alpha  occ. eigenvalues --   -5.40920  -1.04005  -0.90209  -0.78489  -0.59668
 Alpha  occ. eigenvalues --   -0.59353  -0.53503  -0.49659  -0.46808  -0.36802
 Alpha  occ. eigenvalues --   -0.35426
 Alpha virt. eigenvalues --    0.03680   0.04510   0.05713   0.06005   0.07043
 Alpha virt. eigenvalues --    0.07590   0.10700   0.11314   0.12389   0.13909
 Alpha virt. eigenvalues --    0.14059   0.16484   0.16670   0.16975   0.17045
 Alpha virt. eigenvalues --    0.17690   0.19696   0.20209   0.23957   0.25009
 Alpha virt. eigenvalues --    0.26956   0.28517   0.32489   0.33323   0.33786
 Alpha virt. eigenvalues --    0.35013   0.35667   0.39386   0.41223   0.41247
 Alpha virt. eigenvalues --    0.44592   0.45146   0.45861   0.46531   0.49454
 Alpha virt. eigenvalues --    0.50888   0.51066   0.52551   0.53052   0.55304
 Alpha virt. eigenvalues --    0.56596   0.56887   0.58520   0.59290   0.60810
 Alpha virt. eigenvalues --    0.63594   0.63737   0.65638   0.66375   0.68210
 Alpha virt. eigenvalues --    0.69161   0.70885   0.78600   0.80555   0.88214
 Alpha virt. eigenvalues --    0.89465   0.91718   0.92677   0.93892   0.94977
 Alpha virt. eigenvalues --    0.97737   1.02555   1.07286   1.08247   1.10640
 Alpha virt. eigenvalues --    1.11145   1.13317   1.17691   1.21975   1.23469
 Alpha virt. eigenvalues --    1.25697   1.28297   1.32791   1.33384   1.38279
 Alpha virt. eigenvalues --    1.40673   1.45066   1.46250   1.51674   1.71445
 Alpha virt. eigenvalues --    1.79005   1.82361   1.82365   1.88395   1.91838
 Alpha virt. eigenvalues --    2.02534   2.04056   2.05523   2.08071   2.10075
 Alpha virt. eigenvalues --    2.22170   2.22368   2.23510   2.34163   2.35367
 Alpha virt. eigenvalues --    2.44098   2.53483   2.53626   2.83424   2.93429
 Alpha virt. eigenvalues --    2.96795
          Condensed to atoms (all electrons):
 Mulliken charges:
               1
     1  C    0.058913
     2  S   -0.113505
     3  H   -0.056950
     4  H   -0.073026
     5  H   -0.056960
     6  P   -0.342583
     7  H    0.292046
     8  H    0.292065
 Sum of Mulliken charges =  -0.00000
 Mulliken charges with hydrogens summed into heavy atoms:
               1
     1  C   -0.128023
     2  S   -0.113505
     6  P    0.241528
 Electronic spatial extent (au):  <R**2>=            395.5286
 Charge=             -0.0000 electrons
 Dipole moment (field-independent basis, Debye):
    X=              0.1495    Y=              0.8507    Z=             -0.0003  Tot=              0.8637
 NROrb=    122 NOA=    21 NOB=    21 NVA=   101 NVB=   101

 **** Warning!!: The largest alpha MO coefficient is  0.18551027D+02

    12 initial guesses have been made.
 Iteration     1 Dimension    12 NMult     0 NNew     12
 Iteration     2 Dimension    24 NMult    12 NNew     12
 Iteration     3 Dimension    27 NMult    24 NNew      3
 Iteration     4 Dimension    30 NMult    27 NNew      3
 Iteration     5 Dimension    33 NMult    30 NNew      3
 ***********************************************************************
 Stability analysis using <AA,BB:AA,BB> singles matrix:
 ***********************************************************************
 Ground to excited state transition densities written to RWF  633

 Eigenvectors of the stability matrix:
 
 Excited state symmetry could not be determined.
 Eigenvector   1:      Singlet-?Sym  Eigenvalue= 0.2134242  <S**2>=0.000
      21 -> 23        -0.29409
      21 -> 25        -0.12352
      21 -> 26         0.33389
      21 -> 30        -0.21919
      21 -> 31        -0.30244
      21 -> 32         0.18624
      21 -> 37        -0.17485
 The wavefunction is stable under the perturbations considered.
 The wavefunction is already stable.

 **********************************************************************

            Population analysis using the SCF Density.

 **********************************************************************

 Alpha  occ. eigenvalues --  -91.95709 -79.97852 -11.26747  -8.95874  -7.51699
 Alpha  occ. eigenvalues --   -6.64048  -6.63923  -6.63716  -5.41082  -5.41025
 Alpha  occ. eigenvalues --   -5.40920  -1.04005  -0.90209  -0.78489  -0.59668
 Alpha  occ. eigenvalues --   -0.59353  -0.53503  -0.49659  -0.46808  -0.36802
 Alpha  occ. eigenvalues --   -0.35426
 Alpha virt. eigenvalues --    0.03680   0.04510   0.05713   0.06005   0.07043
 Alpha virt. eigenvalues --    0.07590   0.10700   0.11314   0.12389   0.13909
 Alpha virt. eigenvalues --    0.14059   0.16484   0.16670   0.16975   0.17045
 Alpha virt. eigenvalues --    0.17690   0.19696   0.20209   0.23957   0.25009
 Alpha virt. eigenvalues --    0.26956   0.28517   0.32489   0.33323   0.33786
 Alpha virt. eigenvalues --    0.35013   0.35667   0.39386   0.41223   0.41247
 Alpha virt. eigenvalues --    0.44592   0.45146   0.45861   0.46531   0.49454
 Alpha virt. eigenvalues --    0.50888   0.51066   0.52551   0.53052   0.55304
 Alpha virt. eigenvalues --    0.56596   0.56887   0.58520   0.59290   0.60810
 Alpha virt. eigenvalues --    0.63594   0.63737   0.65638   0.66375   0.68210
 Alpha virt. eigenvalues --    0.69161   0.70885   0.78600   0.80555   0.88214
 Alpha virt. eigenvalues --    0.89465   0.91718   0.92677   0.93892   0.94977
 Alpha virt. eigenvalues --    0.97737   1.02555   1.07286   1.08247   1.10640
 Alpha virt. eigenvalues --    1.11145   1.13317   1.17691   1.21975   1.23469
 Alpha virt. eigenvalues --    1.25697   1.28297   1.32791   1.33384   1.38279
 Alpha virt. eigenvalues --    1.40673   1.45066   1.46250   1.51674   1.71445
 Alpha virt. eigenvalues --    1.79005   1.82361   1.82365   1.88395   1.91838
 Alpha virt. eigenvalues --    2.02534   2.04056   2.05523   2.08071   2.10075
 Alpha virt. eigenvalues --    2.22170   2.22368   2.23510   2.34163   2.35367
 Alpha virt. eigenvalues --    2.44098   2.53483   2.53626   2.83424   2.93429
 Alpha virt. eigenvalues --    2.96795
          Condensed to atoms (all electrons):
 Mulliken charges:
               1
     1  C    0.058913
     2  S   -0.113505
     3  H   -0.056950
     4  H   -0.073026
     5  H   -0.056960
     6  P   -0.342583
     7  H    0.292046
     8  H    0.292065
 Sum of Mulliken charges =  -0.00000
 Mulliken charges with hydrogens summed into heavy atoms:
               1
     1  C   -0.128023
     2  S   -0.113505
     6  P    0.241528
 Electronic spatial extent (au):  <R**2>=            395.5286
 Charge=             -0.0000 electrons
 Dipole moment (field-independent basis, Debye):
    X=              0.1495    Y=              0.8507    Z=             -0.0003  Tot=              0.8637
 Unable to Open any file for archive entry.
 1\1\GINC-SE341\Stability\RHF\Aug-CC-pVDZ\C1H5P1S1\OHZDE\08-Apr-2025\0\
 \#t hf aug-cc-pvdz symm=none int=(grid=ultrafine) guess=(read,tcheck) 
 stable=(opt,rrhf)\\title\\0,1\C,0,1.692034,0.683963,-0.000128\S,0,0.51
 1901,-0.721907,0.000032\H,0,1.577066,1.295093,-0.894483\H,0,2.686167,0
 .234167,-0.000078\H,0,1.577063,1.295291,0.894091\P,0,-1.346412,0.35741
 8,0.000073\H,0,-1.993516,-0.369766,1.031814\H,0,-1.993228,-0.369311,-1
 .032177\\Version=ES64L-G16RevC.01\HF=-779.0566688\RMSD=6.019e-09\Dipol
 e=0.058809,0.3346757,-0.000109\Quadrupole=2.9130704,-2.2620857,-0.6509
 847,1.9144186,-0.0001897,-0.0004875\PG=Unknown\\@
 The archive entry for this job was punched.


 Experience is what you get when you don't get what you want.
 -- Dan Stanford
 Job cpu time:       0 days  0 hours  0 minutes 31.6 seconds.
 Elapsed time:       0 days  0 hours  0 minutes  3.6 seconds.
 File lengths (MBytes):  RWF=    115 Int=      0 D2E=      0 Chk=      3 Scr=      1
 Normal termination of Gaussian 16 at Tue Apr  8 23:43:11 2025.
 Initial command:
 /arc/software/Gaussian/g16.c01/l1.exe "/tmp/slurm/4846921/Gau-1970860.inp" -scrdir="/tmp/slurm/4846921/"
 Entering Link 1 = /arc/software/Gaussian/g16.c01/l1.exe PID=   1971193.
  
 Copyright (c) 1988-2019, Gaussian, Inc.  All Rights Reserved.
  
 This is part of the Gaussian(R) 16 program.  It is based on
 the Gaussian(R) 09 system (copyright 2009, Gaussian, Inc.),
 the Gaussian(R) 03 system (copyright 2003, Gaussian, Inc.),
 the Gaussian(R) 98 system (copyright 1998, Gaussian, Inc.),
 the Gaussian(R) 94 system (copyright 1995, Gaussian, Inc.),
 the Gaussian 92(TM) system (copyright 1992, Gaussian, Inc.),
 the Gaussian 90(TM) system (copyright 1990, Gaussian, Inc.),
 the Gaussian 88(TM) system (copyright 1988, Gaussian, Inc.),
 the Gaussian 86(TM) system (copyright 1986, Carnegie Mellon
 University), and the Gaussian 82(TM) system (copyright 1983,
 Carnegie Mellon University). Gaussian is a federally registered
 trademark of Gaussian, Inc.
  
 This software contains proprietary and confidential information,
 including trade secrets, belonging to Gaussian, Inc.
  
 This software is provided under written license and may be
 used, copied, transmitted, or stored only in accord with that
 written license.
  
 The following legend is applicable only to US Government
 contracts under FAR:
  
                    RESTRICTED RIGHTS LEGEND
  
 Use, reproduction and disclosure by the US Government is
 subject to restrictions as set forth in subparagraphs (a)
 and (c) of the Commercial Computer Software - Restricted
 Rights clause in FAR 52.227-19.
  
 Gaussian, Inc.
 340 Quinnipiac St., Bldg. 40, Wallingford CT 06492
  
  
 ---------------------------------------------------------------
 Warning -- This program may not be used in any manner that
 competes with the business of Gaussian, Inc. or will provide
 assistance to any competitor of Gaussian, Inc.  The licensee
 of this program is prohibited from giving any competitor of
 Gaussian, Inc. access to this program.  By using this program,
 the user acknowledges that Gaussian, Inc. is engaged in the
 business of creating and licensing software in the field of
 computational chemistry and represents and warrants to the
 licensee that it is not a competitor of Gaussian, Inc. and that
 it will not use this program in any manner prohibited above.
 ---------------------------------------------------------------
  

 Cite this work as:
 Gaussian 16, Revision C.01,
 M. J. Frisch, G. W. Trucks, H. B. Schlegel, G. E. Scuseria, 
 M. A. Robb, J. R. Cheeseman, G. Scalmani, V. Barone, 
 G. A. Petersson, H. Nakatsuji, X. Li, M. Caricato, A. V. Marenich, 
 J. Bloino, B. G. Janesko, R. Gomperts, B. Mennucci, H. P. Hratchian, 
 J. V. Ortiz, A. F. Izmaylov, J. L. Sonnenberg, D. Williams-Young, 
 F. Ding, F. Lipparini, F. Egidi, J. Goings, B. Peng, A. Petrone, 
 T. Henderson, D. Ranasinghe, V. G. Zakrzewski, J. Gao, N. Rega, 
 G. Zheng, W. Liang, M. Hada, M. Ehara, K. Toyota, R. Fukuda, 
 J. Hasegawa, M. Ishida, T. Nakajima, Y. Honda, O. Kitao, H. Nakai, 
 T. Vreven, K. Throssell, J. A. Montgomery, Jr., J. E. Peralta, 
 F. Ogliaro, M. J. Bearpark, J. J. Heyd, E. N. Brothers, K. N. Kudin, 
 V. N. Staroverov, T. A. Keith, R. Kobayashi, J. Normand, 
 K. Raghavachari, A. P. Rendell, J. C. Burant, S. S. Iyengar, 
 J. Tomasi, M. Cossi, J. M. Millam, M. Klene, C. Adamo, R. Cammi, 
 J. W. Ochterski, R. L. Martin, K. Morokuma, O. Farkas, 
 J. B. Foresman, and D. J. Fox, Gaussian, Inc., Wallingford CT, 2019.
 
 ******************************************
 Gaussian 16:  ES64L-G16RevC.01  3-Jul-2019
                 8-Apr-2025 
 ******************************************
 %nprocs=16
 Will use up to   16 processors via shared memory.
 %mem=30GB
 %chk=BDE49_nonexpt_1710_mol1.chk
 ----------------------------------------------------------------------
 #t hf aug-cc-pvdz iop(5/13=1,5/36=2,99/5=2) pseudo=read geom=check gue
 ss=(read,tcheck) scf=(maxcycle=1)
 ----------------------------------------------------------------------
 -----
 title
 -----
 Structure from the checkpoint file:  "BDE49_nonexpt_1710_mol1.chk"
 Charge =  0 Multiplicity = 1
 Z-Matrix found in chk file.
 C,0,1.692034,0.683963,-0.000128
 S,0,0.511901,-0.721907,0.000032
 H,0,1.577066,1.295093,-0.894483
 H,0,2.686167,0.234167,-0.000078
 H,0,1.577063,1.295291,0.894091
 P,0,-1.346412,0.357418,0.000073
 H,0,-1.993516,-0.369766,1.031814
 H,0,-1.993228,-0.369311,-1.032177
 Recover connectivity data from disk.
                    Distance matrix (angstroms):
                    1          2          3          4          5
     1  C    0.000000
     2  S    1.835534   0.000000
     3  H    1.089297   2.450107   0.000000
     4  H    1.091154   2.375186   1.776409   0.000000
     5  H    1.089297   2.450102   1.788574   1.776410   0.000000
     6  P    3.055943   2.149016   3.197841   4.034462   3.197746
     7  H    3.969701   2.732342   4.385366   4.830007   3.942134
     8  H    3.969341   2.732298   3.941599   4.829715   4.385018
                    6          7          8
     6  P    0.000000
     7  H    1.418460   0.000000
     8  H    1.418466   2.063991   0.000000
 Framework group  C1[X(CH5PS)]
 Deg. of freedom    18
                         Standard orientation:                         
 ---------------------------------------------------------------------
 Center     Atomic      Atomic             Coordinates (Angstroms)
 Number     Number       Type             X           Y           Z
 ---------------------------------------------------------------------
      1          6           0       -1.692034    0.683963    0.000128
      2         16           0       -0.511901   -0.721907   -0.000032
      3          1           0       -1.577066    1.295093    0.894483
      4          1           0       -2.686167    0.234167    0.000078
      5          1           0       -1.577063    1.295291   -0.894091
      6         15           0        1.346412    0.357418   -0.000073
      7          1           0        1.993516   -0.369766   -1.031814
      8          1           0        1.993228   -0.369311    1.032177
 ---------------------------------------------------------------------
 Rotational constants (GHZ):          15.2353028           4.0985350           3.3926847
 ======================================================================================================
                                       Pseudopotential Parameters
 ======================================================================================================
  Center     Atomic      Valence      Angular      Power
  Number     Number     Electrons     Momentum     of R      Exponent        Coefficient   SO-Coeffient
 ======================================================================================================
    1          6            6
                                      G and up 
                                                     0        0.0000010       -0.00007288    0.00000000
                                                     2        0.1200000        0.10466671    0.00000000
                                                     2        0.1400000       -0.65716157    0.00000000
                                                     2        0.1600000        1.18890794    0.00000000
                                                     2        0.2000000       -1.25772850    0.00000000
                                                     2        0.2600000        1.01188378    0.00000000
                                                     2        0.4000000       -1.09380874    0.00000000
                                                     2        0.5000000        0.96944888    0.00000000
                                                     2        1.0000000       -0.79256938    0.00000000
                                                     2        3.0000000        1.06443276    0.00000000
                                      S - G
                                                     0        0.0000010       -0.00635295    0.00000000
                                                     2        0.1200000        0.16918955    0.00000000
                                                     2        0.1600000       -0.38862576    0.00000000
                                                     2        0.2800000        0.25638263    0.00000000
                                                     2        0.5000000        0.29628419    0.00000000
                                                     2        0.9000000       -0.28791512    0.00000000
                                      P - G
                                                     0        0.0000010       -0.04756931    0.00000000
                                                     2        0.1200000        0.28430375    0.00000000
                                                     2        0.1600000       -0.69640032    0.00000000
                                                     2        0.2600000        1.13005668    0.00000000
                                                     2        0.4000000       -1.31433324    0.00000000
                                                     2        0.7000000        0.91526469    0.00000000
                                      D - G
                                                     0        0.0000010       -0.11496411    0.00000000
                                                     2        0.1200000        0.16620776    0.00000000
                                                     2        0.1800000       -0.30959819    0.00000000
                                                     2        0.3000000        0.16621458    0.00000000
                                                     2        0.6000000        0.27350556    0.00000000
                                      F - G
                                                     0        0.0000010        0.12037550    0.00000000
                                                     2        0.1200000       -0.48737077    0.00000000
                                                     2        0.1400000        0.58315350    0.00000000
                                                     2        0.3000000        0.00005188    0.00000000
                                                     2        0.5000000       -1.16063549    0.00000000
                                                     2        0.8000000        2.09053308    0.00000000
    2         16           16
                                      G and up 
                                                     0        0.0000010       -0.00031824    0.00000000
                                                     2        0.1200000       -0.02709645    0.00000000
                                                     2        0.1400000        0.07756871    0.00000000
                                                     2        0.1800000       -0.09276244    0.00000000
                                                     2        0.2400000        0.04926396    0.00000000
                                                     2        0.4000000        0.19256092    0.00000000
                                                     2        0.6000000       -0.68044142    0.00000000
                                                     2        1.2000000        2.88179630    0.00000000
                                      S - G
                                                     0        0.0000010       -0.00682297    0.00000000
                                                     2        0.1200000        0.09894847    0.00000000
                                                     2        0.2400000       -0.09649386    0.00000000
                                                     2        0.5000000       -0.86533519    0.00000000
                                      P - G
                                                     0        0.0000010       -0.03724640    0.00000000
                                                     2        0.1200000        0.13565737    0.00000000
                                                     2        0.1600000       -0.58061535    0.00000000
                                                     2        0.2800000        1.15300814    0.00000000
                                                     2        0.6000000       -1.81693648    0.00000000
                                      D - G
                                                     0        0.0000010       -0.04698793    0.00000000
                                                     2        0.1200000        0.09075241    0.00000000
                                                     2        0.2000000       -0.23702631    0.00000000
                                                     2        0.4000000        0.07730186    0.00000000
                                      F - G
                                                     0        0.0000010        0.08145595    0.00000000
                                                     2        0.1200000       -0.08234030    0.00000000
                                                     2        0.2200000        0.18834854    0.00000000
                                                     2        0.4000000       -0.20344406    0.00000000
    3          1            1
                                      F and up 
                                                     0        0.0000010       -0.00007675    0.00000000
                                                     2        0.1200000        0.05352699    0.00000000
                                                     2        0.1400000       -0.25123645    0.00000000
                                                     2        0.1600000        0.32188106    0.00000000
                                                     2        0.2200000       -0.25206857    0.00000000
                                                     2        0.3000000        0.19290477    0.00000000
                                                     2        0.5000000       -0.10129770    0.00000000
                                                     2        0.9000000        0.00314995    0.00000000
                                                     2        1.5000000        0.18401192    0.00000000
                                      S - F
                                                     0        0.0000010        0.08065976    0.00000000
                                                     2        0.1200000       -0.09231673    0.00000000
                                                     2        0.1600000       -0.03278082    0.00000000
                                                     2        0.2800000        0.38423402    0.00000000
                                                     2        0.6000000       -1.09357590    0.00000000
                                                     2        1.1000000        1.53099489    0.00000000
                                                     2        3.0000000       -2.63300202    0.00000000
                                      P - F
                                                     0        0.0000010       -0.11638665    0.00000000
                                                     2        0.1200000        0.35468655    0.00000000
                                                     2        0.1600000       -0.59160923    0.00000000
                                                     2        0.3000000        0.49390547    0.00000000
                                                     2        0.6000000       -0.37949835    0.00000000
                                                     2        1.6000000        0.89304688    0.00000000
                                      D - F
                                                     0        0.0000010        0.05443663    0.00000000
                                                     2        0.1200000       -0.29679479    0.00000000
                                                     2        0.1400000        0.36849872    0.00000000
                                                     2        0.2400000        0.02793449    0.00000000
                                                     2        0.4000000       -0.46312857    0.00000000
                                                     2        0.7000000        0.97587598    0.00000000
                                                     2        1.5000000       -2.43431102    0.00000000
    4          1            1
                                      F and up 
                                                     0        0.0000010       -0.00007675    0.00000000
                                                     2        0.1200000        0.05352699    0.00000000
                                                     2        0.1400000       -0.25123645    0.00000000
                                                     2        0.1600000        0.32188106    0.00000000
                                                     2        0.2200000       -0.25206857    0.00000000
                                                     2        0.3000000        0.19290477    0.00000000
                                                     2        0.5000000       -0.10129770    0.00000000
                                                     2        0.9000000        0.00314995    0.00000000
                                                     2        1.5000000        0.18401192    0.00000000
                                      S - F
                                                     0        0.0000010        0.08065976    0.00000000
                                                     2        0.1200000       -0.09231673    0.00000000
                                                     2        0.1600000       -0.03278082    0.00000000
                                                     2        0.2800000        0.38423402    0.00000000
                                                     2        0.6000000       -1.09357590    0.00000000
                                                     2        1.1000000        1.53099489    0.00000000
                                                     2        3.0000000       -2.63300202    0.00000000
                                      P - F
                                                     0        0.0000010       -0.11638665    0.00000000
                                                     2        0.1200000        0.35468655    0.00000000
                                                     2        0.1600000       -0.59160923    0.00000000
                                                     2        0.3000000        0.49390547    0.00000000
                                                     2        0.6000000       -0.37949835    0.00000000
                                                     2        1.6000000        0.89304688    0.00000000
                                      D - F
                                                     0        0.0000010        0.05443663    0.00000000
                                                     2        0.1200000       -0.29679479    0.00000000
                                                     2        0.1400000        0.36849872    0.00000000
                                                     2        0.2400000        0.02793449    0.00000000
                                                     2        0.4000000       -0.46312857    0.00000000
                                                     2        0.7000000        0.97587598    0.00000000
                                                     2        1.5000000       -2.43431102    0.00000000
    5          1            1
                                      F and up 
                                                     0        0.0000010       -0.00007675    0.00000000
                                                     2        0.1200000        0.05352699    0.00000000
                                                     2        0.1400000       -0.25123645    0.00000000
                                                     2        0.1600000        0.32188106    0.00000000
                                                     2        0.2200000       -0.25206857    0.00000000
                                                     2        0.3000000        0.19290477    0.00000000
                                                     2        0.5000000       -0.10129770    0.00000000
                                                     2        0.9000000        0.00314995    0.00000000
                                                     2        1.5000000        0.18401192    0.00000000
                                      S - F
                                                     0        0.0000010        0.08065976    0.00000000
                                                     2        0.1200000       -0.09231673    0.00000000
                                                     2        0.1600000       -0.03278082    0.00000000
                                                     2        0.2800000        0.38423402    0.00000000
                                                     2        0.6000000       -1.09357590    0.00000000
                                                     2        1.1000000        1.53099489    0.00000000
                                                     2        3.0000000       -2.63300202    0.00000000
                                      P - F
                                                     0        0.0000010       -0.11638665    0.00000000
                                                     2        0.1200000        0.35468655    0.00000000
                                                     2        0.1600000       -0.59160923    0.00000000
                                                     2        0.3000000        0.49390547    0.00000000
                                                     2        0.6000000       -0.37949835    0.00000000
                                                     2        1.6000000        0.89304688    0.00000000
                                      D - F
                                                     0        0.0000010        0.05443663    0.00000000
                                                     2        0.1200000       -0.29679479    0.00000000
                                                     2        0.1400000        0.36849872    0.00000000
                                                     2        0.2400000        0.02793449    0.00000000
                                                     2        0.4000000       -0.46312857    0.00000000
                                                     2        0.7000000        0.97587598    0.00000000
                                                     2        1.5000000       -2.43431102    0.00000000
    6         15           15
                                      G and up 
                                                     0        0.0000010       -0.00016516    0.00000000
                                                     2        0.1200000       -0.08406156    0.00000000
                                                     2        0.1400000        0.35563553    0.00000000
                                                     2        0.1600000       -0.37362088    0.00000000
                                                     2        0.2400000        0.19669494    0.00000000
                                                     2        0.4000000       -0.20020603    0.00000000
                                      S - G
                                                     0        0.0000010       -0.01385993    0.00000000
                                                     2        0.1200000        0.05630526    0.00000000
                                                     2        0.2000000       -0.09537588    0.00000000
                                                     2        0.4000000       -0.53985714    0.00000000
                                                     2        1.1000000        2.43552452    0.00000000
                                      P - G
                                                     0        0.0000010        0.17843185    0.00000000
                                                     2        0.1200000       -0.31077649    0.00000000
                                                     2        0.2200000        0.64937126    0.00000000
                                                     2        0.5000000       -0.99645722    0.00000000
                                      D - G
                                                     0        0.0000010       -0.08963584    0.00000000
                                                     2        0.1200000        0.16512367    0.00000000
                                                     2        0.1800000       -0.31793327    0.00000000
                                                     2        0.4000000        0.42496203    0.00000000
                                      F - G
                                                     0        0.0000010        0.02339588    0.00000000
                                                     2        0.1200000       -0.03495660    0.00000000
                                                     2        0.2400000        0.12863886    0.00000000
    7          1            1
                                      F and up 
                                                     0        0.0000010       -0.00007675    0.00000000
                                                     2        0.1200000        0.05352699    0.00000000
                                                     2        0.1400000       -0.25123645    0.00000000
                                                     2        0.1600000        0.32188106    0.00000000
                                                     2        0.2200000       -0.25206857    0.00000000
                                                     2        0.3000000        0.19290477    0.00000000
                                                     2        0.5000000       -0.10129770    0.00000000
                                                     2        0.9000000        0.00314995    0.00000000
                                                     2        1.5000000        0.18401192    0.00000000
                                      S - F
                                                     0        0.0000010        0.08065976    0.00000000
                                                     2        0.1200000       -0.09231673    0.00000000
                                                     2        0.1600000       -0.03278082    0.00000000
                                                     2        0.2800000        0.38423402    0.00000000
                                                     2        0.6000000       -1.09357590    0.00000000
                                                     2        1.1000000        1.53099489    0.00000000
                                                     2        3.0000000       -2.63300202    0.00000000
                                      P - F
                                                     0        0.0000010       -0.11638665    0.00000000
                                                     2        0.1200000        0.35468655    0.00000000
                                                     2        0.1600000       -0.59160923    0.00000000
                                                     2        0.3000000        0.49390547    0.00000000
                                                     2        0.6000000       -0.37949835    0.00000000
                                                     2        1.6000000        0.89304688    0.00000000
                                      D - F
                                                     0        0.0000010        0.05443663    0.00000000
                                                     2        0.1200000       -0.29679479    0.00000000
                                                     2        0.1400000        0.36849872    0.00000000
                                                     2        0.2400000        0.02793449    0.00000000
                                                     2        0.4000000       -0.46312857    0.00000000
                                                     2        0.7000000        0.97587598    0.00000000
                                                     2        1.5000000       -2.43431102    0.00000000
    8          1            1
                                      F and up 
                                                     0        0.0000010       -0.00007675    0.00000000
                                                     2        0.1200000        0.05352699    0.00000000
                                                     2        0.1400000       -0.25123645    0.00000000
                                                     2        0.1600000        0.32188106    0.00000000
                                                     2        0.2200000       -0.25206857    0.00000000
                                                     2        0.3000000        0.19290477    0.00000000
                                                     2        0.5000000       -0.10129770    0.00000000
                                                     2        0.9000000        0.00314995    0.00000000
                                                     2        1.5000000        0.18401192    0.00000000
                                      S - F
                                                     0        0.0000010        0.08065976    0.00000000
                                                     2        0.1200000       -0.09231673    0.00000000
                                                     2        0.1600000       -0.03278082    0.00000000
                                                     2        0.2800000        0.38423402    0.00000000
                                                     2        0.6000000       -1.09357590    0.00000000
                                                     2        1.1000000        1.53099489    0.00000000
                                                     2        3.0000000       -2.63300202    0.00000000
                                      P - F
                                                     0        0.0000010       -0.11638665    0.00000000
                                                     2        0.1200000        0.35468655    0.00000000
                                                     2        0.1600000       -0.59160923    0.00000000
                                                     2        0.3000000        0.49390547    0.00000000
                                                     2        0.6000000       -0.37949835    0.00000000
                                                     2        1.6000000        0.89304688    0.00000000
                                      D - F
                                                     0        0.0000010        0.05443663    0.00000000
                                                     2        0.1200000       -0.29679479    0.00000000
                                                     2        0.1400000        0.36849872    0.00000000
                                                     2        0.2400000        0.02793449    0.00000000
                                                     2        0.4000000       -0.46312857    0.00000000
                                                     2        0.7000000        0.97587598    0.00000000
                                                     2        1.5000000       -2.43431102    0.00000000
 ======================================================================================================
   122 basis functions,   260 primitive gaussians,   128 cartesian basis functions
    21 alpha electrons       21 beta electrons
       nuclear repulsion energy       149.3727129797 Hartrees.
 NAtoms=    8 NActive=    8 NUniq=    8 SFac= 1.00D+00 NAtFMM=   60 NAOKFM=F Big=F
   1 Symmetry operations used in ECPInt.
 ECPInt:  NShTT=    1596 NPrTT=   10744 LenC2=    1596 LenP2D=    8509.
 LDataN:  DoStor=T MaxTD1= 6 Len=  172
 Initial guess from the checkpoint file:  "BDE49_nonexpt_1710_mol1.chk"
 B after Tr=    -0.000000   -0.000000    0.000000
         Rot=    0.000000   -0.000000    1.000000   -0.000000 Ang=-180.00 deg.
 >>>>>>>>>> Convergence criterion not met.
 SCF Done:  E(RHF) =  -779.210521409     A.U. after    2 cycles
            NFock=  1  Conv=0.25D-01     -V/T= 2.0104

 **********************************************************************

            Population analysis using the SCF Density.

 **********************************************************************

 Orbital symmetries:
       Occupied  (A) (A) (A) (A) (A) (A) (A) (A) (A) (A) (A) (A)
                 (A) (A) (A) (A) (A) (A) (A) (A) (A)
       Virtual   (A) (A) (A) (A) (A) (A) (A) (A) (A) (A) (A) (A)
                 (A) (A) (A) (A) (A) (A) (A) (A) (A) (A) (A) (A)
                 (A) (A) (A) (A) (A) (A) (A) (A) (A) (A) (A) (A)
                 (A) (A) (A) (A) (A) (A) (A) (A) (A) (A) (A) (A)
                 (A) (A) (A) (A) (A) (A) (A) (A) (A) (A) (A) (A)
                 (A) (A) (A) (A) (A) (A) (A) (A) (A) (A) (A) (A)
                 (A) (A) (A) (A) (A) (A) (A) (A) (A) (A) (A) (A)
                 (A) (A) (A) (A) (A) (A) (A) (A) (A) (A) (A) (A)
                 (A) (A) (A) (A) (A)
 The electronic state is 1-A.
 Alpha  occ. eigenvalues --  -93.94987 -84.30019 -11.27125  -8.23112  -6.76962
 Alpha  occ. eigenvalues --   -6.20899  -6.20756  -6.20526  -4.29074  -4.29060
 Alpha  occ. eigenvalues --   -4.28424  -1.06383  -0.91682  -0.79867  -0.60361
 Alpha  occ. eigenvalues --   -0.60148  -0.52376  -0.50418  -0.46247  -0.36065
 Alpha  occ. eigenvalues --   -0.35112
 Alpha virt. eigenvalues --    0.03796   0.04358   0.05467   0.05824   0.07160
 Alpha virt. eigenvalues --    0.07612   0.10666   0.11229   0.12367   0.14037
 Alpha virt. eigenvalues --    0.14219   0.16219   0.16608   0.17138   0.17282
 Alpha virt. eigenvalues --    0.18053   0.20429   0.20478   0.23689   0.25009
 Alpha virt. eigenvalues --    0.26825   0.28556   0.32365   0.33083   0.33696
 Alpha virt. eigenvalues --    0.35467   0.35582   0.39363   0.41063   0.41159
 Alpha virt. eigenvalues --    0.44280   0.44915   0.46111   0.46541   0.49599
 Alpha virt. eigenvalues --    0.51055   0.51375   0.52634   0.53135   0.56101
 Alpha virt. eigenvalues --    0.56550   0.57294   0.58976   0.59649   0.61603
 Alpha virt. eigenvalues --    0.63845   0.64283   0.65905   0.66554   0.68761
 Alpha virt. eigenvalues --    0.69566   0.71026   0.78985   0.81025   0.90001
 Alpha virt. eigenvalues --    0.91098   0.92764   0.95034   0.95958   1.00047
 Alpha virt. eigenvalues --    1.00918   1.03984   1.11313   1.11877   1.13205
 Alpha virt. eigenvalues --    1.13486   1.15824   1.22742   1.27475   1.28383
 Alpha virt. eigenvalues --    1.30606   1.33373   1.36045   1.38207   1.41467
 Alpha virt. eigenvalues --    1.44978   1.49273   1.50030   1.54135   1.72424
 Alpha virt. eigenvalues --    1.79541   1.83100   1.86006   1.92544   1.95530
 Alpha virt. eigenvalues --    2.05710   2.07852   2.09748   2.11375   2.13783
 Alpha virt. eigenvalues --    2.24898   2.26873   2.27494   2.40907   2.43037
 Alpha virt. eigenvalues --    2.47309   2.55270   2.55335   2.89884   3.01195
 Alpha virt. eigenvalues --    3.04290
          Condensed to atoms (all electrons):
 Mulliken charges:
               1
     1  C   -0.667387
     2  S   -0.212750
     3  H    0.173206
     4  H    0.170492
     5  H    0.173204
     6  P   -0.581845
     7  H    0.472548
     8  H    0.472532
 Sum of Mulliken charges =  -0.00000
 Mulliken charges with hydrogens summed into heavy atoms:
               1
     1  C   -0.150485
     2  S   -0.212750
     6  P    0.363235
 Electronic spatial extent (au):  <R**2>=            398.2197
 Charge=              0.0000 electrons
 Dipole moment (field-independent basis, Debye):
    X=              0.0784    Y=              1.2723    Z=              0.0002  Tot=              1.2747

 Test job not archived.
 1\1\GINC-SE341\SP\RHF\Aug-CC-pVDZ\C1H5P1S1\OHZDE\08-Apr-2025\0\\#t hf 
 aug-cc-pvdz iop(5/13=1,5/36=2,99/5=2) pseudo=read geom=check guess=(re
 ad,tcheck) scf=(maxcycle=1)\\title\\0,1\C,0,1.692034,0.683963,-0.00012
 8\S,0,0.511901,-0.721907,0.000032\H,0,1.577066,1.295093,-0.894483\H,0,
 2.686167,0.234167,-0.000078\H,0,1.577063,1.295291,0.894091\P,0,-1.3464
 12,0.357418,0.000073\H,0,-1.993516,-0.369766,1.031814\H,0,-1.993228,-0
 .369311,-1.032177\\Version=ES64L-G16RevC.01\State=1-A\HF=-779.2105214\
 RMSD=2.454e-02\Dipole=-0.0308407,0.5005605,-0.0000735\Quadrupole=2.945
 0278,-2.2535277,-0.6915002,1.6621339,-0.0002889,-0.0004949\PG=C01 [X(C
 1H5P1S1)]\\@


 ERWIN WITH HIS PSI CAN DO
 CALCULATIONS QUITE A FEW.
 BUT ONE THING HAS NOT BEEN SEEN
 JUST WHAT DOES PSI REALLY MEAN.
 -- WALTER HUCKEL, TRANS. BY FELIX BLOCH
 Job cpu time:       0 days  0 hours  0 minutes 24.1 seconds.
 Elapsed time:       0 days  0 hours  0 minutes  2.3 seconds.
 File lengths (MBytes):  RWF=      6 Int=      0 D2E=      0 Chk=      3 Scr=      1
 Normal termination of Gaussian 16 at Tue Apr  8 23:43:13 2025.
