 Entering Gaussian System, Link 0=g16
 Input=BDE49_nonexpt_2664_mol2.gjf
 Output=BDE49_nonexpt_2664_mol2.log
 Initial command:
 /arc/software/Gaussian/g16.c01/l1.exe "/tmp/slurm/4853129/Gau-3192072.inp" -scrdir="/tmp/slurm/4853129/"
 Entering Link 1 = /arc/software/Gaussian/g16.c01/l1.exe PID=   3192073.
  
 Copyright (c) 1988-2019, Gaussian, Inc.  All Rights Reserved.
  
 This is part of the Gaussian(R) 16 program.  It is based on
 the Gaussian(R) 09 system (copyright 2009, Gaussian, Inc.),
 the Gaussian(R) 03 system (copyright 2003, Gaussian, Inc.),
 the Gaussian(R) 98 system (copyright 1998, Gaussian, Inc.),
 the Gaussian(R) 94 system (copyright 1995, Gaussian, Inc.),
 the Gaussian 92(TM) system (copyright 1992, Gaussian, Inc.),
 the Gaussian 90(TM) system (copyright 1990, Gaussian, Inc.),
 the Gaussian 88(TM) system (copyright 1988, Gaussian, Inc.),
 the Gaussian 86(TM) system (copyright 1986, Carnegie Mellon
 University), and the Gaussian 82(TM) system (copyright 1983,
 Carnegie Mellon University). Gaussian is a federally registered
 trademark of Gaussian, Inc.
  
 This software contains proprietary and confidential information,
 including trade secrets, belonging to Gaussian, Inc.
  
 This software is provided under written license and may be
 used, copied, transmitted, or stored only in accord with that
 written license.
  
 The following legend is applicable only to US Government
 contracts under FAR:
  
                    RESTRICTED RIGHTS LEGEND
  
 Use, reproduction and disclosure by the US Government is
 subject to restrictions as set forth in subparagraphs (a)
 and (c) of the Commercial Computer Software - Restricted
 Rights clause in FAR 52.227-19.
  
 Gaussian, Inc.
 340 Quinnipiac St., Bldg. 40, Wallingford CT 06492
  
  
 ---------------------------------------------------------------
 Warning -- This program may not be used in any manner that
 competes with the business of Gaussian, Inc. or will provide
 assistance to any competitor of Gaussian, Inc.  The licensee
 of this program is prohibited from giving any competitor of
 Gaussian, Inc. access to this program.  By using this program,
 the user acknowledges that Gaussian, Inc. is engaged in the
 business of creating and licensing software in the field of
 computational chemistry and represents and warrants to the
 licensee that it is not a competitor of Gaussian, Inc. and that
 it will not use this program in any manner prohibited above.
 ---------------------------------------------------------------
  

 Cite this work as:
 Gaussian 16, Revision C.01,
 M. J. Frisch, G. W. Trucks, H. B. Schlegel, G. E. Scuseria, 
 M. A. Robb, J. R. Cheeseman, G. Scalmani, V. Barone, 
 G. A. Petersson, H. Nakatsuji, X. Li, M. Caricato, A. V. Marenich, 
 J. Bloino, B. G. Janesko, R. Gomperts, B. Mennucci, H. P. Hratchian, 
 J. V. Ortiz, A. F. Izmaylov, J. L. Sonnenberg, D. Williams-Young, 
 F. Ding, F. Lipparini, F. Egidi, J. Goings, B. Peng, A. Petrone, 
 T. Henderson, D. Ranasinghe, V. G. Zakrzewski, J. Gao, N. Rega, 
 G. Zheng, W. Liang, M. Hada, M. Ehara, K. Toyota, R. Fukuda, 
 J. Hasegawa, M. Ishida, T. Nakajima, Y. Honda, O. Kitao, H. Nakai, 
 T. Vreven, K. Throssell, J. A. Montgomery, Jr., J. E. Peralta, 
 F. Ogliaro, M. J. Bearpark, J. J. Heyd, E. N. Brothers, K. N. Kudin, 
 V. N. Staroverov, T. A. Keith, R. Kobayashi, J. Normand, 
 K. Raghavachari, A. P. Rendell, J. C. Burant, S. S. Iyengar, 
 J. Tomasi, M. Cossi, J. M. Millam, M. Klene, C. Adamo, R. Cammi, 
 J. W. Ochterski, R. L. Martin, K. Morokuma, O. Farkas, 
 J. B. Foresman, and D. J. Fox, Gaussian, Inc., Wallingford CT, 2019.
 
 ******************************************
 Gaussian 16:  ES64L-G16RevC.01  3-Jul-2019
                 9-Apr-2025 
 ******************************************
 %nprocs=16
 Will use up to   16 processors via shared memory.
 %mem=30GB
 %chk=BDE49_nonexpt_2664_mol2.chk
 ----------------------------------------------------------------------
 #t hf aug-cc-pvdz symm=none int=(grid=ultrafine) guess=(read,tcheck) s
 table=opt
 ----------------------------------------------------------------------
 -----
 title
 -----
 Symbolic Z-matrix:
 Charge =  0 Multiplicity = 2
 S                     1.52461  -0.52551   0. 
 C                     0.04726   0.44307   0. 
 O                     0.15222   1.64214   0. 
 S                    -1.55096  -0.36041  0. 
 H                    -1.07978  -1.62089  0. 
 
                    Distance matrix (angstroms):
                    1          2          3          4          5
     1  S    0.000000
     2  C    1.766551   0.000000
     3  O    2.565574   1.203660   0.000000
     4  S    3.079992   1.788816   2.628880   0.000000
     5  H    2.825368   2.351627   3.487868   1.345670   0.000000
 Symmetry turned off by external request.
 Rotational constants (GHZ):           8.2772252           3.3070644           2.3629690
   109 basis functions,   259 primitive gaussians,   117 cartesian basis functions
    24 alpha electrons       23 beta electrons
       nuclear repulsion energy       186.2623268936 Hartrees.
 NAtoms=    5 NActive=    5 NUniq=    5 SFac= 1.00D+00 NAtFMM=   60 NAOKFM=F Big=F
 ExpMin= 2.97D-02 ExpMax= 1.11D+05 ExpMxC= 1.07D+03 IAcc=3 IRadAn=         5 AccDes= 0.00D+00
 Harris functional with IExCor=  205 and IRadAn=       5 diagonalized for initial guess.
 HarFok:  IExCor=  205 AccDes= 0.00D+00 IRadAn=         5 IDoV= 1 UseB2=F ITyADJ=14
 ICtDFT=  3500011 ScaDFX=  1.000000  1.000000  1.000000  1.000000
 FoFCou: FMM=F IPFlag=           0 FMFlag=      100000 FMFlg1=           0
         NFxFlg=           0 DoJE=T BraDBF=F KetDBF=T FulRan=T
         wScrn=  0.000000 ICntrl=       500 IOpCl=  0 I1Cent=   200000004 NGrid=           0
         NMat0=    1 NMatS0=      1 NMatT0=    0 NMatD0=    1 NMtDS0=    0 NMtDT0=    0
 Symmetry not used in FoFCou.
 Initial guess <Sx>= 0.0000 <Sy>= 0.0000 <Sz>= 0.5000 <S**2>= 0.7500 S= 0.5000
 SCF Done:  E(UHF) =  -908.369796227     A.U. after   19 cycles
            NFock= 19  Conv=0.41D-08     -V/T= 2.0002
 <Sx>= 0.0000 <Sy>= 0.0000 <Sz>= 0.5000 <S**2>= 0.7622 S= 0.5061
 <L.S>=  0.00000000000    
 Annihilation of the first spin contaminant:
 S**2 before annihilation     0.7622,   after     0.7500

 **********************************************************************

            Population analysis using the SCF Density.

 **********************************************************************

 Alpha  occ. eigenvalues --  -92.02608 -92.01248 -20.59611 -11.42241  -9.02840
 Alpha  occ. eigenvalues --   -9.01486  -6.72399  -6.70587  -6.70298  -6.69650
 Alpha  occ. eigenvalues --   -6.69564  -6.69299  -1.44324  -1.08997  -1.01612
 Alpha  occ. eigenvalues --   -0.76824  -0.67606  -0.64161  -0.60158  -0.56329
 Alpha  occ. eigenvalues --   -0.47748  -0.43912  -0.42833  -0.41302
 Alpha virt. eigenvalues --    0.03315   0.06657   0.07405   0.09046   0.09619
 Alpha virt. eigenvalues --    0.11249   0.12358   0.12996   0.13591   0.15181
 Alpha virt. eigenvalues --    0.15201   0.15734   0.16795   0.18819   0.24931
 Alpha virt. eigenvalues --    0.25653   0.26816   0.28219   0.29618   0.31228
 Alpha virt. eigenvalues --    0.31526   0.32497   0.34723   0.36631   0.40788
 Alpha virt. eigenvalues --    0.44261   0.44513   0.47120   0.50998   0.52248
 Alpha virt. eigenvalues --    0.52944   0.55202   0.59463   0.60514   0.61015
 Alpha virt. eigenvalues --    0.68878   0.70029   0.70088   0.76008   0.78017
 Alpha virt. eigenvalues --    0.84313   0.86455   0.86708   0.90048   0.92423
 Alpha virt. eigenvalues --    0.94079   0.96273   1.02855   1.04864   1.06334
 Alpha virt. eigenvalues --    1.10224   1.10847   1.12141   1.14066   1.14214
 Alpha virt. eigenvalues --    1.15445   1.21046   1.25455   1.25797   1.29910
 Alpha virt. eigenvalues --    1.32058   1.32682   1.36417   1.41382   1.43329
 Alpha virt. eigenvalues --    1.61275   1.69091   1.75418   1.75841   1.76098
 Alpha virt. eigenvalues --    1.84047   1.89465   1.94816   1.99142   2.19713
 Alpha virt. eigenvalues --    2.22674   2.31227   2.38380   2.46821   3.11934
 Alpha virt. eigenvalues --    3.71058   3.72255   3.73386   3.79598   4.04217
  Beta  occ. eigenvalues --  -92.01669 -92.01238 -20.59453 -11.42356  -9.01807
  Beta  occ. eigenvalues --   -9.01478  -6.70081  -6.69720  -6.69657  -6.69486
  Beta  occ. eigenvalues --   -6.69301  -6.68274  -1.43862  -1.06799  -0.96116
  Beta  occ. eigenvalues --   -0.75412  -0.66136  -0.62530  -0.60001  -0.54620
  Beta  occ. eigenvalues --   -0.42842  -0.41878  -0.39951
  Beta virt. eigenvalues --   -0.02324   0.03556   0.06846   0.07753   0.08949
  Beta virt. eigenvalues --    0.09899   0.11928   0.12460   0.13361   0.13668
  Beta virt. eigenvalues --    0.15203   0.15637   0.16213   0.17088   0.19530
  Beta virt. eigenvalues --    0.25489   0.26255   0.27442   0.29140   0.30150
  Beta virt. eigenvalues --    0.31261   0.32335   0.34266   0.37124   0.37550
  Beta virt. eigenvalues --    0.42862   0.44662   0.45701   0.49379   0.51094
  Beta virt. eigenvalues --    0.52540   0.53437   0.56122   0.59627   0.61624
  Beta virt. eigenvalues --    0.62022   0.69184   0.70132   0.72057   0.77028
  Beta virt. eigenvalues --    0.78361   0.85765   0.87150   0.87155   0.91308
  Beta virt. eigenvalues --    0.93026   0.95424   0.96363   1.04068   1.05707
  Beta virt. eigenvalues --    1.07010   1.13390   1.13397   1.14022   1.14370
  Beta virt. eigenvalues --    1.15957   1.18545   1.21873   1.25879   1.26378
  Beta virt. eigenvalues --    1.31815   1.32157   1.33163   1.36846   1.41575
  Beta virt. eigenvalues --    1.43624   1.62171   1.69427   1.75479   1.75850
  Beta virt. eigenvalues --    1.76262   1.84057   1.89560   1.94773   1.99421
  Beta virt. eigenvalues --    2.19951   2.22943   2.31349   2.38476   2.46971
  Beta virt. eigenvalues --    3.12092   3.71298   3.72527   3.73504   3.79907
  Beta virt. eigenvalues --    4.04368
          Condensed to atoms (all electrons):
          Atomic-Atomic Spin Densities.
 Mulliken charges and spin densities:
               1          2
     1  S    0.254096   1.086160
     2  C   -0.065630  -0.101905
     3  O   -0.580343   0.013144
     4  S    0.260427   0.005022
     5  H    0.131450  -0.002421
 Sum of Mulliken charges =  -0.00000   1.00000
 Mulliken charges and spin densities with hydrogens summed into heavy atoms:
               1          2
     1  S    0.254096   1.086160
     2  C   -0.065630  -0.101905
     3  O   -0.580343   0.013144
     4  S    0.391877   0.002601
 Electronic spatial extent (au):  <R**2>=            474.1635
 Charge=             -0.0000 electrons
 Dipole moment (field-independent basis, Debye):
    X=             -0.1306    Y=             -3.1270    Z=             -0.0000  Tot=              3.1297
                          Isotropic Fermi Contact Couplings
        Atom                 a.u.       MegaHertz       Gauss      10(-4) cm-1
     1  S(33)              0.21466      73.72921      26.30841      24.59342
     2  C(13)             -0.02180     -24.51216      -8.74655      -8.17638
     3  O(17)              0.02289     -13.87615      -4.95136      -4.62859
     4  S(33)             -0.01294      -4.44477      -1.58600      -1.48262
     5  H(1)               0.00100       4.48590       1.60068       1.49634
 --------------------------------------------------------
       Center         ----  Spin Dipole Couplings  ----
                      3XX-RR        3YY-RR        3ZZ-RR
 --------------------------------------------------------
     1   Atom       -0.537792      2.480639     -1.942847
     2   Atom        0.010918      0.006024     -0.016942
     3   Atom        0.065488      0.004593     -0.070081
     4   Atom        0.070080     -0.022940     -0.047140
     5   Atom        0.012597     -0.003809     -0.008788
 --------------------------------------------------------
                        XY            XZ            YZ
 --------------------------------------------------------
     1   Atom        2.641678      0.000002      0.000004
     2   Atom       -0.000901      0.000000      0.000000
     3   Atom       -0.094355     -0.000000      0.000000
     4   Atom       -0.062303      0.000000     -0.000000
     5   Atom        0.004654      0.000000      0.000000
 --------------------------------------------------------


 ---------------------------------------------------------------------------------
              Anisotropic Spin Dipole Couplings in Principal Axis System
 ---------------------------------------------------------------------------------

       Atom             a.u.   MegaHertz   Gauss  10(-4) cm-1        Axes

              Baa    -2.0710   -84.908   -30.297   -28.322  0.8649 -0.5020 -0.0000
     1 S(33)  Bbb    -1.9428   -79.655   -28.423   -26.570 -0.0000 -0.0000  1.0000
              Bcc     4.0138   164.563    58.720    54.892  0.5020  0.8649  0.0000
 
              Baa    -0.0169    -2.273    -0.811    -0.758 -0.0000 -0.0000  1.0000
     2 C(13)  Bbb     0.0059     0.787     0.281     0.262  0.1755  0.9845  0.0000
              Bcc     0.0111     1.487     0.530     0.496  0.9845 -0.1755  0.0000
 
              Baa    -0.0701     5.071     1.809     1.692 -0.0000 -0.0000  1.0000
     3 O(17)  Bbb    -0.0641     4.639     1.655     1.547  0.5886  0.8084  0.0000
              Bcc     0.1342    -9.710    -3.465    -3.239  0.8084 -0.5886 -0.0000
 
              Baa    -0.0542    -2.221    -0.793    -0.741  0.4482  0.8939 -0.0000
     4 S(33)  Bbb    -0.0471    -1.933    -0.690    -0.645  0.0000  0.0000  1.0000
              Bcc     0.1013     4.154     1.482     1.386  0.8939 -0.4482  0.0000
 
              Baa    -0.0088    -4.689    -1.673    -1.564 -0.0000 -0.0000  1.0000
     5 H(1)   Bbb    -0.0050    -2.688    -0.959    -0.896 -0.2552  0.9669  0.0000
              Bcc     0.0138     7.376     2.632     2.461  0.9669  0.2552  0.0000
 

 ---------------------------------------------------------------------------------

 NROrb=    109 NOA=    24 NOB=    23 NVA=    85 NVB=    86

 **** Warning!!: The largest alpha MO coefficient is  0.13595438D+02


 **** Warning!!: The largest beta MO coefficient is  0.13121155D+02

    12 initial guesses have been made.
 Iteration     1 Dimension    12 NMult     0 NNew     12
 Iteration     2 Dimension    24 NMult    12 NNew     12
 Iteration     3 Dimension    27 NMult    24 NNew      3
 Iteration     4 Dimension    30 NMult    27 NNew      3
 Iteration     5 Dimension    33 NMult    30 NNew      3
 ***********************************************************************
 Stability analysis using <AA,BB:AA,BB> singles matrix:
 ***********************************************************************
 Ground to excited state transition densities written to RWF  633

 Eigenvectors of the stability matrix:
 
 Excited state symmetry could not be determined.
 Eigenvector   1:  2.042-?Sym  Eigenvalue= 0.0118459  <S**2>=0.792
     19B -> 24B        0.12824
     22B -> 24B        0.31612
     23B -> 24B        0.88242
     23B -> 25B        0.12357
     23B -> 30B       -0.12382
 The wavefunction is stable under the perturbations considered.
 The wavefunction is already stable.

 **********************************************************************

            Population analysis using the SCF Density.

 **********************************************************************

 Alpha  occ. eigenvalues --  -92.02608 -92.01248 -20.59611 -11.42241  -9.02840
 Alpha  occ. eigenvalues --   -9.01486  -6.72399  -6.70587  -6.70298  -6.69650
 Alpha  occ. eigenvalues --   -6.69564  -6.69299  -1.44324  -1.08997  -1.01612
 Alpha  occ. eigenvalues --   -0.76824  -0.67606  -0.64161  -0.60158  -0.56329
 Alpha  occ. eigenvalues --   -0.47748  -0.43912  -0.42833  -0.41302
 Alpha virt. eigenvalues --    0.03315   0.06657   0.07405   0.09046   0.09619
 Alpha virt. eigenvalues --    0.11249   0.12358   0.12996   0.13591   0.15181
 Alpha virt. eigenvalues --    0.15201   0.15734   0.16795   0.18819   0.24931
 Alpha virt. eigenvalues --    0.25653   0.26816   0.28219   0.29618   0.31228
 Alpha virt. eigenvalues --    0.31526   0.32497   0.34723   0.36631   0.40788
 Alpha virt. eigenvalues --    0.44261   0.44513   0.47120   0.50998   0.52248
 Alpha virt. eigenvalues --    0.52944   0.55202   0.59463   0.60514   0.61015
 Alpha virt. eigenvalues --    0.68878   0.70029   0.70088   0.76008   0.78017
 Alpha virt. eigenvalues --    0.84313   0.86455   0.86708   0.90048   0.92423
 Alpha virt. eigenvalues --    0.94079   0.96273   1.02855   1.04864   1.06334
 Alpha virt. eigenvalues --    1.10224   1.10847   1.12141   1.14066   1.14214
 Alpha virt. eigenvalues --    1.15445   1.21046   1.25455   1.25797   1.29910
 Alpha virt. eigenvalues --    1.32058   1.32682   1.36417   1.41382   1.43329
 Alpha virt. eigenvalues --    1.61275   1.69091   1.75418   1.75841   1.76098
 Alpha virt. eigenvalues --    1.84047   1.89465   1.94816   1.99142   2.19713
 Alpha virt. eigenvalues --    2.22674   2.31227   2.38380   2.46821   3.11934
 Alpha virt. eigenvalues --    3.71058   3.72255   3.73386   3.79598   4.04217
  Beta  occ. eigenvalues --  -92.01669 -92.01238 -20.59453 -11.42356  -9.01807
  Beta  occ. eigenvalues --   -9.01478  -6.70081  -6.69720  -6.69657  -6.69486
  Beta  occ. eigenvalues --   -6.69301  -6.68274  -1.43862  -1.06799  -0.96116
  Beta  occ. eigenvalues --   -0.75412  -0.66136  -0.62530  -0.60001  -0.54620
  Beta  occ. eigenvalues --   -0.42842  -0.41878  -0.39951
  Beta virt. eigenvalues --   -0.02324   0.03556   0.06846   0.07753   0.08949
  Beta virt. eigenvalues --    0.09899   0.11928   0.12460   0.13361   0.13668
  Beta virt. eigenvalues --    0.15203   0.15637   0.16213   0.17088   0.19530
  Beta virt. eigenvalues --    0.25489   0.26255   0.27442   0.29140   0.30150
  Beta virt. eigenvalues --    0.31261   0.32335   0.34266   0.37124   0.37550
  Beta virt. eigenvalues --    0.42862   0.44662   0.45701   0.49379   0.51094
  Beta virt. eigenvalues --    0.52540   0.53437   0.56122   0.59627   0.61624
  Beta virt. eigenvalues --    0.62022   0.69184   0.70132   0.72057   0.77028
  Beta virt. eigenvalues --    0.78361   0.85765   0.87150   0.87155   0.91308
  Beta virt. eigenvalues --    0.93026   0.95424   0.96363   1.04068   1.05707
  Beta virt. eigenvalues --    1.07010   1.13390   1.13397   1.14022   1.14370
  Beta virt. eigenvalues --    1.15957   1.18545   1.21873   1.25879   1.26378
  Beta virt. eigenvalues --    1.31815   1.32157   1.33163   1.36846   1.41575
  Beta virt. eigenvalues --    1.43624   1.62171   1.69427   1.75479   1.75850
  Beta virt. eigenvalues --    1.76262   1.84057   1.89560   1.94773   1.99421
  Beta virt. eigenvalues --    2.19951   2.22943   2.31349   2.38476   2.46971
  Beta virt. eigenvalues --    3.12092   3.71298   3.72527   3.73504   3.79907
  Beta virt. eigenvalues --    4.04368
          Condensed to atoms (all electrons):
          Atomic-Atomic Spin Densities.
 Mulliken charges and spin densities:
               1          2
     1  S    0.254096   1.086160
     2  C   -0.065630  -0.101905
     3  O   -0.580343   0.013144
     4  S    0.260427   0.005022
     5  H    0.131450  -0.002421
 Sum of Mulliken charges =  -0.00000   1.00000
 Mulliken charges and spin densities with hydrogens summed into heavy atoms:
               1          2
     1  S    0.254096   1.086160
     2  C   -0.065630  -0.101905
     3  O   -0.580343   0.013144
     4  S    0.391877   0.002601
 Electronic spatial extent (au):  <R**2>=            474.1635
 Charge=             -0.0000 electrons
 Dipole moment (field-independent basis, Debye):
    X=             -0.1306    Y=             -3.1270    Z=             -0.0000  Tot=              3.1297
                          Isotropic Fermi Contact Couplings
        Atom                 a.u.       MegaHertz       Gauss      10(-4) cm-1
     1  S(33)              0.21466      73.72921      26.30841      24.59342
     2  C(13)             -0.02180     -24.51216      -8.74655      -8.17638
     3  O(17)              0.02289     -13.87615      -4.95136      -4.62859
     4  S(33)             -0.01294      -4.44477      -1.58600      -1.48262
     5  H(1)               0.00100       4.48590       1.60068       1.49634
 --------------------------------------------------------
       Center         ----  Spin Dipole Couplings  ----
                      3XX-RR        3YY-RR        3ZZ-RR
 --------------------------------------------------------
     1   Atom       -0.537792      2.480639     -1.942847
     2   Atom        0.010918      0.006024     -0.016942
     3   Atom        0.065488      0.004593     -0.070081
     4   Atom        0.070080     -0.022940     -0.047140
     5   Atom        0.012597     -0.003809     -0.008788
 --------------------------------------------------------
                        XY            XZ            YZ
 --------------------------------------------------------
     1   Atom        2.641678      0.000002      0.000004
     2   Atom       -0.000901      0.000000      0.000000
     3   Atom       -0.094355     -0.000000      0.000000
     4   Atom       -0.062303      0.000000     -0.000000
     5   Atom        0.004654      0.000000      0.000000
 --------------------------------------------------------


 ---------------------------------------------------------------------------------
              Anisotropic Spin Dipole Couplings in Principal Axis System
 ---------------------------------------------------------------------------------

       Atom             a.u.   MegaHertz   Gauss  10(-4) cm-1        Axes

              Baa    -2.0710   -84.908   -30.297   -28.322  0.8649 -0.5020 -0.0000
     1 S(33)  Bbb    -1.9428   -79.655   -28.423   -26.570 -0.0000 -0.0000  1.0000
              Bcc     4.0138   164.563    58.720    54.892  0.5020  0.8649  0.0000
 
              Baa    -0.0169    -2.273    -0.811    -0.758 -0.0000 -0.0000  1.0000
     2 C(13)  Bbb     0.0059     0.787     0.281     0.262  0.1755  0.9845  0.0000
              Bcc     0.0111     1.487     0.530     0.496  0.9845 -0.1755  0.0000
 
              Baa    -0.0701     5.071     1.809     1.692 -0.0000 -0.0000  1.0000
     3 O(17)  Bbb    -0.0641     4.639     1.655     1.547  0.5886  0.8084  0.0000
              Bcc     0.1342    -9.710    -3.465    -3.239  0.8084 -0.5886 -0.0000
 
              Baa    -0.0542    -2.221    -0.793    -0.741  0.4482  0.8939 -0.0000
     4 S(33)  Bbb    -0.0471    -1.933    -0.690    -0.645  0.0000  0.0000  1.0000
              Bcc     0.1013     4.154     1.482     1.386  0.8939 -0.4482  0.0000
 
              Baa    -0.0088    -4.689    -1.673    -1.564 -0.0000 -0.0000  1.0000
     5 H(1)   Bbb    -0.0050    -2.688    -0.959    -0.896 -0.2552  0.9669  0.0000
              Bcc     0.0138     7.376     2.632     2.461  0.9669  0.2552  0.0000
 

 ---------------------------------------------------------------------------------

 Unable to Open any file for archive entry.
 1\1\GINC-SE127\Stability\UHF\Aug-CC-pVDZ\C1H1O1S2\OHZDE\09-Apr-2025\0\
 \#t hf aug-cc-pvdz symm=none int=(grid=ultrafine) guess=(read,tcheck) 
 stable=opt\\title\\0,2\S,0,1.524609,-0.52551,0.\C,0,0.04726,0.443068,0
 .\O,0,0.152221,1.642143,0.000001\S,0,-1.550955,-0.360406,-0.000001\H,0
 ,-1.079781,-1.620891,-0.000002\\Version=ES64L-G16RevC.01\HF=-908.36979
 62\S2=0.762155\S2-1=0.\S2A=0.750042\RMSD=4.081e-09\Dipole=-0.0513858,-
 1.2302484,-0.000001\Quadrupole=1.5856035,-0.5440136,-1.04159,0.6966257
 ,0.0000015,0.0000013\PG=Unknown\\@
 The archive entry for this job was punched.


 WE HAVE LEFT UNDONE THOSE THINGS WHICH WE OUGHT TO HAVE DONE,
 AND WE HAVE DONE THOSE THINGS WHICH WE OUGHT NOT TO HAVE DONE.
                   BOOK OF COMMON PRAYER                      
 Job cpu time:       0 days  0 hours  0 minutes 40.5 seconds.
 Elapsed time:       0 days  0 hours  0 minutes  4.7 seconds.
 File lengths (MBytes):  RWF=    110 Int=      0 D2E=      0 Chk=      3 Scr=      1
 Normal termination of Gaussian 16 at Wed Apr  9 00:22:38 2025.
 Initial command:
 /arc/software/Gaussian/g16.c01/l1.exe "/tmp/slurm/4853129/Gau-3192072.inp" -scrdir="/tmp/slurm/4853129/"
 Entering Link 1 = /arc/software/Gaussian/g16.c01/l1.exe PID=   3192284.
  
 Copyright (c) 1988-2019, Gaussian, Inc.  All Rights Reserved.
  
 This is part of the Gaussian(R) 16 program.  It is based on
 the Gaussian(R) 09 system (copyright 2009, Gaussian, Inc.),
 the Gaussian(R) 03 system (copyright 2003, Gaussian, Inc.),
 the Gaussian(R) 98 system (copyright 1998, Gaussian, Inc.),
 the Gaussian(R) 94 system (copyright 1995, Gaussian, Inc.),
 the Gaussian 92(TM) system (copyright 1992, Gaussian, Inc.),
 the Gaussian 90(TM) system (copyright 1990, Gaussian, Inc.),
 the Gaussian 88(TM) system (copyright 1988, Gaussian, Inc.),
 the Gaussian 86(TM) system (copyright 1986, Carnegie Mellon
 University), and the Gaussian 82(TM) system (copyright 1983,
 Carnegie Mellon University). Gaussian is a federally registered
 trademark of Gaussian, Inc.
  
 This software contains proprietary and confidential information,
 including trade secrets, belonging to Gaussian, Inc.
  
 This software is provided under written license and may be
 used, copied, transmitted, or stored only in accord with that
 written license.
  
 The following legend is applicable only to US Government
 contracts under FAR:
  
                    RESTRICTED RIGHTS LEGEND
  
 Use, reproduction and disclosure by the US Government is
 subject to restrictions as set forth in subparagraphs (a)
 and (c) of the Commercial Computer Software - Restricted
 Rights clause in FAR 52.227-19.
  
 Gaussian, Inc.
 340 Quinnipiac St., Bldg. 40, Wallingford CT 06492
  
  
 ---------------------------------------------------------------
 Warning -- This program may not be used in any manner that
 competes with the business of Gaussian, Inc. or will provide
 assistance to any competitor of Gaussian, Inc.  The licensee
 of this program is prohibited from giving any competitor of
 Gaussian, Inc. access to this program.  By using this program,
 the user acknowledges that Gaussian, Inc. is engaged in the
 business of creating and licensing software in the field of
 computational chemistry and represents and warrants to the
 licensee that it is not a competitor of Gaussian, Inc. and that
 it will not use this program in any manner prohibited above.
 ---------------------------------------------------------------
  

 Cite this work as:
 Gaussian 16, Revision C.01,
 M. J. Frisch, G. W. Trucks, H. B. Schlegel, G. E. Scuseria, 
 M. A. Robb, J. R. Cheeseman, G. Scalmani, V. Barone, 
 G. A. Petersson, H. Nakatsuji, X. Li, M. Caricato, A. V. Marenich, 
 J. Bloino, B. G. Janesko, R. Gomperts, B. Mennucci, H. P. Hratchian, 
 J. V. Ortiz, A. F. Izmaylov, J. L. Sonnenberg, D. Williams-Young, 
 F. Ding, F. Lipparini, F. Egidi, J. Goings, B. Peng, A. Petrone, 
 T. Henderson, D. Ranasinghe, V. G. Zakrzewski, J. Gao, N. Rega, 
 G. Zheng, W. Liang, M. Hada, M. Ehara, K. Toyota, R. Fukuda, 
 J. Hasegawa, M. Ishida, T. Nakajima, Y. Honda, O. Kitao, H. Nakai, 
 T. Vreven, K. Throssell, J. A. Montgomery, Jr., J. E. Peralta, 
 F. Ogliaro, M. J. Bearpark, J. J. Heyd, E. N. Brothers, K. N. Kudin, 
 V. N. Staroverov, T. A. Keith, R. Kobayashi, J. Normand, 
 K. Raghavachari, A. P. Rendell, J. C. Burant, S. S. Iyengar, 
 J. Tomasi, M. Cossi, J. M. Millam, M. Klene, C. Adamo, R. Cammi, 
 J. W. Ochterski, R. L. Martin, K. Morokuma, O. Farkas, 
 J. B. Foresman, and D. J. Fox, Gaussian, Inc., Wallingford CT, 2019.
 
 ******************************************
 Gaussian 16:  ES64L-G16RevC.01  3-Jul-2019
                 9-Apr-2025 
 ******************************************
 %nprocs=16
 Will use up to   16 processors via shared memory.
 %mem=30GB
 %chk=BDE49_nonexpt_2664_mol2.chk
 ----------------------------------------------------------------------
 #t hf aug-cc-pvdz iop(5/13=1,5/36=2,99/5=2) pseudo=read geom=check gue
 ss=(read,tcheck) scf=(maxcycle=1)
 ----------------------------------------------------------------------
 -----
 title
 -----
 Structure from the checkpoint file:  "BDE49_nonexpt_2664_mol2.chk"
 Charge =  0 Multiplicity = 2
 Z-Matrix found in chk file.
 S,0,1.524609,-0.52551,0.
 C,0,0.04726,0.443068,0.
 O,0,0.152221,1.642143,0.000001
 S,0,-1.550955,-0.360406,-0.000001
 H,0,-1.079781,-1.620891,-0.000002
 Recover connectivity data from disk.
                    Distance matrix (angstroms):
                    1          2          3          4          5
     1  S    0.000000
     2  C    1.766551   0.000000
     3  O    2.565574   1.203660   0.000000
     4  S    3.079992   1.788816   2.628880   0.000000
     5  H    2.825368   2.351627   3.487868   1.345670   0.000000
 Framework group  C1[X(CHOS2)]
 Deg. of freedom     9
                         Standard orientation:                         
 ---------------------------------------------------------------------
 Center     Atomic      Atomic             Coordinates (Angstroms)
 Number     Number       Type             X           Y           Z
 ---------------------------------------------------------------------
      1         16           0       -1.524609   -0.525511   -0.000000
      2          6           0       -0.047260    0.443068   -0.000000
      3          8           0       -0.152221    1.642143   -0.000001
      4         16           0        1.550955   -0.360406    0.000001
      5          1           0        1.079782   -1.620891    0.000002
 ---------------------------------------------------------------------
 Rotational constants (GHZ):           8.2772252           3.3070644           2.3629690
 ======================================================================================================
                                       Pseudopotential Parameters
 ======================================================================================================
  Center     Atomic      Valence      Angular      Power
  Number     Number     Electrons     Momentum     of R      Exponent        Coefficient   SO-Coeffient
 ======================================================================================================
    1         16           16
                                      G and up 
                                                     0        0.0000010       -0.00031824    0.00000000
                                                     2        0.1200000       -0.02709645    0.00000000
                                                     2        0.1400000        0.07756871    0.00000000
                                                     2        0.1800000       -0.09276244    0.00000000
                                                     2        0.2400000        0.04926396    0.00000000
                                                     2        0.4000000        0.19256092    0.00000000
                                                     2        0.6000000       -0.68044142    0.00000000
                                                     2        1.2000000        2.88179630    0.00000000
                                      S - G
                                                     0        0.0000010       -0.00682297    0.00000000
                                                     2        0.1200000        0.09894847    0.00000000
                                                     2        0.2400000       -0.09649386    0.00000000
                                                     2        0.5000000       -0.86533519    0.00000000
                                      P - G
                                                     0        0.0000010       -0.03724640    0.00000000
                                                     2        0.1200000        0.13565737    0.00000000
                                                     2        0.1600000       -0.58061535    0.00000000
                                                     2        0.2800000        1.15300814    0.00000000
                                                     2        0.6000000       -1.81693648    0.00000000
                                      D - G
                                                     0        0.0000010       -0.04698793    0.00000000
                                                     2        0.1200000        0.09075241    0.00000000
                                                     2        0.2000000       -0.23702631    0.00000000
                                                     2        0.4000000        0.07730186    0.00000000
                                      F - G
                                                     0        0.0000010        0.08145595    0.00000000
                                                     2        0.1200000       -0.08234030    0.00000000
                                                     2        0.2200000        0.18834854    0.00000000
                                                     2        0.4000000       -0.20344406    0.00000000
    2          6            6
                                      G and up 
                                                     0        0.0000010       -0.00007288    0.00000000
                                                     2        0.1200000        0.10466671    0.00000000
                                                     2        0.1400000       -0.65716157    0.00000000
                                                     2        0.1600000        1.18890794    0.00000000
                                                     2        0.2000000       -1.25772850    0.00000000
                                                     2        0.2600000        1.01188378    0.00000000
                                                     2        0.4000000       -1.09380874    0.00000000
                                                     2        0.5000000        0.96944888    0.00000000
                                                     2        1.0000000       -0.79256938    0.00000000
                                                     2        3.0000000        1.06443276    0.00000000
                                      S - G
                                                     0        0.0000010       -0.00635295    0.00000000
                                                     2        0.1200000        0.16918955    0.00000000
                                                     2        0.1600000       -0.38862576    0.00000000
                                                     2        0.2800000        0.25638263    0.00000000
                                                     2        0.5000000        0.29628419    0.00000000
                                                     2        0.9000000       -0.28791512    0.00000000
                                      P - G
                                                     0        0.0000010       -0.04756931    0.00000000
                                                     2        0.1200000        0.28430375    0.00000000
                                                     2        0.1600000       -0.69640032    0.00000000
                                                     2        0.2600000        1.13005668    0.00000000
                                                     2        0.4000000       -1.31433324    0.00000000
                                                     2        0.7000000        0.91526469    0.00000000
                                      D - G
                                                     0        0.0000010       -0.11496411    0.00000000
                                                     2        0.1200000        0.16620776    0.00000000
                                                     2        0.1800000       -0.30959819    0.00000000
                                                     2        0.3000000        0.16621458    0.00000000
                                                     2        0.6000000        0.27350556    0.00000000
                                      F - G
                                                     0        0.0000010        0.12037550    0.00000000
                                                     2        0.1200000       -0.48737077    0.00000000
                                                     2        0.1400000        0.58315350    0.00000000
                                                     2        0.3000000        0.00005188    0.00000000
                                                     2        0.5000000       -1.16063549    0.00000000
                                                     2        0.8000000        2.09053308    0.00000000
    3          8            8
                                      G and up 
                                                     0        0.0000010        0.00049668    0.00000000
                                                     2        0.1200000       -0.01803391    0.00000000
                                                     2        0.1400000        0.04014195    0.00000000
                                                     2        0.2000000       -0.02692147    0.00000000
                                                     2        0.2800000       -0.04241843    0.00000000
                                                     2        0.4000000        0.15412145    0.00000000
                                                     2        0.7000000       -0.40587006    0.00000000
                                                     2        1.1000000        1.75666647    0.00000000
                                      S - G
                                                     0        0.0000010       -0.01088195    0.00000000
                                                     2        0.1200000        0.09867335    0.00000000
                                                     2        0.2400000       -0.08484177    0.00000000
                                                     2        0.6000000       -1.39011554    0.00000000
                                                     2        2.5000000        1.36225910    0.00000000
                                      P - G
                                                     0        0.0000010        0.05874028    0.00000000
                                                     2        0.1200000       -0.11700340    0.00000000
                                                     2        0.1600000        0.08847775    0.00000000
                                                     2        0.3000000        0.04709907    0.00000000
                                                     2        1.2000000       -1.80388338    0.00000000
                                      D - G
                                                     0        0.0000010       -0.00541262    0.00000000
                                                     2        0.1200000       -0.26547906    0.00000000
                                                     2        0.1600000        1.04289661    0.00000000
                                                     2        0.2400000       -1.92800913    0.00000000
                                                     2        0.4000000        2.26691633    0.00000000
                                                     2        0.7000000       -1.97391482    0.00000000
                                      F - G
                                                     0        0.0000010       -0.02604870    0.00000000
                                                     2        0.1200000        0.37362552    0.00000000
                                                     2        0.1600000       -1.43526367    0.00000000
                                                     2        0.2200000        1.76778079    0.00000000
                                                     2        0.5000000       -1.90846303    0.00000000
    4         16           16
                                      G and up 
                                                     0        0.0000010       -0.00031824    0.00000000
                                                     2        0.1200000       -0.02709645    0.00000000
                                                     2        0.1400000        0.07756871    0.00000000
                                                     2        0.1800000       -0.09276244    0.00000000
                                                     2        0.2400000        0.04926396    0.00000000
                                                     2        0.4000000        0.19256092    0.00000000
                                                     2        0.6000000       -0.68044142    0.00000000
                                                     2        1.2000000        2.88179630    0.00000000
                                      S - G
                                                     0        0.0000010       -0.00682297    0.00000000
                                                     2        0.1200000        0.09894847    0.00000000
                                                     2        0.2400000       -0.09649386    0.00000000
                                                     2        0.5000000       -0.86533519    0.00000000
                                      P - G
                                                     0        0.0000010       -0.03724640    0.00000000
                                                     2        0.1200000        0.13565737    0.00000000
                                                     2        0.1600000       -0.58061535    0.00000000
                                                     2        0.2800000        1.15300814    0.00000000
                                                     2        0.6000000       -1.81693648    0.00000000
                                      D - G
                                                     0        0.0000010       -0.04698793    0.00000000
                                                     2        0.1200000        0.09075241    0.00000000
                                                     2        0.2000000       -0.23702631    0.00000000
                                                     2        0.4000000        0.07730186    0.00000000
                                      F - G
                                                     0        0.0000010        0.08145595    0.00000000
                                                     2        0.1200000       -0.08234030    0.00000000
                                                     2        0.2200000        0.18834854    0.00000000
                                                     2        0.4000000       -0.20344406    0.00000000
    5          1            1
                                      F and up 
                                                     0        0.0000010       -0.00007675    0.00000000
                                                     2        0.1200000        0.05352699    0.00000000
                                                     2        0.1400000       -0.25123645    0.00000000
                                                     2        0.1600000        0.32188106    0.00000000
                                                     2        0.2200000       -0.25206857    0.00000000
                                                     2        0.3000000        0.19290477    0.00000000
                                                     2        0.5000000       -0.10129770    0.00000000
                                                     2        0.9000000        0.00314995    0.00000000
                                                     2        1.5000000        0.18401192    0.00000000
                                      S - F
                                                     0        0.0000010        0.08065976    0.00000000
                                                     2        0.1200000       -0.09231673    0.00000000
                                                     2        0.1600000       -0.03278082    0.00000000
                                                     2        0.2800000        0.38423402    0.00000000
                                                     2        0.6000000       -1.09357590    0.00000000
                                                     2        1.1000000        1.53099489    0.00000000
                                                     2        3.0000000       -2.63300202    0.00000000
                                      P - F
                                                     0        0.0000010       -0.11638665    0.00000000
                                                     2        0.1200000        0.35468655    0.00000000
                                                     2        0.1600000       -0.59160923    0.00000000
                                                     2        0.3000000        0.49390547    0.00000000
                                                     2        0.6000000       -0.37949835    0.00000000
                                                     2        1.6000000        0.89304688    0.00000000
                                      D - F
                                                     0        0.0000010        0.05443663    0.00000000
                                                     2        0.1200000       -0.29679479    0.00000000
                                                     2        0.1400000        0.36849872    0.00000000
                                                     2        0.2400000        0.02793449    0.00000000
                                                     2        0.4000000       -0.46312857    0.00000000
                                                     2        0.7000000        0.97587598    0.00000000
                                                     2        1.5000000       -2.43431102    0.00000000
 ======================================================================================================
   109 basis functions,   259 primitive gaussians,   117 cartesian basis functions
    24 alpha electrons       23 beta electrons
       nuclear repulsion energy       186.2623268936 Hartrees.
 NAtoms=    5 NActive=    5 NUniq=    5 SFac= 1.00D+00 NAtFMM=   60 NAOKFM=F Big=F
   1 Symmetry operations used in ECPInt.
 ECPInt:  NShTT=    1035 NPrTT=   10067 LenC2=    1033 LenP2D=    7138.
 LDataN:  DoStor=T MaxTD1= 6 Len=  172
 Initial guess from the checkpoint file:  "BDE49_nonexpt_2664_mol2.chk"
 B after Tr=     0.000000   -0.000000   -0.000000
         Rot=    0.000000   -0.000000    1.000000   -0.000000 Ang=-180.00 deg.
 Initial guess <Sx>= 0.0000 <Sy>= 0.0000 <Sz>= 0.5000 <S**2>= 0.7622 S= 0.5061
 >>>>>>>>>> Convergence criterion not met.
 SCF Done:  E(UHF) =  -908.586769514     A.U. after    2 cycles
            NFock=  1  Conv=0.65D-02     -V/T= 2.0022
 <Sx>= 0.0000 <Sy>= 0.0000 <Sz>= 0.5000 <S**2>= 0.7614 S= 0.5057
 <L.S>=  0.00000000000    
 Annihilation of the first spin contaminant:
 S**2 before annihilation     0.7614,   after     0.7500

 **********************************************************************

            Population analysis using the SCF Density.

 **********************************************************************

 Orbital symmetries:
 Alpha Orbitals:
       Occupied  (A) (A) (A) (A) (A) (A) (A) (A) (A) (A) (A) (A)
                 (A) (A) (A) (A) (A) (A) (A) (A) (A) (A) (A) (A)
       Virtual   (A) (A) (A) (A) (A) (A) (A) (A) (A) (A) (A) (A)
                 (A) (A) (A) (A) (A) (A) (A) (A) (A) (A) (A) (A)
                 (A) (A) (A) (A) (A) (A) (A) (A) (A) (A) (A) (A)
                 (A) (A) (A) (A) (A) (A) (A) (A) (A) (A) (A) (A)
                 (A) (A) (A) (A) (A) (A) (A) (A) (A) (A) (A) (A)
                 (A) (A) (A) (A) (A) (A) (A) (A) (A) (A) (A) (A)
                 (A) (A) (A) (A) (A) (A) (A) (A) (A) (A) (A) (A)
                 (A)
 Beta  Orbitals:
       Occupied  (A) (A) (A) (A) (A) (A) (A) (A) (A) (A) (A) (A)
                 (A) (A) (A) (A) (A) (A) (A) (A) (A) (A) (A)
       Virtual   (A) (A) (A) (A) (A) (A) (A) (A) (A) (A) (A) (A)
                 (A) (A) (A) (A) (A) (A) (A) (A) (A) (A) (A) (A)
                 (A) (A) (A) (A) (A) (A) (A) (A) (A) (A) (A) (A)
                 (A) (A) (A) (A) (A) (A) (A) (A) (A) (A) (A) (A)
                 (A) (A) (A) (A) (A) (A) (A) (A) (A) (A) (A) (A)
                 (A) (A) (A) (A) (A) (A) (A) (A) (A) (A) (A) (A)
                 (A) (A) (A) (A) (A) (A) (A) (A) (A) (A) (A) (A)
                 (A) (A)
 The electronic state is 2-A.
 Alpha  occ. eigenvalues --  -94.01917 -94.00542 -20.57428 -11.42308  -8.30095
 Alpha  occ. eigenvalues --   -8.28698  -6.29266  -6.27473  -6.27154  -6.26510
 Alpha  occ. eigenvalues --   -6.26408  -6.26130  -1.52036  -1.12444  -1.05305
 Alpha  occ. eigenvalues --   -0.78011  -0.68362  -0.64902  -0.60515  -0.57079
 Alpha  occ. eigenvalues --   -0.48409  -0.43768  -0.43251  -0.42040
 Alpha virt. eigenvalues --    0.03417   0.06506   0.07032   0.08730   0.09610
 Alpha virt. eigenvalues --    0.10926   0.12006   0.12779   0.13232   0.14997
 Alpha virt. eigenvalues --    0.15142   0.15529   0.16774   0.18908   0.24889
 Alpha virt. eigenvalues --    0.25698   0.26508   0.27842   0.29483   0.31050
 Alpha virt. eigenvalues --    0.31072   0.32433   0.34138   0.36724   0.40545
 Alpha virt. eigenvalues --    0.43819   0.44032   0.46816   0.50821   0.52091
 Alpha virt. eigenvalues --    0.53305   0.55309   0.59658   0.60785   0.61357
 Alpha virt. eigenvalues --    0.68967   0.70114   0.70682   0.76403   0.78998
 Alpha virt. eigenvalues --    0.85684   0.86837   0.87904   0.91034   0.93505
 Alpha virt. eigenvalues --    0.95970   0.97423   1.04278   1.08862   1.09482
 Alpha virt. eigenvalues --    1.14485   1.16277   1.17352   1.19346   1.20077
 Alpha virt. eigenvalues --    1.20551   1.26773   1.27967   1.30196   1.33517
 Alpha virt. eigenvalues --    1.34251   1.37554   1.39164   1.43322   1.46620
 Alpha virt. eigenvalues --    1.63256   1.70413   1.77090   1.77104   1.79201
 Alpha virt. eigenvalues --    1.87528   1.92983   1.94218   2.03021   2.20583
 Alpha virt. eigenvalues --    2.25944   2.32136   2.42497   2.49180   3.14574
 Alpha virt. eigenvalues --    3.81500   3.82610   3.83928   3.90108   4.14847
  Beta  occ. eigenvalues --  -94.00990 -94.00532 -20.57272 -11.42424  -8.29030
  Beta  occ. eigenvalues --   -8.28689  -6.26965  -6.26574  -6.26517  -6.26330
  Beta  occ. eigenvalues --   -6.26132  -6.25153  -1.51603  -1.10255  -0.99616
  Beta  occ. eigenvalues --   -0.76641  -0.66835  -0.63436  -0.60347  -0.55317
  Beta  occ. eigenvalues --   -0.42765  -0.42310  -0.40714
  Beta virt. eigenvalues --   -0.03181   0.03664   0.06727   0.07384   0.08635
  Beta virt. eigenvalues --    0.09839   0.11634   0.12112   0.13164   0.13308
  Beta virt. eigenvalues --    0.15021   0.15602   0.15933   0.17022   0.19606
  Beta virt. eigenvalues --    0.25619   0.26158   0.27142   0.28654   0.30030
  Beta virt. eigenvalues --    0.31102   0.32114   0.33920   0.36453   0.37768
  Beta virt. eigenvalues --    0.42389   0.44214   0.45179   0.49082   0.50915
  Beta virt. eigenvalues --    0.52362   0.53729   0.56153   0.59843   0.61921
  Beta virt. eigenvalues --    0.62272   0.69270   0.70215   0.72626   0.77357
  Beta virt. eigenvalues --    0.79340   0.87025   0.87742   0.88369   0.92355
  Beta virt. eigenvalues --    0.94080   0.97235   0.97514   1.05637   1.09460
  Beta virt. eigenvalues --    1.10170   1.16280   1.19122   1.19222   1.19643
  Beta virt. eigenvalues --    1.22152   1.24295   1.27841   1.28198   1.30739
  Beta virt. eigenvalues --    1.33637   1.36639   1.38148   1.39699   1.43531
  Beta virt. eigenvalues --    1.47024   1.64210   1.70682   1.77135   1.77300
  Beta virt. eigenvalues --    1.79262   1.87521   1.93066   1.94205   2.03328
  Beta virt. eigenvalues --    2.20858   2.26241   2.32261   2.42616   2.49302
  Beta virt. eigenvalues --    3.14750   3.81743   3.82881   3.84049   3.90421
  Beta virt. eigenvalues --    4.15004
          Condensed to atoms (all electrons):
          Atomic-Atomic Spin Densities.
 Mulliken charges and spin densities:
               1          2
     1  S    0.337724   1.090187
     2  C    0.117827  -0.102259
     3  O   -0.919085   0.010937
     4  S    0.094728   0.004284
     5  H    0.368806  -0.003150
 Sum of Mulliken charges =  -0.00000   1.00000
 Mulliken charges and spin densities with hydrogens summed into heavy atoms:
               1          2
     1  S    0.337724   1.090187
     2  C    0.117827  -0.102259
     3  O   -0.919085   0.010937
     4  S    0.463534   0.001134
 Electronic spatial extent (au):  <R**2>=            474.5833
 Charge=             -0.0000 electrons
 Dipole moment (field-independent basis, Debye):
    X=              0.1126    Y=             -2.9517    Z=              0.0000  Tot=              2.9538
                          Isotropic Fermi Contact Couplings
        Atom                 a.u.       MegaHertz       Gauss      10(-4) cm-1
     1  S(33)              0.20534      70.52993      25.16683      23.52625
     2  C(13)             -0.02090     -23.49095      -8.38215      -7.83574
     3  O(17)              0.02006     -12.16165      -4.33958      -4.05669
     4  S(33)             -0.01239      -4.25652      -1.51883      -1.41982
     5  H(1)               0.00101       4.49697       1.60463       1.50003
 --------------------------------------------------------
       Center         ----  Spin Dipole Couplings  ----
                      3XX-RR        3YY-RR        3ZZ-RR
 --------------------------------------------------------
     1   Atom       -0.561430      2.541888     -1.980458
     2   Atom        0.011084      0.006348     -0.017432
     3   Atom        0.068116      0.003422     -0.071539
     4   Atom        0.071891     -0.023268     -0.048623
     5   Atom        0.012575     -0.003828     -0.008747
 --------------------------------------------------------
                        XY            XZ            YZ
 --------------------------------------------------------
     1   Atom       -2.686477      0.000002     -0.000004
     2   Atom        0.001209      0.000000     -0.000000
     3   Atom        0.095718     -0.000000     -0.000000
     4   Atom        0.064320      0.000000      0.000000
     5   Atom       -0.004616      0.000000     -0.000000
 --------------------------------------------------------


 ---------------------------------------------------------------------------------
              Anisotropic Spin Dipole Couplings in Principal Axis System
 ---------------------------------------------------------------------------------

       Atom             a.u.   MegaHertz   Gauss  10(-4) cm-1        Axes

              Baa    -2.1122   -86.597   -30.900   -28.885  0.8661  0.4999 -0.0000
     1 S(33)  Bbb    -1.9805   -81.197   -28.973   -27.084 -0.0000  0.0000  1.0000
              Bcc     4.0926   167.793    59.873    55.970 -0.4999  0.8661 -0.0000
 
              Baa    -0.0174    -2.339    -0.835    -0.780 -0.0000  0.0000  1.0000
     2 C(13)  Bbb     0.0061     0.813     0.290     0.271 -0.2339  0.9723 -0.0000
              Bcc     0.0114     1.526     0.545     0.509  0.9723  0.2339  0.0000
 
              Baa    -0.0715     5.176     1.847     1.727 -0.0000  0.0000  1.0000
     3 O(17)  Bbb    -0.0653     4.723     1.685     1.575 -0.5830  0.8125 -0.0000
              Bcc     0.1368    -9.899    -3.532    -3.302  0.8125  0.5830 -0.0000
 
              Baa    -0.0557    -2.283    -0.815    -0.762 -0.4502  0.8929  0.0000
     4 S(33)  Bbb    -0.0486    -1.994    -0.711    -0.665  0.0000 -0.0000  1.0000
              Bcc     0.1043     4.277     1.526     1.427  0.8929  0.4502  0.0000
 
              Baa    -0.0087    -4.667    -1.665    -1.557 -0.0000  0.0000  1.0000
     5 H(1)   Bbb    -0.0050    -2.688    -0.959    -0.897  0.2535  0.9673 -0.0000
              Bcc     0.0138     7.355     2.624     2.453  0.9673 -0.2535  0.0000
 

 ---------------------------------------------------------------------------------


 Test job not archived.
 1\1\GINC-SE127\SP\UHF\Aug-CC-pVDZ\C1H1O1S2(2)\OHZDE\09-Apr-2025\0\\#t 
 hf aug-cc-pvdz iop(5/13=1,5/36=2,99/5=2) pseudo=read geom=check guess=
 (read,tcheck) scf=(maxcycle=1)\\title\\0,2\S,0,1.524609,-0.52551,0.\C,
 0,0.04726,0.443068,0.\O,0,0.152221,1.642143,0.000001\S,0,-1.550955,-0.
 360406,-0.000001\H,0,-1.079781,-1.620891,-0.000002\\Version=ES64L-G16R
 evC.01\State=2-A\HF=-908.5867695\S2=0.761415\S2-1=0.\S2A=0.750039\RMSD
 =6.503e-03\Dipole=-0.0443159,-1.1612734,-0.0000009\Quadrupole=1.521599
 3,-0.2690262,-1.2525731,0.7380262,0.0000016,0.0000011\PG=C01 [X(C1H1O1
 S2)]\\@


 IF IT'S NOT TRUE, IT'S WELL INVENTED -- DANTE
 Job cpu time:       0 days  0 hours  0 minutes 19.1 seconds.
 Elapsed time:       0 days  0 hours  0 minutes  2.1 seconds.
 File lengths (MBytes):  RWF=      6 Int=      0 D2E=      0 Chk=      3 Scr=      1
 Normal termination of Gaussian 16 at Wed Apr  9 00:22:40 2025.
