 Entering Gaussian System, Link 0=g16
 Input=BDE49_nonexpt_2566_mol2.gjf
 Output=BDE49_nonexpt_2566_mol2.log
 Initial command:
 /arc/software/Gaussian/g16.c01/l1.exe "/tmp/slurm/4852751/Gau-1012147.inp" -scrdir="/tmp/slurm/4852751/"
 Entering Link 1 = /arc/software/Gaussian/g16.c01/l1.exe PID=   1012148.
  
 Copyright (c) 1988-2019, Gaussian, Inc.  All Rights Reserved.
  
 This is part of the Gaussian(R) 16 program.  It is based on
 the Gaussian(R) 09 system (copyright 2009, Gaussian, Inc.),
 the Gaussian(R) 03 system (copyright 2003, Gaussian, Inc.),
 the Gaussian(R) 98 system (copyright 1998, Gaussian, Inc.),
 the Gaussian(R) 94 system (copyright 1995, Gaussian, Inc.),
 the Gaussian 92(TM) system (copyright 1992, Gaussian, Inc.),
 the Gaussian 90(TM) system (copyright 1990, Gaussian, Inc.),
 the Gaussian 88(TM) system (copyright 1988, Gaussian, Inc.),
 the Gaussian 86(TM) system (copyright 1986, Carnegie Mellon
 University), and the Gaussian 82(TM) system (copyright 1983,
 Carnegie Mellon University). Gaussian is a federally registered
 trademark of Gaussian, Inc.
  
 This software contains proprietary and confidential information,
 including trade secrets, belonging to Gaussian, Inc.
  
 This software is provided under written license and may be
 used, copied, transmitted, or stored only in accord with that
 written license.
  
 The following legend is applicable only to US Government
 contracts under FAR:
  
                    RESTRICTED RIGHTS LEGEND
  
 Use, reproduction and disclosure by the US Government is
 subject to restrictions as set forth in subparagraphs (a)
 and (c) of the Commercial Computer Software - Restricted
 Rights clause in FAR 52.227-19.
  
 Gaussian, Inc.
 340 Quinnipiac St., Bldg. 40, Wallingford CT 06492
  
  
 ---------------------------------------------------------------
 Warning -- This program may not be used in any manner that
 competes with the business of Gaussian, Inc. or will provide
 assistance to any competitor of Gaussian, Inc.  The licensee
 of this program is prohibited from giving any competitor of
 Gaussian, Inc. access to this program.  By using this program,
 the user acknowledges that Gaussian, Inc. is engaged in the
 business of creating and licensing software in the field of
 computational chemistry and represents and warrants to the
 licensee that it is not a competitor of Gaussian, Inc. and that
 it will not use this program in any manner prohibited above.
 ---------------------------------------------------------------
  

 Cite this work as:
 Gaussian 16, Revision C.01,
 M. J. Frisch, G. W. Trucks, H. B. Schlegel, G. E. Scuseria, 
 M. A. Robb, J. R. Cheeseman, G. Scalmani, V. Barone, 
 G. A. Petersson, H. Nakatsuji, X. Li, M. Caricato, A. V. Marenich, 
 J. Bloino, B. G. Janesko, R. Gomperts, B. Mennucci, H. P. Hratchian, 
 J. V. Ortiz, A. F. Izmaylov, J. L. Sonnenberg, D. Williams-Young, 
 F. Ding, F. Lipparini, F. Egidi, J. Goings, B. Peng, A. Petrone, 
 T. Henderson, D. Ranasinghe, V. G. Zakrzewski, J. Gao, N. Rega, 
 G. Zheng, W. Liang, M. Hada, M. Ehara, K. Toyota, R. Fukuda, 
 J. Hasegawa, M. Ishida, T. Nakajima, Y. Honda, O. Kitao, H. Nakai, 
 T. Vreven, K. Throssell, J. A. Montgomery, Jr., J. E. Peralta, 
 F. Ogliaro, M. J. Bearpark, J. J. Heyd, E. N. Brothers, K. N. Kudin, 
 V. N. Staroverov, T. A. Keith, R. Kobayashi, J. Normand, 
 K. Raghavachari, A. P. Rendell, J. C. Burant, S. S. Iyengar, 
 J. Tomasi, M. Cossi, J. M. Millam, M. Klene, C. Adamo, R. Cammi, 
 J. W. Ochterski, R. L. Martin, K. Morokuma, O. Farkas, 
 J. B. Foresman, and D. J. Fox, Gaussian, Inc., Wallingford CT, 2019.
 
 ******************************************
 Gaussian 16:  ES64L-G16RevC.01  3-Jul-2019
                 9-Apr-2025 
 ******************************************
 %nprocs=16
 Will use up to   16 processors via shared memory.
 %mem=30GB
 %chk=BDE49_nonexpt_2566_mol2.chk
 ----------------------------------------------------------------------
 #t hf aug-cc-pvdz symm=none int=(grid=ultrafine) guess=(read,tcheck) s
 table=opt
 ----------------------------------------------------------------------
 -----
 title
 -----
 Symbolic Z-matrix:
 Charge =  0 Multiplicity = 2
 S                    -1.85509   0.36331  -0.00004 
 C                    -0.30872  -0.47682   0.00005 
 O                    -0.45688  -1.69797  -0.00003 
 N                     0.87947   0.16435   0.00003 
 C                     1.00098   1.61027   0.00002 
 H                     0.01027   2.06546  0. 
 H                     1.53896   1.9506   -0.89068 
 H                     1.53892   1.95061   0.89074 
 C                     2.11176  -0.61625   0.00002 
 H                     1.85548  -1.67352   0.00002 
 H                     2.70626  -0.38801   0.89024 
 H                     2.70625  -0.388    -0.89021 
 
                    Distance matrix (angstroms):
                    1          2          3          4          5
     1  S    0.000000
     2  C    1.759853   0.000000
     3  O    2.490763   1.230113   0.000000
     4  N    2.741791   1.350146   2.292180   0.000000
     5  C    3.116414   2.463986   3.615219   1.451011   0.000000
     6  H    2.525252   2.562211   3.792318   2.090387   1.090275
     7  H    3.851270   3.177991   4.253078   2.102127   1.094801
     8  H    3.851272   3.177967   4.253094   2.102127   1.094801
     9  C    4.086009   2.424493   2.787118   1.458726   2.488218
    10  H    4.232854   2.473029   2.312492   2.080955   3.393145
    11  H    4.707758   3.144903   3.537517   2.105881   2.773729
    12  H    4.707730   3.144914   3.537488   2.105883   2.773726
                    6          7          8          9         10
     6  H    0.000000
     7  H    1.772956   0.000000
     8  H    1.772956   1.781416   0.000000
     9  C    3.407028   2.776717   2.776740   0.000000
    10  H    4.169505   3.745362   3.745379   1.087883   0.000000
    11  H    3.752383   3.162805   2.613768   1.094542   1.780127
    12  H    3.752367   2.613738   3.162837   1.094543   1.780128
                   11         12
    11  H    0.000000
    12  H    1.780455   0.000000
 Symmetry turned off by external request.
 Rotational constants (GHZ):           4.7109809           2.3387492           1.5943906
   196 basis functions,   362 primitive gaussians,   208 cartesian basis functions
    28 alpha electrons       27 beta electrons
       nuclear repulsion energy       291.2947358583 Hartrees.
 NAtoms=   12 NActive=   12 NUniq=   12 SFac= 1.00D+00 NAtFMM=   60 NAOKFM=F Big=F
 ExpMin= 2.97D-02 ExpMax= 1.11D+05 ExpMxC= 1.07D+03 IAcc=3 IRadAn=         5 AccDes= 0.00D+00
 Harris functional with IExCor=  205 and IRadAn=       5 diagonalized for initial guess.
 HarFok:  IExCor=  205 AccDes= 0.00D+00 IRadAn=         5 IDoV= 1 UseB2=F ITyADJ=14
 ICtDFT=  3500011 ScaDFX=  1.000000  1.000000  1.000000  1.000000
 FoFCou: FMM=F IPFlag=           0 FMFlag=      100000 FMFlg1=           0
         NFxFlg=           0 DoJE=T BraDBF=F KetDBF=T FulRan=T
         wScrn=  0.000000 ICntrl=       500 IOpCl=  0 I1Cent=   200000004 NGrid=           0
         NMat0=    1 NMatS0=      1 NMatT0=    0 NMatD0=    1 NMtDS0=    0 NMtDT0=    0
 Symmetry not used in FoFCou.
 Initial guess <Sx>= 0.0000 <Sy>= 0.0000 <Sz>= 0.5000 <S**2>= 0.7500 S= 0.5000
 SCF Done:  E(UHF) =  -643.954518876     A.U. after   19 cycles
            NFock= 19  Conv=0.50D-08     -V/T= 2.0006
 <Sx>= 0.0000 <Sy>= 0.0000 <Sz>= 0.5000 <S**2>= 0.7627 S= 0.5063
 <L.S>=  0.00000000000    
 Annihilation of the first spin contaminant:
 S**2 before annihilation     0.7627,   after     0.7501

 **********************************************************************

            Population analysis using the SCF Density.

 **********************************************************************

 Alpha  occ. eigenvalues --  -91.99851 -20.54409 -15.61748 -11.39483 -11.29352
 Alpha  occ. eigenvalues --  -11.27794  -9.00077  -6.69647  -6.67830  -6.67554
 Alpha  occ. eigenvalues --   -1.40473  -1.27277  -1.04162  -0.99247  -0.94346
 Alpha  occ. eigenvalues --   -0.75403  -0.68576  -0.67311  -0.66925  -0.58488
 Alpha  occ. eigenvalues --   -0.57804  -0.56880  -0.56207  -0.55256  -0.47735
 Alpha  occ. eigenvalues --   -0.42080  -0.40147  -0.39192
 Alpha virt. eigenvalues --    0.02883   0.04371   0.04797   0.05798   0.07233
 Alpha virt. eigenvalues --    0.07766   0.08202   0.09854   0.12038   0.12497
 Alpha virt. eigenvalues --    0.13428   0.13790   0.13928   0.15270   0.15981
 Alpha virt. eigenvalues --    0.16669   0.17113   0.17900   0.18450   0.19619
 Alpha virt. eigenvalues --    0.19649   0.20694   0.23085   0.25034   0.25380
 Alpha virt. eigenvalues --    0.25929   0.26549   0.29752   0.30145   0.30421
 Alpha virt. eigenvalues --    0.31985   0.33206   0.33627   0.35428   0.36839
 Alpha virt. eigenvalues --    0.37478   0.38080   0.39577   0.41829   0.41864
 Alpha virt. eigenvalues --    0.43419   0.43604   0.44124   0.45663   0.45933
 Alpha virt. eigenvalues --    0.46510   0.47000   0.49566   0.50857   0.51202
 Alpha virt. eigenvalues --    0.53293   0.55677   0.56466   0.58230   0.58600
 Alpha virt. eigenvalues --    0.60345   0.60608   0.61302   0.61483   0.62066
 Alpha virt. eigenvalues --    0.64461   0.64903   0.66124   0.67978   0.69036
 Alpha virt. eigenvalues --    0.70875   0.71666   0.71677   0.72048   0.74207
 Alpha virt. eigenvalues --    0.75554   0.75596   0.78717   0.79840   0.80451
 Alpha virt. eigenvalues --    0.81838   0.86772   0.87371   0.87560   0.88665
 Alpha virt. eigenvalues --    0.89234   0.95328   0.97266   0.98707   1.00301
 Alpha virt. eigenvalues --    1.00723   1.04630   1.07226   1.07565   1.10533
 Alpha virt. eigenvalues --    1.12911   1.13177   1.13955   1.16032   1.18759
 Alpha virt. eigenvalues --    1.20897   1.21126   1.22010   1.22555   1.24301
 Alpha virt. eigenvalues --    1.24654   1.31575   1.34028   1.35980   1.41357
 Alpha virt. eigenvalues --    1.46328   1.46407   1.49048   1.52614   1.58550
 Alpha virt. eigenvalues --    1.59777   1.61477   1.66092   1.69878   1.73566
 Alpha virt. eigenvalues --    1.75556   1.80011   1.82034   1.85374   1.85926
 Alpha virt. eigenvalues --    1.88499   1.89980   1.91561   1.93807   1.95375
 Alpha virt. eigenvalues --    2.01989   2.06484   2.09876   2.12305   2.13968
 Alpha virt. eigenvalues --    2.16021   2.18139   2.19566   2.21624   2.25107
 Alpha virt. eigenvalues --    2.28116   2.30298   2.31962   2.32776   2.35066
 Alpha virt. eigenvalues --    2.38577   2.46317   2.49703   2.51437   2.52674
 Alpha virt. eigenvalues --    2.57802   2.66117   2.68168   2.74110   2.79374
 Alpha virt. eigenvalues --    2.85147   2.89788   2.90722   2.91631   2.99505
 Alpha virt. eigenvalues --    3.01790   3.07128   3.09594   3.15214   3.22804
 Alpha virt. eigenvalues --    3.26895   3.35903   3.46760   3.76545   3.81096
 Alpha virt. eigenvalues --    3.87607   3.93361   4.13131
  Beta  occ. eigenvalues --  -91.98920 -20.54009 -15.61786 -11.39600 -11.29281
  Beta  occ. eigenvalues --  -11.27794  -8.99050  -6.67339  -6.66986  -6.65545
  Beta  occ. eigenvalues --   -1.39677  -1.27097  -1.00555  -0.98190  -0.91127
  Beta  occ. eigenvalues --   -0.74726  -0.67333  -0.66878  -0.65668  -0.57971
  Beta  occ. eigenvalues --   -0.57763  -0.55918  -0.55634  -0.54934  -0.41816
  Beta  occ. eigenvalues --   -0.39324  -0.37639
  Beta virt. eigenvalues --    0.00434   0.02977   0.04535   0.04803   0.05878
  Beta virt. eigenvalues --    0.07236   0.07823   0.08413   0.09961   0.12082
  Beta virt. eigenvalues --    0.12679   0.13590   0.13763   0.14429   0.15336
  Beta virt. eigenvalues --    0.16105   0.17104   0.17331   0.18226   0.18483
  Beta virt. eigenvalues --    0.19666   0.19851   0.21179   0.23879   0.25113
  Beta virt. eigenvalues --    0.26159   0.26600   0.26655   0.29782   0.30402
  Beta virt. eigenvalues --    0.30700   0.32185   0.33255   0.34032   0.35554
  Beta virt. eigenvalues --    0.37521   0.38335   0.40235   0.40660   0.42067
  Beta virt. eigenvalues --    0.43153   0.43967   0.44125   0.44363   0.46182
  Beta virt. eigenvalues --    0.46598   0.47142   0.47924   0.50313   0.50936
  Beta virt. eigenvalues --    0.51275   0.53863   0.56222   0.56996   0.58388
  Beta virt. eigenvalues --    0.58781   0.60754   0.60856   0.61355   0.61707
  Beta virt. eigenvalues --    0.62736   0.64470   0.65005   0.67003   0.68178
  Beta virt. eigenvalues --    0.69472   0.71201   0.71735   0.71841   0.73678
  Beta virt. eigenvalues --    0.74511   0.75717   0.75821   0.79388   0.80279
  Beta virt. eigenvalues --    0.80646   0.82018   0.87454   0.87609   0.88019
  Beta virt. eigenvalues --    0.89026   0.89710   0.95460   0.97469   0.99549
  Beta virt. eigenvalues --    1.00692   1.00953   1.04979   1.07721   1.10141
  Beta virt. eigenvalues --    1.10626   1.13398   1.14940   1.15011   1.17735
  Beta virt. eigenvalues --    1.20109   1.21112   1.22083   1.23625   1.24570
  Beta virt. eigenvalues --    1.25809   1.26131   1.31686   1.35865   1.36104
  Beta virt. eigenvalues --    1.42588   1.46379   1.46639   1.49160   1.52952
  Beta virt. eigenvalues --    1.58935   1.59794   1.62046   1.66077   1.69977
  Beta virt. eigenvalues --    1.73886   1.75588   1.80058   1.82155   1.85549
  Beta virt. eigenvalues --    1.85934   1.88805   1.89992   1.91577   1.94034
  Beta virt. eigenvalues --    1.95496   2.02018   2.06957   2.09958   2.12301
  Beta virt. eigenvalues --    2.14145   2.16100   2.18214   2.19692   2.21606
  Beta virt. eigenvalues --    2.25309   2.28124   2.30344   2.31957   2.32893
  Beta virt. eigenvalues --    2.35224   2.38667   2.46380   2.49750   2.51466
  Beta virt. eigenvalues --    2.52672   2.57873   2.66127   2.68187   2.74166
  Beta virt. eigenvalues --    2.79401   2.85195   2.89792   2.90768   2.91634
  Beta virt. eigenvalues --    2.99465   3.01922   3.07125   3.09655   3.15404
  Beta virt. eigenvalues --    3.22816   3.26912   3.35932   3.46866   3.77275
  Beta virt. eigenvalues --    3.81335   3.88337   3.93924   4.13558
          Condensed to atoms (all electrons):
          Atomic-Atomic Spin Densities.
 Mulliken charges and spin densities:
               1          2
     1  S    0.193769   1.054955
     2  C    0.277777  -0.081683
     3  O   -0.726649   0.050284
     4  N   -0.489831  -0.022501
     5  C    0.708384   0.016352
     6  H   -0.210861  -0.007816
     7  H   -0.066735   0.000063
     8  H   -0.066733   0.000063
     9  C    0.726321  -0.008196
    10  H   -0.217836  -0.001124
    11  H   -0.063794  -0.000198
    12  H   -0.063813  -0.000198
 Sum of Mulliken charges =  -0.00000   1.00000
 Mulliken charges and spin densities with hydrogens summed into heavy atoms:
               1          2
     1  S    0.193769   1.054955
     2  C    0.277777  -0.081683
     3  O   -0.726649   0.050284
     4  N   -0.489831  -0.022501
     5  C    0.364056   0.008661
     9  C    0.380878  -0.009716
 Electronic spatial extent (au):  <R**2>=            744.4648
 Charge=             -0.0000 electrons
 Dipole moment (field-independent basis, Debye):
    X=              2.8371    Y=              3.5080    Z=              0.0001  Tot=              4.5117
                          Isotropic Fermi Contact Couplings
        Atom                 a.u.       MegaHertz       Gauss      10(-4) cm-1
     1  S(33)              0.22364      76.81460      27.40936      25.62259
     2  C(13)             -0.02244     -25.22578      -9.00119      -8.41441
     3  O(17)              0.05010     -30.37104     -10.83714     -10.13069
     4  N(14)             -0.00883      -2.85314      -1.01807      -0.95171
     5  C(13)              0.01194      13.42577       4.79065       4.47835
     6  H(1)              -0.00029      -1.29456      -0.46193      -0.43182
     7  H(1)              -0.00005      -0.21891      -0.07811      -0.07302
     8  H(1)              -0.00005      -0.21894      -0.07812      -0.07303
     9  C(13)              0.00006       0.07149       0.02551       0.02385
    10  H(1)               0.00021       0.96092       0.34288       0.32053
    11  H(1)               0.00004       0.17473       0.06235       0.05828
    12  H(1)               0.00004       0.17483       0.06238       0.05832
 --------------------------------------------------------
       Center         ----  Spin Dipole Couplings  ----
                      3XX-RR        3YY-RR        3ZZ-RR
 --------------------------------------------------------
     1   Atom       -1.295122      3.226315     -1.931193
     2   Atom        0.014606      0.006937     -0.021543
     3   Atom        0.187149     -0.063973     -0.123175
     4   Atom        0.014539      0.002853     -0.017392
     5   Atom        0.029808     -0.012625     -0.017183
     6   Atom        0.018838     -0.002757     -0.016081
     7   Atom        0.003890     -0.002702     -0.001188
     8   Atom        0.003890     -0.002702     -0.001188
     9   Atom        0.003655     -0.001562     -0.002093
    10   Atom        0.003371     -0.000903     -0.002469
    11   Atom        0.002269     -0.001047     -0.001223
    12   Atom        0.002270     -0.001047     -0.001223
 --------------------------------------------------------
                        XY            XZ            YZ
 --------------------------------------------------------
     1   Atom        2.021654      0.000164      0.000428
     2   Atom       -0.001198      0.000003     -0.000001
     3   Atom       -0.189630      0.000033     -0.000018
     4   Atom       -0.006165      0.000002      0.000001
     5   Atom       -0.005382      0.000001     -0.000000
     6   Atom        0.012981      0.000000     -0.000000
     7   Atom        0.002513     -0.002706     -0.001484
     8   Atom        0.002513      0.002707      0.001485
     9   Atom        0.001401      0.000000     -0.000000
    10   Atom       -0.001669      0.000000     -0.000000
    11   Atom       -0.000484      0.000708     -0.000155
    12   Atom       -0.000484     -0.000708      0.000155
 --------------------------------------------------------


 ---------------------------------------------------------------------------------
              Anisotropic Spin Dipole Couplings in Principal Axis System
 ---------------------------------------------------------------------------------

       Atom             a.u.   MegaHertz   Gauss  10(-4) cm-1        Axes

              Baa    -2.0672   -84.754   -30.242   -28.271  0.9342 -0.3568 -0.0000
     1 S(33)  Bbb    -1.9312   -79.177   -28.252   -26.411 -0.0000 -0.0001  1.0000
              Bcc     3.9984   163.931    58.495    54.681  0.3568  0.9342  0.0001
 
              Baa    -0.0215    -2.891    -1.032    -0.964 -0.0001  0.0000  1.0000
     2 C(13)  Bbb     0.0068     0.906     0.323     0.302  0.1508  0.9886 -0.0000
              Bcc     0.0148     1.984     0.708     0.662  0.9886 -0.1508  0.0001
 
              Baa    -0.1658    12.000     4.282     4.003  0.4732  0.8809  0.0000
     3 O(17)  Bbb    -0.1232     8.913     3.180     2.973 -0.0001  0.0000  1.0000
              Bcc     0.2890   -20.913    -7.462    -6.976  0.8809 -0.4732  0.0001
 
              Baa    -0.0174    -0.671    -0.239    -0.224 -0.0001 -0.0001  1.0000
     4 N(14)  Bbb     0.0002     0.008     0.003     0.003  0.3950  0.9187  0.0001
              Bcc     0.0172     0.663     0.237     0.221  0.9187 -0.3950  0.0000
 
              Baa    -0.0172    -2.306    -0.823    -0.769 -0.0000  0.0000  1.0000
     5 C(13)  Bbb    -0.0133    -1.784    -0.637    -0.595  0.1239  0.9923 -0.0000
              Bcc     0.0305     4.090     1.459     1.364  0.9923 -0.1239  0.0000
 
              Baa    -0.0161    -8.580    -3.062    -2.862 -0.0000  0.0000  1.0000
     6 H(1)   Bbb    -0.0088    -4.719    -1.684    -1.574 -0.4246  0.9054 -0.0000
              Bcc     0.0249    13.299     4.745     4.436  0.9054  0.4246  0.0000
 
              Baa    -0.0037    -2.000    -0.714    -0.667 -0.1821  0.9219  0.3419
     7 H(1)   Bbb    -0.0023    -1.214    -0.433    -0.405  0.4670 -0.2249  0.8552
              Bcc     0.0060     3.214     1.147     1.072  0.8653  0.3154 -0.3896
 
              Baa    -0.0037    -2.000    -0.714    -0.667 -0.1821  0.9219 -0.3420
     8 H(1)   Bbb    -0.0023    -1.214    -0.433    -0.405 -0.4671  0.2249  0.8551
              Bcc     0.0060     3.214     1.147     1.072  0.8653  0.3154  0.3896
 
              Baa    -0.0021    -0.281    -0.100    -0.094 -0.0002  0.0005  1.0000
     9 C(13)  Bbb    -0.0019    -0.257    -0.092    -0.086 -0.2440  0.9698 -0.0006
              Bcc     0.0040     0.538     0.192     0.179  0.9698  0.2440  0.0000
 
              Baa    -0.0025    -1.317    -0.470    -0.439 -0.0000 -0.0000  1.0000
    10 H(1)   Bbb    -0.0015    -0.788    -0.281    -0.263  0.3254  0.9456  0.0000
              Bcc     0.0039     2.105     0.751     0.702  0.9456 -0.3254  0.0000
 
              Baa    -0.0014    -0.733    -0.262    -0.245 -0.1577  0.2213  0.9624
    11 H(1)   Bbb    -0.0011    -0.590    -0.210    -0.197  0.1787  0.9649 -0.1926
              Bcc     0.0025     1.323     0.472     0.441  0.9712 -0.1416  0.1917
 
              Baa    -0.0014    -0.733    -0.262    -0.245  0.1576 -0.2215  0.9623
    12 H(1)   Bbb    -0.0011    -0.590    -0.210    -0.197  0.1788  0.9648  0.1928
              Bcc     0.0025     1.323     0.472     0.441  0.9712 -0.1416 -0.1917
 

 ---------------------------------------------------------------------------------

 NROrb=    196 NOA=    28 NOB=    27 NVA=   168 NVB=   169

 **** Warning!!: The largest alpha MO coefficient is  0.27535202D+02


 **** Warning!!: The largest beta MO coefficient is  0.27840349D+02

    12 initial guesses have been made.
 Iteration     1 Dimension    12 NMult     0 NNew     12
 Iteration     2 Dimension    24 NMult    12 NNew     12
 Iteration     3 Dimension    27 NMult    24 NNew      3
 Iteration     4 Dimension    30 NMult    27 NNew      3
 Iteration     5 Dimension    33 NMult    30 NNew      3
 Iteration     6 Dimension    36 NMult    33 NNew      3
 ***********************************************************************
 Stability analysis using <AA,BB:AA,BB> singles matrix:
 ***********************************************************************
 Ground to excited state transition densities written to RWF  633

 Eigenvectors of the stability matrix:
 
 Excited state symmetry could not be determined.
 Eigenvector   1:  2.047-?Sym  Eigenvalue= 0.0156120  <S**2>=0.797
     22B -> 28B        0.11650
     26B -> 28B        0.16854
     27B -> 28B        0.90047
     27B -> 29B        0.14824
     27B -> 30B        0.15356
     27B -> 41B       -0.12008
 The wavefunction is stable under the perturbations considered.
 The wavefunction is already stable.

 **********************************************************************

            Population analysis using the SCF Density.

 **********************************************************************

 Alpha  occ. eigenvalues --  -91.99851 -20.54409 -15.61748 -11.39483 -11.29352
 Alpha  occ. eigenvalues --  -11.27794  -9.00077  -6.69647  -6.67830  -6.67554
 Alpha  occ. eigenvalues --   -1.40473  -1.27277  -1.04162  -0.99247  -0.94346
 Alpha  occ. eigenvalues --   -0.75403  -0.68576  -0.67311  -0.66925  -0.58488
 Alpha  occ. eigenvalues --   -0.57804  -0.56880  -0.56207  -0.55256  -0.47735
 Alpha  occ. eigenvalues --   -0.42080  -0.40147  -0.39192
 Alpha virt. eigenvalues --    0.02883   0.04371   0.04797   0.05798   0.07233
 Alpha virt. eigenvalues --    0.07766   0.08202   0.09854   0.12038   0.12497
 Alpha virt. eigenvalues --    0.13428   0.13790   0.13928   0.15270   0.15981
 Alpha virt. eigenvalues --    0.16669   0.17113   0.17900   0.18450   0.19619
 Alpha virt. eigenvalues --    0.19649   0.20694   0.23085   0.25034   0.25380
 Alpha virt. eigenvalues --    0.25929   0.26549   0.29752   0.30145   0.30421
 Alpha virt. eigenvalues --    0.31985   0.33206   0.33627   0.35428   0.36839
 Alpha virt. eigenvalues --    0.37478   0.38080   0.39577   0.41829   0.41864
 Alpha virt. eigenvalues --    0.43419   0.43604   0.44124   0.45663   0.45933
 Alpha virt. eigenvalues --    0.46510   0.47000   0.49566   0.50857   0.51202
 Alpha virt. eigenvalues --    0.53293   0.55677   0.56466   0.58230   0.58600
 Alpha virt. eigenvalues --    0.60345   0.60608   0.61302   0.61483   0.62066
 Alpha virt. eigenvalues --    0.64461   0.64903   0.66124   0.67978   0.69036
 Alpha virt. eigenvalues --    0.70875   0.71666   0.71677   0.72048   0.74207
 Alpha virt. eigenvalues --    0.75554   0.75596   0.78717   0.79840   0.80451
 Alpha virt. eigenvalues --    0.81838   0.86772   0.87371   0.87560   0.88665
 Alpha virt. eigenvalues --    0.89234   0.95328   0.97266   0.98707   1.00301
 Alpha virt. eigenvalues --    1.00723   1.04630   1.07226   1.07565   1.10533
 Alpha virt. eigenvalues --    1.12911   1.13177   1.13955   1.16032   1.18759
 Alpha virt. eigenvalues --    1.20897   1.21126   1.22010   1.22555   1.24301
 Alpha virt. eigenvalues --    1.24654   1.31575   1.34028   1.35980   1.41357
 Alpha virt. eigenvalues --    1.46328   1.46407   1.49048   1.52614   1.58550
 Alpha virt. eigenvalues --    1.59777   1.61477   1.66092   1.69878   1.73566
 Alpha virt. eigenvalues --    1.75556   1.80011   1.82034   1.85374   1.85926
 Alpha virt. eigenvalues --    1.88499   1.89980   1.91561   1.93807   1.95375
 Alpha virt. eigenvalues --    2.01989   2.06484   2.09876   2.12305   2.13968
 Alpha virt. eigenvalues --    2.16021   2.18139   2.19566   2.21624   2.25107
 Alpha virt. eigenvalues --    2.28116   2.30298   2.31962   2.32776   2.35066
 Alpha virt. eigenvalues --    2.38577   2.46317   2.49703   2.51437   2.52674
 Alpha virt. eigenvalues --    2.57802   2.66117   2.68168   2.74110   2.79374
 Alpha virt. eigenvalues --    2.85147   2.89788   2.90722   2.91631   2.99505
 Alpha virt. eigenvalues --    3.01790   3.07128   3.09594   3.15214   3.22804
 Alpha virt. eigenvalues --    3.26895   3.35903   3.46760   3.76545   3.81096
 Alpha virt. eigenvalues --    3.87607   3.93361   4.13131
  Beta  occ. eigenvalues --  -91.98920 -20.54009 -15.61786 -11.39600 -11.29281
  Beta  occ. eigenvalues --  -11.27794  -8.99050  -6.67339  -6.66986  -6.65545
  Beta  occ. eigenvalues --   -1.39677  -1.27097  -1.00555  -0.98190  -0.91127
  Beta  occ. eigenvalues --   -0.74726  -0.67333  -0.66878  -0.65668  -0.57971
  Beta  occ. eigenvalues --   -0.57763  -0.55918  -0.55634  -0.54934  -0.41816
  Beta  occ. eigenvalues --   -0.39324  -0.37639
  Beta virt. eigenvalues --    0.00434   0.02977   0.04535   0.04803   0.05878
  Beta virt. eigenvalues --    0.07236   0.07823   0.08413   0.09961   0.12082
  Beta virt. eigenvalues --    0.12679   0.13590   0.13763   0.14429   0.15336
  Beta virt. eigenvalues --    0.16105   0.17104   0.17331   0.18226   0.18483
  Beta virt. eigenvalues --    0.19666   0.19851   0.21179   0.23879   0.25113
  Beta virt. eigenvalues --    0.26159   0.26600   0.26655   0.29782   0.30402
  Beta virt. eigenvalues --    0.30700   0.32185   0.33255   0.34032   0.35554
  Beta virt. eigenvalues --    0.37521   0.38335   0.40235   0.40660   0.42067
  Beta virt. eigenvalues --    0.43153   0.43967   0.44125   0.44363   0.46182
  Beta virt. eigenvalues --    0.46598   0.47142   0.47924   0.50313   0.50936
  Beta virt. eigenvalues --    0.51275   0.53863   0.56222   0.56996   0.58388
  Beta virt. eigenvalues --    0.58781   0.60754   0.60856   0.61355   0.61707
  Beta virt. eigenvalues --    0.62736   0.64470   0.65005   0.67003   0.68178
  Beta virt. eigenvalues --    0.69472   0.71201   0.71735   0.71841   0.73678
  Beta virt. eigenvalues --    0.74511   0.75717   0.75821   0.79388   0.80279
  Beta virt. eigenvalues --    0.80646   0.82018   0.87454   0.87609   0.88019
  Beta virt. eigenvalues --    0.89026   0.89710   0.95460   0.97469   0.99549
  Beta virt. eigenvalues --    1.00692   1.00953   1.04979   1.07721   1.10141
  Beta virt. eigenvalues --    1.10626   1.13398   1.14940   1.15011   1.17735
  Beta virt. eigenvalues --    1.20109   1.21112   1.22083   1.23625   1.24570
  Beta virt. eigenvalues --    1.25809   1.26131   1.31686   1.35865   1.36104
  Beta virt. eigenvalues --    1.42588   1.46379   1.46639   1.49160   1.52952
  Beta virt. eigenvalues --    1.58935   1.59794   1.62046   1.66077   1.69977
  Beta virt. eigenvalues --    1.73886   1.75588   1.80058   1.82155   1.85549
  Beta virt. eigenvalues --    1.85934   1.88805   1.89992   1.91577   1.94034
  Beta virt. eigenvalues --    1.95496   2.02018   2.06957   2.09958   2.12301
  Beta virt. eigenvalues --    2.14145   2.16100   2.18214   2.19692   2.21606
  Beta virt. eigenvalues --    2.25309   2.28124   2.30344   2.31957   2.32893
  Beta virt. eigenvalues --    2.35224   2.38667   2.46380   2.49750   2.51466
  Beta virt. eigenvalues --    2.52672   2.57873   2.66127   2.68187   2.74166
  Beta virt. eigenvalues --    2.79401   2.85195   2.89792   2.90768   2.91634
  Beta virt. eigenvalues --    2.99465   3.01922   3.07125   3.09655   3.15404
  Beta virt. eigenvalues --    3.22816   3.26912   3.35932   3.46866   3.77275
  Beta virt. eigenvalues --    3.81335   3.88337   3.93924   4.13558
          Condensed to atoms (all electrons):
          Atomic-Atomic Spin Densities.
 Mulliken charges and spin densities:
               1          2
     1  S    0.193769   1.054955
     2  C    0.277777  -0.081683
     3  O   -0.726649   0.050284
     4  N   -0.489831  -0.022501
     5  C    0.708384   0.016352
     6  H   -0.210861  -0.007816
     7  H   -0.066735   0.000063
     8  H   -0.066733   0.000063
     9  C    0.726321  -0.008196
    10  H   -0.217836  -0.001124
    11  H   -0.063794  -0.000198
    12  H   -0.063813  -0.000198
 Sum of Mulliken charges =  -0.00000   1.00000
 Mulliken charges and spin densities with hydrogens summed into heavy atoms:
               1          2
     1  S    0.193769   1.054955
     2  C    0.277777  -0.081683
     3  O   -0.726649   0.050284
     4  N   -0.489831  -0.022501
     5  C    0.364056   0.008661
     9  C    0.380878  -0.009716
 Electronic spatial extent (au):  <R**2>=            744.4648
 Charge=             -0.0000 electrons
 Dipole moment (field-independent basis, Debye):
    X=              2.8371    Y=              3.5080    Z=              0.0001  Tot=              4.5117
                          Isotropic Fermi Contact Couplings
        Atom                 a.u.       MegaHertz       Gauss      10(-4) cm-1
     1  S(33)              0.22364      76.81460      27.40936      25.62259
     2  C(13)             -0.02244     -25.22578      -9.00119      -8.41441
     3  O(17)              0.05010     -30.37104     -10.83714     -10.13069
     4  N(14)             -0.00883      -2.85314      -1.01807      -0.95171
     5  C(13)              0.01194      13.42577       4.79065       4.47835
     6  H(1)              -0.00029      -1.29456      -0.46193      -0.43182
     7  H(1)              -0.00005      -0.21891      -0.07811      -0.07302
     8  H(1)              -0.00005      -0.21894      -0.07812      -0.07303
     9  C(13)              0.00006       0.07149       0.02551       0.02385
    10  H(1)               0.00021       0.96092       0.34288       0.32053
    11  H(1)               0.00004       0.17473       0.06235       0.05828
    12  H(1)               0.00004       0.17483       0.06238       0.05832
 --------------------------------------------------------
       Center         ----  Spin Dipole Couplings  ----
                      3XX-RR        3YY-RR        3ZZ-RR
 --------------------------------------------------------
     1   Atom       -1.295122      3.226315     -1.931193
     2   Atom        0.014606      0.006937     -0.021543
     3   Atom        0.187149     -0.063973     -0.123175
     4   Atom        0.014539      0.002853     -0.017392
     5   Atom        0.029808     -0.012625     -0.017183
     6   Atom        0.018838     -0.002757     -0.016081
     7   Atom        0.003890     -0.002702     -0.001188
     8   Atom        0.003890     -0.002702     -0.001188
     9   Atom        0.003655     -0.001562     -0.002093
    10   Atom        0.003371     -0.000903     -0.002469
    11   Atom        0.002269     -0.001047     -0.001223
    12   Atom        0.002270     -0.001047     -0.001223
 --------------------------------------------------------
                        XY            XZ            YZ
 --------------------------------------------------------
     1   Atom        2.021654      0.000164      0.000428
     2   Atom       -0.001198      0.000003     -0.000001
     3   Atom       -0.189630      0.000033     -0.000018
     4   Atom       -0.006165      0.000002      0.000001
     5   Atom       -0.005382      0.000001     -0.000000
     6   Atom        0.012981      0.000000     -0.000000
     7   Atom        0.002513     -0.002706     -0.001484
     8   Atom        0.002513      0.002707      0.001485
     9   Atom        0.001401      0.000000     -0.000000
    10   Atom       -0.001669      0.000000     -0.000000
    11   Atom       -0.000484      0.000708     -0.000155
    12   Atom       -0.000484     -0.000708      0.000155
 --------------------------------------------------------


 ---------------------------------------------------------------------------------
              Anisotropic Spin Dipole Couplings in Principal Axis System
 ---------------------------------------------------------------------------------

       Atom             a.u.   MegaHertz   Gauss  10(-4) cm-1        Axes

              Baa    -2.0672   -84.754   -30.242   -28.271  0.9342 -0.3568 -0.0000
     1 S(33)  Bbb    -1.9312   -79.177   -28.252   -26.411 -0.0000 -0.0001  1.0000
              Bcc     3.9984   163.931    58.495    54.681  0.3568  0.9342  0.0001
 
              Baa    -0.0215    -2.891    -1.032    -0.964 -0.0001  0.0000  1.0000
     2 C(13)  Bbb     0.0068     0.906     0.323     0.302  0.1508  0.9886 -0.0000
              Bcc     0.0148     1.984     0.708     0.662  0.9886 -0.1508  0.0001
 
              Baa    -0.1658    12.000     4.282     4.003  0.4732  0.8809  0.0000
     3 O(17)  Bbb    -0.1232     8.913     3.180     2.973 -0.0001  0.0000  1.0000
              Bcc     0.2890   -20.913    -7.462    -6.976  0.8809 -0.4732  0.0001
 
              Baa    -0.0174    -0.671    -0.239    -0.224 -0.0001 -0.0001  1.0000
     4 N(14)  Bbb     0.0002     0.008     0.003     0.003  0.3950  0.9187  0.0001
              Bcc     0.0172     0.663     0.237     0.221  0.9187 -0.3950  0.0000
 
              Baa    -0.0172    -2.306    -0.823    -0.769 -0.0000  0.0000  1.0000
     5 C(13)  Bbb    -0.0133    -1.784    -0.637    -0.595  0.1239  0.9923 -0.0000
              Bcc     0.0305     4.090     1.459     1.364  0.9923 -0.1239  0.0000
 
              Baa    -0.0161    -8.580    -3.062    -2.862 -0.0000  0.0000  1.0000
     6 H(1)   Bbb    -0.0088    -4.719    -1.684    -1.574 -0.4246  0.9054 -0.0000
              Bcc     0.0249    13.299     4.745     4.436  0.9054  0.4246  0.0000
 
              Baa    -0.0037    -2.000    -0.714    -0.667 -0.1821  0.9219  0.3419
     7 H(1)   Bbb    -0.0023    -1.214    -0.433    -0.405  0.4670 -0.2249  0.8552
              Bcc     0.0060     3.214     1.147     1.072  0.8653  0.3154 -0.3896
 
              Baa    -0.0037    -2.000    -0.714    -0.667 -0.1821  0.9219 -0.3420
     8 H(1)   Bbb    -0.0023    -1.214    -0.433    -0.405 -0.4671  0.2249  0.8551
              Bcc     0.0060     3.214     1.147     1.072  0.8653  0.3154  0.3896
 
              Baa    -0.0021    -0.281    -0.100    -0.094 -0.0002  0.0005  1.0000
     9 C(13)  Bbb    -0.0019    -0.257    -0.092    -0.086 -0.2440  0.9698 -0.0006
              Bcc     0.0040     0.538     0.192     0.179  0.9698  0.2440  0.0000
 
              Baa    -0.0025    -1.317    -0.470    -0.439 -0.0000 -0.0000  1.0000
    10 H(1)   Bbb    -0.0015    -0.788    -0.281    -0.263  0.3254  0.9456  0.0000
              Bcc     0.0039     2.105     0.751     0.702  0.9456 -0.3254  0.0000
 
              Baa    -0.0014    -0.733    -0.262    -0.245 -0.1577  0.2213  0.9624
    11 H(1)   Bbb    -0.0011    -0.590    -0.210    -0.197  0.1787  0.9649 -0.1926
              Bcc     0.0025     1.323     0.472     0.441  0.9712 -0.1416  0.1917
 
              Baa    -0.0014    -0.733    -0.262    -0.245  0.1576 -0.2215  0.9623
    12 H(1)   Bbb    -0.0011    -0.590    -0.210    -0.197  0.1788  0.9648  0.1928
              Bcc     0.0025     1.323     0.472     0.441  0.9712 -0.1416 -0.1917
 

 ---------------------------------------------------------------------------------

 Unable to Open any file for archive entry.
 1\1\GINC-SE103\Stability\UHF\Aug-CC-pVDZ\C3H6N1O1S1\OHZDE\09-Apr-2025\
 0\\#t hf aug-cc-pvdz symm=none int=(grid=ultrafine) guess=(read,tcheck
 ) stable=opt\\title\\0,2\S,0,-1.855093,0.363311,-0.000037\C,0,-0.30872
 ,-0.476816,0.000048\O,0,-0.456879,-1.697974,-0.000031\N,0,0.87947,0.16
 4353,0.000026\C,0,1.000977,1.610268,0.000022\H,0,0.010271,2.065461,-0.
 000001\H,0,1.538956,1.950597,-0.890676\H,0,1.538918,1.950605,0.89074\C
 ,0,2.11176,-0.616252,0.000019\H,0,1.855484,-1.673518,0.000019\H,0,2.70
 6256,-0.388007,0.890244\H,0,2.706249,-0.388004,-0.890211\\Version=ES64
 L-G16RevC.01\HF=-643.9545189\S2=0.762716\S2-1=0.\S2A=0.750063\RMSD=4.9
 98e-09\Dipole=1.1162179,1.3801439,0.0000526\Quadrupole=2.7244937,-2.12
 54874,-0.5990063,-1.0233803,0.0001099,-0.0000616\PG=Unknown\\@
 The archive entry for this job was punched.


 CURIOUSER AND CURIOUSER

                  -- ALICE, IN WONDERLAND
 Job cpu time:       0 days  0 hours  3 minutes  7.7 seconds.
 Elapsed time:       0 days  0 hours  0 minutes 26.8 seconds.
 File lengths (MBytes):  RWF=    213 Int=      0 D2E=      0 Chk=      7 Scr=      1
 Normal termination of Gaussian 16 at Wed Apr  9 00:18:28 2025.
 Initial command:
 /arc/software/Gaussian/g16.c01/l1.exe "/tmp/slurm/4852751/Gau-1012147.inp" -scrdir="/tmp/slurm/4852751/"
 Entering Link 1 = /arc/software/Gaussian/g16.c01/l1.exe PID=   1012364.
  
 Copyright (c) 1988-2019, Gaussian, Inc.  All Rights Reserved.
  
 This is part of the Gaussian(R) 16 program.  It is based on
 the Gaussian(R) 09 system (copyright 2009, Gaussian, Inc.),
 the Gaussian(R) 03 system (copyright 2003, Gaussian, Inc.),
 the Gaussian(R) 98 system (copyright 1998, Gaussian, Inc.),
 the Gaussian(R) 94 system (copyright 1995, Gaussian, Inc.),
 the Gaussian 92(TM) system (copyright 1992, Gaussian, Inc.),
 the Gaussian 90(TM) system (copyright 1990, Gaussian, Inc.),
 the Gaussian 88(TM) system (copyright 1988, Gaussian, Inc.),
 the Gaussian 86(TM) system (copyright 1986, Carnegie Mellon
 University), and the Gaussian 82(TM) system (copyright 1983,
 Carnegie Mellon University). Gaussian is a federally registered
 trademark of Gaussian, Inc.
  
 This software contains proprietary and confidential information,
 including trade secrets, belonging to Gaussian, Inc.
  
 This software is provided under written license and may be
 used, copied, transmitted, or stored only in accord with that
 written license.
  
 The following legend is applicable only to US Government
 contracts under FAR:
  
                    RESTRICTED RIGHTS LEGEND
  
 Use, reproduction and disclosure by the US Government is
 subject to restrictions as set forth in subparagraphs (a)
 and (c) of the Commercial Computer Software - Restricted
 Rights clause in FAR 52.227-19.
  
 Gaussian, Inc.
 340 Quinnipiac St., Bldg. 40, Wallingford CT 06492
  
  
 ---------------------------------------------------------------
 Warning -- This program may not be used in any manner that
 competes with the business of Gaussian, Inc. or will provide
 assistance to any competitor of Gaussian, Inc.  The licensee
 of this program is prohibited from giving any competitor of
 Gaussian, Inc. access to this program.  By using this program,
 the user acknowledges that Gaussian, Inc. is engaged in the
 business of creating and licensing software in the field of
 computational chemistry and represents and warrants to the
 licensee that it is not a competitor of Gaussian, Inc. and that
 it will not use this program in any manner prohibited above.
 ---------------------------------------------------------------
  

 Cite this work as:
 Gaussian 16, Revision C.01,
 M. J. Frisch, G. W. Trucks, H. B. Schlegel, G. E. Scuseria, 
 M. A. Robb, J. R. Cheeseman, G. Scalmani, V. Barone, 
 G. A. Petersson, H. Nakatsuji, X. Li, M. Caricato, A. V. Marenich, 
 J. Bloino, B. G. Janesko, R. Gomperts, B. Mennucci, H. P. Hratchian, 
 J. V. Ortiz, A. F. Izmaylov, J. L. Sonnenberg, D. Williams-Young, 
 F. Ding, F. Lipparini, F. Egidi, J. Goings, B. Peng, A. Petrone, 
 T. Henderson, D. Ranasinghe, V. G. Zakrzewski, J. Gao, N. Rega, 
 G. Zheng, W. Liang, M. Hada, M. Ehara, K. Toyota, R. Fukuda, 
 J. Hasegawa, M. Ishida, T. Nakajima, Y. Honda, O. Kitao, H. Nakai, 
 T. Vreven, K. Throssell, J. A. Montgomery, Jr., J. E. Peralta, 
 F. Ogliaro, M. J. Bearpark, J. J. Heyd, E. N. Brothers, K. N. Kudin, 
 V. N. Staroverov, T. A. Keith, R. Kobayashi, J. Normand, 
 K. Raghavachari, A. P. Rendell, J. C. Burant, S. S. Iyengar, 
 J. Tomasi, M. Cossi, J. M. Millam, M. Klene, C. Adamo, R. Cammi, 
 J. W. Ochterski, R. L. Martin, K. Morokuma, O. Farkas, 
 J. B. Foresman, and D. J. Fox, Gaussian, Inc., Wallingford CT, 2019.
 
 ******************************************
 Gaussian 16:  ES64L-G16RevC.01  3-Jul-2019
                 9-Apr-2025 
 ******************************************
 %nprocs=16
 Will use up to   16 processors via shared memory.
 %mem=30GB
 %chk=BDE49_nonexpt_2566_mol2.chk
 ----------------------------------------------------------------------
 #t hf aug-cc-pvdz iop(5/13=1,5/36=2,99/5=2) pseudo=read geom=check gue
 ss=(read,tcheck) scf=(maxcycle=1)
 ----------------------------------------------------------------------
 -----
 title
 -----
 Structure from the checkpoint file:  "BDE49_nonexpt_2566_mol2.chk"
 Charge =  0 Multiplicity = 2
 Z-Matrix found in chk file.
 S,0,-1.855093,0.363311,-0.000037
 C,0,-0.30872,-0.476816,0.000048
 O,0,-0.456879,-1.697974,-0.000031
 N,0,0.87947,0.164353,0.000026
 C,0,1.000977,1.610268,0.000022
 H,0,0.010271,2.065461,-0.000001
 H,0,1.538956,1.950597,-0.890676
 H,0,1.538918,1.950605,0.89074
 C,0,2.11176,-0.616252,0.000019
 H,0,1.855484,-1.673518,0.000019
 H,0,2.706256,-0.388007,0.890244
 H,0,2.706249,-0.388004,-0.890211
 Recover connectivity data from disk.
                    Distance matrix (angstroms):
                    1          2          3          4          5
     1  S    0.000000
     2  C    1.759853   0.000000
     3  O    2.490763   1.230113   0.000000
     4  N    2.741791   1.350146   2.292180   0.000000
     5  C    3.116414   2.463986   3.615219   1.451011   0.000000
     6  H    2.525252   2.562211   3.792318   2.090387   1.090275
     7  H    3.851270   3.177991   4.253078   2.102127   1.094801
     8  H    3.851272   3.177967   4.253094   2.102127   1.094801
     9  C    4.086009   2.424493   2.787118   1.458726   2.488218
    10  H    4.232854   2.473029   2.312492   2.080955   3.393145
    11  H    4.707758   3.144903   3.537517   2.105881   2.773729
    12  H    4.707730   3.144914   3.537488   2.105883   2.773726
                    6          7          8          9         10
     6  H    0.000000
     7  H    1.772956   0.000000
     8  H    1.772956   1.781416   0.000000
     9  C    3.407028   2.776717   2.776740   0.000000
    10  H    4.169505   3.745362   3.745379   1.087883   0.000000
    11  H    3.752383   3.162805   2.613768   1.094542   1.780127
    12  H    3.752367   2.613738   3.162837   1.094543   1.780128
                   11         12
    11  H    0.000000
    12  H    1.780455   0.000000
 Framework group  C1[X(C3H6NOS)]
 Deg. of freedom    30
                         Standard orientation:                         
 ---------------------------------------------------------------------
 Center     Atomic      Atomic             Coordinates (Angstroms)
 Number     Number       Type             X           Y           Z
 ---------------------------------------------------------------------
      1         16           0       -1.855093    0.363311   -0.000037
      2          6           0       -0.308720   -0.476816    0.000048
      3          8           0       -0.456879   -1.697974   -0.000031
      4          7           0        0.879470    0.164353    0.000026
      5          6           0        1.000977    1.610268    0.000022
      6          1           0        0.010271    2.065461   -0.000001
      7          1           0        1.538956    1.950597   -0.890676
      8          1           0        1.538918    1.950605    0.890740
      9          6           0        2.111760   -0.616252    0.000019
     10          1           0        1.855484   -1.673518    0.000019
     11          1           0        2.706256   -0.388007    0.890244
     12          1           0        2.706249   -0.388004   -0.890211
 ---------------------------------------------------------------------
 Rotational constants (GHZ):           4.7109809           2.3387492           1.5943906
 ======================================================================================================
                                       Pseudopotential Parameters
 ======================================================================================================
  Center     Atomic      Valence      Angular      Power
  Number     Number     Electrons     Momentum     of R      Exponent        Coefficient   SO-Coeffient
 ======================================================================================================
    1         16           16
                                      G and up 
                                                     0        0.0000010       -0.00031824    0.00000000
                                                     2        0.1200000       -0.02709645    0.00000000
                                                     2        0.1400000        0.07756871    0.00000000
                                                     2        0.1800000       -0.09276244    0.00000000
                                                     2        0.2400000        0.04926396    0.00000000
                                                     2        0.4000000        0.19256092    0.00000000
                                                     2        0.6000000       -0.68044142    0.00000000
                                                     2        1.2000000        2.88179630    0.00000000
                                      S - G
                                                     0        0.0000010       -0.00682297    0.00000000
                                                     2        0.1200000        0.09894847    0.00000000
                                                     2        0.2400000       -0.09649386    0.00000000
                                                     2        0.5000000       -0.86533519    0.00000000
                                      P - G
                                                     0        0.0000010       -0.03724640    0.00000000
                                                     2        0.1200000        0.13565737    0.00000000
                                                     2        0.1600000       -0.58061535    0.00000000
                                                     2        0.2800000        1.15300814    0.00000000
                                                     2        0.6000000       -1.81693648    0.00000000
                                      D - G
                                                     0        0.0000010       -0.04698793    0.00000000
                                                     2        0.1200000        0.09075241    0.00000000
                                                     2        0.2000000       -0.23702631    0.00000000
                                                     2        0.4000000        0.07730186    0.00000000
                                      F - G
                                                     0        0.0000010        0.08145595    0.00000000
                                                     2        0.1200000       -0.08234030    0.00000000
                                                     2        0.2200000        0.18834854    0.00000000
                                                     2        0.4000000       -0.20344406    0.00000000
    2          6            6
                                      G and up 
                                                     0        0.0000010       -0.00007288    0.00000000
                                                     2        0.1200000        0.10466671    0.00000000
                                                     2        0.1400000       -0.65716157    0.00000000
                                                     2        0.1600000        1.18890794    0.00000000
                                                     2        0.2000000       -1.25772850    0.00000000
                                                     2        0.2600000        1.01188378    0.00000000
                                                     2        0.4000000       -1.09380874    0.00000000
                                                     2        0.5000000        0.96944888    0.00000000
                                                     2        1.0000000       -0.79256938    0.00000000
                                                     2        3.0000000        1.06443276    0.00000000
                                      S - G
                                                     0        0.0000010       -0.00635295    0.00000000
                                                     2        0.1200000        0.16918955    0.00000000
                                                     2        0.1600000       -0.38862576    0.00000000
                                                     2        0.2800000        0.25638263    0.00000000
                                                     2        0.5000000        0.29628419    0.00000000
                                                     2        0.9000000       -0.28791512    0.00000000
                                      P - G
                                                     0        0.0000010       -0.04756931    0.00000000
                                                     2        0.1200000        0.28430375    0.00000000
                                                     2        0.1600000       -0.69640032    0.00000000
                                                     2        0.2600000        1.13005668    0.00000000
                                                     2        0.4000000       -1.31433324    0.00000000
                                                     2        0.7000000        0.91526469    0.00000000
                                      D - G
                                                     0        0.0000010       -0.11496411    0.00000000
                                                     2        0.1200000        0.16620776    0.00000000
                                                     2        0.1800000       -0.30959819    0.00000000
                                                     2        0.3000000        0.16621458    0.00000000
                                                     2        0.6000000        0.27350556    0.00000000
                                      F - G
                                                     0        0.0000010        0.12037550    0.00000000
                                                     2        0.1200000       -0.48737077    0.00000000
                                                     2        0.1400000        0.58315350    0.00000000
                                                     2        0.3000000        0.00005188    0.00000000
                                                     2        0.5000000       -1.16063549    0.00000000
                                                     2        0.8000000        2.09053308    0.00000000
    3          8            8
                                      G and up 
                                                     0        0.0000010        0.00049668    0.00000000
                                                     2        0.1200000       -0.01803391    0.00000000
                                                     2        0.1400000        0.04014195    0.00000000
                                                     2        0.2000000       -0.02692147    0.00000000
                                                     2        0.2800000       -0.04241843    0.00000000
                                                     2        0.4000000        0.15412145    0.00000000
                                                     2        0.7000000       -0.40587006    0.00000000
                                                     2        1.1000000        1.75666647    0.00000000
                                      S - G
                                                     0        0.0000010       -0.01088195    0.00000000
                                                     2        0.1200000        0.09867335    0.00000000
                                                     2        0.2400000       -0.08484177    0.00000000
                                                     2        0.6000000       -1.39011554    0.00000000
                                                     2        2.5000000        1.36225910    0.00000000
                                      P - G
                                                     0        0.0000010        0.05874028    0.00000000
                                                     2        0.1200000       -0.11700340    0.00000000
                                                     2        0.1600000        0.08847775    0.00000000
                                                     2        0.3000000        0.04709907    0.00000000
                                                     2        1.2000000       -1.80388338    0.00000000
                                      D - G
                                                     0        0.0000010       -0.00541262    0.00000000
                                                     2        0.1200000       -0.26547906    0.00000000
                                                     2        0.1600000        1.04289661    0.00000000
                                                     2        0.2400000       -1.92800913    0.00000000
                                                     2        0.4000000        2.26691633    0.00000000
                                                     2        0.7000000       -1.97391482    0.00000000
                                      F - G
                                                     0        0.0000010       -0.02604870    0.00000000
                                                     2        0.1200000        0.37362552    0.00000000
                                                     2        0.1600000       -1.43526367    0.00000000
                                                     2        0.2200000        1.76778079    0.00000000
                                                     2        0.5000000       -1.90846303    0.00000000
    4          7            7
                                      G and up 
                                                     0        0.0000010       -0.00039818    0.00000000
                                                     2        0.1200000       -0.37616123    0.00000000
                                                     2        0.1400000        2.13837358    0.00000000
                                                     2        0.1600000       -3.36562035    0.00000000
                                                     2        0.2000000        2.53463289    0.00000000
                                                     2        0.3000000       -1.98118833    0.00000000
                                                     2        0.5000000        4.06642919    0.00000000
                                                     2        0.7000000       -6.15327959    0.00000000
                                                     2        1.2000000       10.22492851    0.00000000
                                                     2        2.0000000      -14.94707511    0.00000000
                                      S - G
                                                     0        0.0000010        0.02721443    0.00000000
                                                     2        0.1200000       -0.60186009    0.00000000
                                                     2        0.1600000        1.10088134    0.00000000
                                                     2        0.2600000       -0.59857981    0.00000000
                                                     2        0.6000000        0.21288222    0.00000000
                                                     2        3.0000000        5.09059205    0.00000000
                                      P - G
                                                     0        0.0000010        0.40558062    0.00000000
                                                     2        0.1200000        0.81809854    0.00000000
                                                     2        0.1600000       -2.44952728    0.00000000
                                                     2        0.2800000        4.16638749    0.00000000
                                                     2        0.5000000       -6.02944147    0.00000000
                                                     2        1.1000000        5.78262914    0.00000000
                                      D - G
                                                     0        0.0000010       -0.62770267    0.00000000
                                                     2        0.1600000        0.91438653    0.00000000
                                                     2        0.2600000       -2.00568466    0.00000000
                                                     2        0.5000000        3.30798839    0.00000000
                                                     2        1.1000000       -3.91526108    0.00000000
                                      F - G
                                                     0        0.0000010        0.29726344    0.00000000
                                                     2        0.1200000       -0.41591527    0.00000000
                                                     2        0.1600000        0.51444439    0.00000000
                                                     2        0.4000000       -0.69401726    0.00000000
                                                     2        0.7000000        0.51478123    0.00000000
    5          6            6
                                      G and up 
                                                     0        0.0000010       -0.00007288    0.00000000
                                                     2        0.1200000        0.10466671    0.00000000
                                                     2        0.1400000       -0.65716157    0.00000000
                                                     2        0.1600000        1.18890794    0.00000000
                                                     2        0.2000000       -1.25772850    0.00000000
                                                     2        0.2600000        1.01188378    0.00000000
                                                     2        0.4000000       -1.09380874    0.00000000
                                                     2        0.5000000        0.96944888    0.00000000
                                                     2        1.0000000       -0.79256938    0.00000000
                                                     2        3.0000000        1.06443276    0.00000000
                                      S - G
                                                     0        0.0000010       -0.00635295    0.00000000
                                                     2        0.1200000        0.16918955    0.00000000
                                                     2        0.1600000       -0.38862576    0.00000000
                                                     2        0.2800000        0.25638263    0.00000000
                                                     2        0.5000000        0.29628419    0.00000000
                                                     2        0.9000000       -0.28791512    0.00000000
                                      P - G
                                                     0        0.0000010       -0.04756931    0.00000000
                                                     2        0.1200000        0.28430375    0.00000000
                                                     2        0.1600000       -0.69640032    0.00000000
                                                     2        0.2600000        1.13005668    0.00000000
                                                     2        0.4000000       -1.31433324    0.00000000
                                                     2        0.7000000        0.91526469    0.00000000
                                      D - G
                                                     0        0.0000010       -0.11496411    0.00000000
                                                     2        0.1200000        0.16620776    0.00000000
                                                     2        0.1800000       -0.30959819    0.00000000
                                                     2        0.3000000        0.16621458    0.00000000
                                                     2        0.6000000        0.27350556    0.00000000
                                      F - G
                                                     0        0.0000010        0.12037550    0.00000000
                                                     2        0.1200000       -0.48737077    0.00000000
                                                     2        0.1400000        0.58315350    0.00000000
                                                     2        0.3000000        0.00005188    0.00000000
                                                     2        0.5000000       -1.16063549    0.00000000
                                                     2        0.8000000        2.09053308    0.00000000
    6          1            1
                                      F and up 
                                                     0        0.0000010       -0.00007675    0.00000000
                                                     2        0.1200000        0.05352699    0.00000000
                                                     2        0.1400000       -0.25123645    0.00000000
                                                     2        0.1600000        0.32188106    0.00000000
                                                     2        0.2200000       -0.25206857    0.00000000
                                                     2        0.3000000        0.19290477    0.00000000
                                                     2        0.5000000       -0.10129770    0.00000000
                                                     2        0.9000000        0.00314995    0.00000000
                                                     2        1.5000000        0.18401192    0.00000000
                                      S - F
                                                     0        0.0000010        0.08065976    0.00000000
                                                     2        0.1200000       -0.09231673    0.00000000
                                                     2        0.1600000       -0.03278082    0.00000000
                                                     2        0.2800000        0.38423402    0.00000000
                                                     2        0.6000000       -1.09357590    0.00000000
                                                     2        1.1000000        1.53099489    0.00000000
                                                     2        3.0000000       -2.63300202    0.00000000
                                      P - F
                                                     0        0.0000010       -0.11638665    0.00000000
                                                     2        0.1200000        0.35468655    0.00000000
                                                     2        0.1600000       -0.59160923    0.00000000
                                                     2        0.3000000        0.49390547    0.00000000
                                                     2        0.6000000       -0.37949835    0.00000000
                                                     2        1.6000000        0.89304688    0.00000000
                                      D - F
                                                     0        0.0000010        0.05443663    0.00000000
                                                     2        0.1200000       -0.29679479    0.00000000
                                                     2        0.1400000        0.36849872    0.00000000
                                                     2        0.2400000        0.02793449    0.00000000
                                                     2        0.4000000       -0.46312857    0.00000000
                                                     2        0.7000000        0.97587598    0.00000000
                                                     2        1.5000000       -2.43431102    0.00000000
    7          1            1
                                      F and up 
                                                     0        0.0000010       -0.00007675    0.00000000
                                                     2        0.1200000        0.05352699    0.00000000
                                                     2        0.1400000       -0.25123645    0.00000000
                                                     2        0.1600000        0.32188106    0.00000000
                                                     2        0.2200000       -0.25206857    0.00000000
                                                     2        0.3000000        0.19290477    0.00000000
                                                     2        0.5000000       -0.10129770    0.00000000
                                                     2        0.9000000        0.00314995    0.00000000
                                                     2        1.5000000        0.18401192    0.00000000
                                      S - F
                                                     0        0.0000010        0.08065976    0.00000000
                                                     2        0.1200000       -0.09231673    0.00000000
                                                     2        0.1600000       -0.03278082    0.00000000
                                                     2        0.2800000        0.38423402    0.00000000
                                                     2        0.6000000       -1.09357590    0.00000000
                                                     2        1.1000000        1.53099489    0.00000000
                                                     2        3.0000000       -2.63300202    0.00000000
                                      P - F
                                                     0        0.0000010       -0.11638665    0.00000000
                                                     2        0.1200000        0.35468655    0.00000000
                                                     2        0.1600000       -0.59160923    0.00000000
                                                     2        0.3000000        0.49390547    0.00000000
                                                     2        0.6000000       -0.37949835    0.00000000
                                                     2        1.6000000        0.89304688    0.00000000
                                      D - F
                                                     0        0.0000010        0.05443663    0.00000000
                                                     2        0.1200000       -0.29679479    0.00000000
                                                     2        0.1400000        0.36849872    0.00000000
                                                     2        0.2400000        0.02793449    0.00000000
                                                     2        0.4000000       -0.46312857    0.00000000
                                                     2        0.7000000        0.97587598    0.00000000
                                                     2        1.5000000       -2.43431102    0.00000000
    8          1            1
                                      F and up 
                                                     0        0.0000010       -0.00007675    0.00000000
                                                     2        0.1200000        0.05352699    0.00000000
                                                     2        0.1400000       -0.25123645    0.00000000
                                                     2        0.1600000        0.32188106    0.00000000
                                                     2        0.2200000       -0.25206857    0.00000000
                                                     2        0.3000000        0.19290477    0.00000000
                                                     2        0.5000000       -0.10129770    0.00000000
                                                     2        0.9000000        0.00314995    0.00000000
                                                     2        1.5000000        0.18401192    0.00000000
                                      S - F
                                                     0        0.0000010        0.08065976    0.00000000
                                                     2        0.1200000       -0.09231673    0.00000000
                                                     2        0.1600000       -0.03278082    0.00000000
                                                     2        0.2800000        0.38423402    0.00000000
                                                     2        0.6000000       -1.09357590    0.00000000
                                                     2        1.1000000        1.53099489    0.00000000
                                                     2        3.0000000       -2.63300202    0.00000000
                                      P - F
                                                     0        0.0000010       -0.11638665    0.00000000
                                                     2        0.1200000        0.35468655    0.00000000
                                                     2        0.1600000       -0.59160923    0.00000000
                                                     2        0.3000000        0.49390547    0.00000000
                                                     2        0.6000000       -0.37949835    0.00000000
                                                     2        1.6000000        0.89304688    0.00000000
                                      D - F
                                                     0        0.0000010        0.05443663    0.00000000
                                                     2        0.1200000       -0.29679479    0.00000000
                                                     2        0.1400000        0.36849872    0.00000000
                                                     2        0.2400000        0.02793449    0.00000000
                                                     2        0.4000000       -0.46312857    0.00000000
                                                     2        0.7000000        0.97587598    0.00000000
                                                     2        1.5000000       -2.43431102    0.00000000
    9          6            6
                                      G and up 
                                                     0        0.0000010       -0.00007288    0.00000000
                                                     2        0.1200000        0.10466671    0.00000000
                                                     2        0.1400000       -0.65716157    0.00000000
                                                     2        0.1600000        1.18890794    0.00000000
                                                     2        0.2000000       -1.25772850    0.00000000
                                                     2        0.2600000        1.01188378    0.00000000
                                                     2        0.4000000       -1.09380874    0.00000000
                                                     2        0.5000000        0.96944888    0.00000000
                                                     2        1.0000000       -0.79256938    0.00000000
                                                     2        3.0000000        1.06443276    0.00000000
                                      S - G
                                                     0        0.0000010       -0.00635295    0.00000000
                                                     2        0.1200000        0.16918955    0.00000000
                                                     2        0.1600000       -0.38862576    0.00000000
                                                     2        0.2800000        0.25638263    0.00000000
                                                     2        0.5000000        0.29628419    0.00000000
                                                     2        0.9000000       -0.28791512    0.00000000
                                      P - G
                                                     0        0.0000010       -0.04756931    0.00000000
                                                     2        0.1200000        0.28430375    0.00000000
                                                     2        0.1600000       -0.69640032    0.00000000
                                                     2        0.2600000        1.13005668    0.00000000
                                                     2        0.4000000       -1.31433324    0.00000000
                                                     2        0.7000000        0.91526469    0.00000000
                                      D - G
                                                     0        0.0000010       -0.11496411    0.00000000
                                                     2        0.1200000        0.16620776    0.00000000
                                                     2        0.1800000       -0.30959819    0.00000000
                                                     2        0.3000000        0.16621458    0.00000000
                                                     2        0.6000000        0.27350556    0.00000000
                                      F - G
                                                     0        0.0000010        0.12037550    0.00000000
                                                     2        0.1200000       -0.48737077    0.00000000
                                                     2        0.1400000        0.58315350    0.00000000
                                                     2        0.3000000        0.00005188    0.00000000
                                                     2        0.5000000       -1.16063549    0.00000000
                                                     2        0.8000000        2.09053308    0.00000000
   10          1            1
                                      F and up 
                                                     0        0.0000010       -0.00007675    0.00000000
                                                     2        0.1200000        0.05352699    0.00000000
                                                     2        0.1400000       -0.25123645    0.00000000
                                                     2        0.1600000        0.32188106    0.00000000
                                                     2        0.2200000       -0.25206857    0.00000000
                                                     2        0.3000000        0.19290477    0.00000000
                                                     2        0.5000000       -0.10129770    0.00000000
                                                     2        0.9000000        0.00314995    0.00000000
                                                     2        1.5000000        0.18401192    0.00000000
                                      S - F
                                                     0        0.0000010        0.08065976    0.00000000
                                                     2        0.1200000       -0.09231673    0.00000000
                                                     2        0.1600000       -0.03278082    0.00000000
                                                     2        0.2800000        0.38423402    0.00000000
                                                     2        0.6000000       -1.09357590    0.00000000
                                                     2        1.1000000        1.53099489    0.00000000
                                                     2        3.0000000       -2.63300202    0.00000000
                                      P - F
                                                     0        0.0000010       -0.11638665    0.00000000
                                                     2        0.1200000        0.35468655    0.00000000
                                                     2        0.1600000       -0.59160923    0.00000000
                                                     2        0.3000000        0.49390547    0.00000000
                                                     2        0.6000000       -0.37949835    0.00000000
                                                     2        1.6000000        0.89304688    0.00000000
                                      D - F
                                                     0        0.0000010        0.05443663    0.00000000
                                                     2        0.1200000       -0.29679479    0.00000000
                                                     2        0.1400000        0.36849872    0.00000000
                                                     2        0.2400000        0.02793449    0.00000000
                                                     2        0.4000000       -0.46312857    0.00000000
                                                     2        0.7000000        0.97587598    0.00000000
                                                     2        1.5000000       -2.43431102    0.00000000
   11          1            1
                                      F and up 
                                                     0        0.0000010       -0.00007675    0.00000000
                                                     2        0.1200000        0.05352699    0.00000000
                                                     2        0.1400000       -0.25123645    0.00000000
                                                     2        0.1600000        0.32188106    0.00000000
[...]
                                                     0        0.0000010       -0.11638665    0.00000000
                                                     2        0.1200000        0.35468655    0.00000000
                                                     2        0.1600000       -0.59160923    0.00000000
                                                     2        0.3000000        0.49390547    0.00000000
                                                     2        0.6000000       -0.37949835    0.00000000
                                                     2        1.6000000        0.89304688    0.00000000
                                      D - F
                                                     0        0.0000010        0.05443663    0.00000000
                                                     2        0.1200000       -0.29679479    0.00000000
                                                     2        0.1400000        0.36849872    0.00000000
                                                     2        0.2400000        0.02793449    0.00000000
                                                     2        0.4000000       -0.46312857    0.00000000
                                                     2        0.7000000        0.97587598    0.00000000
                                                     2        1.5000000       -2.43431102    0.00000000
 ======================================================================================================
   196 basis functions,   362 primitive gaussians,   208 cartesian basis functions
    28 alpha electrons       27 beta electrons
       nuclear repulsion energy       291.2947358583 Hartrees.
 NAtoms=   12 NActive=   12 NUniq=   12 SFac= 1.00D+00 NAtFMM=   60 NAOKFM=F Big=F
   1 Symmetry operations used in ECPInt.
 ECPInt:  NShTT=    3741 NPrTT=   20465 LenC2=    3735 LenP2D=   15566.
 LDataN:  DoStor=T MaxTD1= 6 Len=  172
 Initial guess from the checkpoint file:  "BDE49_nonexpt_2566_mol2.chk"
 B after Tr=    -0.000000    0.000000    0.000000
         Rot=    1.000000   -0.000000    0.000000   -0.000000 Ang=   0.00 deg.
 Initial guess <Sx>= 0.0000 <Sy>= 0.0000 <Sz>= 0.5000 <S**2>= 0.7627 S= 0.5063
 >>>>>>>>>> Convergence criterion not met.
 SCF Done:  E(UHF) =  -644.259999761     A.U. after    2 cycles
            NFock=  1  Conv=0.99D-02     -V/T= 2.0021
 <Sx>= 0.0000 <Sy>= 0.0000 <Sz>= 0.5000 <S**2>= 0.7621 S= 0.5060
 <L.S>=  0.00000000000    
 Annihilation of the first spin contaminant:
 S**2 before annihilation     0.7621,   after     0.7501

 **********************************************************************

            Population analysis using the SCF Density.

 **********************************************************************

 Orbital symmetries:
 Alpha Orbitals:
       Occupied  (A) (A) (A) (A) (A) (A) (A) (A) (A) (A) (A) (A)
                 (A) (A) (A) (A) (A) (A) (A) (A) (A) (A) (A) (A)
                 (A) (A) (A) (A)
       Virtual   (A) (A) (A) (A) (A) (A) (A) (A) (A) (A) (A) (A)
                 (A) (A) (A) (A) (A) (A) (A) (A) (A) (A) (A) (A)
                 (A) (A) (A) (A) (A) (A) (A) (A) (A) (A) (A) (A)
                 (A) (A) (A) (A) (A) (A) (A) (A) (A) (A) (A) (A)
                 (A) (A) (A) (A) (A) (A) (A) (A) (A) (A) (A) (A)
                 (A) (A) (A) (A) (A) (A) (A) (A) (A) (A) (A) (A)
                 (A) (A) (A) (A) (A) (A) (A) (A) (A) (A) (A) (A)
                 (A) (A) (A) (A) (A) (A) (A) (A) (A) (A) (A) (A)
                 (A) (A) (A) (A) (A) (A) (A) (A) (A) (A) (A) (A)
                 (A) (A) (A) (A) (A) (A) (A) (A) (A) (A) (A) (A)
                 (A) (A) (A) (A) (A) (A) (A) (A) (A) (A) (A) (A)
                 (A) (A) (A) (A) (A) (A) (A) (A) (A) (A) (A) (A)
                 (A) (A) (A) (A) (A) (A) (A) (A) (A) (A) (A) (A)
                 (A) (A) (A) (A) (A) (A) (A) (A) (A) (A) (A) (A)
 Beta  Orbitals:
       Occupied  (A) (A) (A) (A) (A) (A) (A) (A) (A) (A) (A) (A)
                 (A) (A) (A) (A) (A) (A) (A) (A) (A) (A) (A) (A)
                 (A) (A) (A)
       Virtual   (A) (A) (A) (A) (A) (A) (A) (A) (A) (A) (A) (A)
                 (A) (A) (A) (A) (A) (A) (A) (A) (A) (A) (A) (A)
                 (A) (A) (A) (A) (A) (A) (A) (A) (A) (A) (A) (A)
                 (A) (A) (A) (A) (A) (A) (A) (A) (A) (A) (A) (A)
                 (A) (A) (A) (A) (A) (A) (A) (A) (A) (A) (A) (A)
                 (A) (A) (A) (A) (A) (A) (A) (A) (A) (A) (A) (A)
                 (A) (A) (A) (A) (A) (A) (A) (A) (A) (A) (A) (A)
                 (A) (A) (A) (A) (A) (A) (A) (A) (A) (A) (A) (A)
                 (A) (A) (A) (A) (A) (A) (A) (A) (A) (A) (A) (A)
                 (A) (A) (A) (A) (A) (A) (A) (A) (A) (A) (A) (A)
                 (A) (A) (A) (A) (A) (A) (A) (A) (A) (A) (A) (A)
                 (A) (A) (A) (A) (A) (A) (A) (A) (A) (A) (A) (A)
                 (A) (A) (A) (A) (A) (A) (A) (A) (A) (A) (A) (A)
                 (A) (A) (A) (A) (A) (A) (A) (A) (A) (A) (A) (A)
                 (A)
 The electronic state is 2-A.
 Alpha  occ. eigenvalues --  -93.99140 -20.52191 -15.54834 -11.39303 -11.29550
 Alpha  occ. eigenvalues --  -11.27995  -8.27320  -6.26490  -6.24695  -6.24385
 Alpha  occ. eigenvalues --   -1.47358  -1.27809  -1.07265  -1.00314  -0.96676
 Alpha  occ. eigenvalues --   -0.77778  -0.69685  -0.69247  -0.69095  -0.59506
 Alpha  occ. eigenvalues --   -0.58718  -0.57927  -0.56870  -0.56732  -0.48686
 Alpha  occ. eigenvalues --   -0.41867  -0.41821  -0.40595
 Alpha virt. eigenvalues --    0.02986   0.04250   0.04482   0.05344   0.06675
 Alpha virt. eigenvalues --    0.07316   0.08036   0.09348   0.11696   0.12209
 Alpha virt. eigenvalues --    0.13733   0.13786   0.13996   0.14936   0.15528
 Alpha virt. eigenvalues --    0.16871   0.17095   0.17971   0.18058   0.19028
 Alpha virt. eigenvalues --    0.19518   0.20203   0.22688   0.24909   0.24988
 Alpha virt. eigenvalues --    0.25781   0.26044   0.29403   0.30092   0.30349
 Alpha virt. eigenvalues --    0.31968   0.32970   0.33173   0.35054   0.36092
 Alpha virt. eigenvalues --    0.37091   0.37628   0.38598   0.41175   0.41770
 Alpha virt. eigenvalues --    0.42886   0.43472   0.43836   0.45367   0.45578
 Alpha virt. eigenvalues --    0.46419   0.46527   0.49274   0.50613   0.50864
 Alpha virt. eigenvalues --    0.53247   0.55041   0.55818   0.57739   0.58232
 Alpha virt. eigenvalues --    0.59324   0.60419   0.61361   0.61364   0.62045
 Alpha virt. eigenvalues --    0.64117   0.64610   0.65596   0.67916   0.68919
 Alpha virt. eigenvalues --    0.70958   0.71071   0.71728   0.71764   0.74183
 Alpha virt. eigenvalues --    0.75333   0.75484   0.78187   0.80100   0.80609
 Alpha virt. eigenvalues --    0.80995   0.86790   0.87117   0.87418   0.89083
 Alpha virt. eigenvalues --    0.90222   0.95940   0.97449   0.99366   1.00847
 Alpha virt. eigenvalues --    1.01472   1.05107   1.08419   1.08520   1.11837
 Alpha virt. eigenvalues --    1.14450   1.15799   1.15976   1.18275   1.20352
 Alpha virt. eigenvalues --    1.20867   1.23124   1.25381   1.26132   1.26356
 Alpha virt. eigenvalues --    1.29456   1.32859   1.36713   1.36766   1.43690
 Alpha virt. eigenvalues --    1.46352   1.47233   1.48298   1.53760   1.58904
 Alpha virt. eigenvalues --    1.61494   1.61758   1.62781   1.71086   1.74282
 Alpha virt. eigenvalues --    1.76271   1.80284   1.82521   1.83338   1.86174
 Alpha virt. eigenvalues --    1.88117   1.93863   1.94336   1.94580   1.96378
 Alpha virt. eigenvalues --    2.01422   2.04006   2.06154   2.09519   2.12020
 Alpha virt. eigenvalues --    2.15457   2.18210   2.18664   2.21183   2.26550
 Alpha virt. eigenvalues --    2.28025   2.29068   2.29311   2.32866   2.35885
 Alpha virt. eigenvalues --    2.37432   2.44602   2.46669   2.49766   2.52630
 Alpha virt. eigenvalues --    2.55286   2.57258   2.60993   2.65864   2.69216
 Alpha virt. eigenvalues --    2.71214   2.76453   2.78647   2.82422   2.92573
 Alpha virt. eigenvalues --    2.96473   2.99940   3.05257   3.09182   3.09381
 Alpha virt. eigenvalues --    3.19147   3.30366   3.39119   3.86797   3.91529
 Alpha virt. eigenvalues --    3.97685   4.02669   4.23425
  Beta  occ. eigenvalues --  -93.98220 -20.51798 -15.54873 -11.39420 -11.29479
  Beta  occ. eigenvalues --  -11.27994  -8.26261  -6.24201  -6.23814  -6.22400
  Beta  occ. eigenvalues --   -1.46472  -1.27741  -1.02389  -0.99872  -0.93968
  Beta  occ. eigenvalues --   -0.77253  -0.69292  -0.68788  -0.67139  -0.59046
  Beta  occ. eigenvalues --   -0.58684  -0.56655  -0.56606  -0.56471  -0.41829
  Beta  occ. eigenvalues --   -0.41636  -0.38421
  Beta virt. eigenvalues --   -0.00362   0.03073   0.04381   0.04485   0.05459
  Beta virt. eigenvalues --    0.06681   0.07370   0.08229   0.09527   0.11724
  Beta virt. eigenvalues --    0.12431   0.13763   0.13848   0.14431   0.15051
  Beta virt. eigenvalues --    0.15667   0.17158   0.17516   0.18104   0.18197
  Beta virt. eigenvalues --    0.19078   0.19807   0.20617   0.23513   0.25071
  Beta virt. eigenvalues --    0.25793   0.26140   0.26204   0.29433   0.30331
  Beta virt. eigenvalues --    0.30635   0.32181   0.33222   0.33398   0.35175
  Beta virt. eigenvalues --    0.36655   0.37858   0.39381   0.40224   0.41900
  Beta virt. eigenvalues --    0.42558   0.43482   0.43935   0.44075   0.45781
  Beta virt. eigenvalues --    0.46399   0.46658   0.47552   0.49974   0.50685
  Beta virt. eigenvalues --    0.50928   0.53770   0.55723   0.56236   0.57862
  Beta virt. eigenvalues --    0.58396   0.59787   0.60546   0.61429   0.61608
  Beta virt. eigenvalues --    0.62714   0.64121   0.64707   0.66221   0.68127
  Beta virt. eigenvalues --    0.69340   0.71267   0.71715   0.71807   0.73052
  Beta virt. eigenvalues --    0.74468   0.75499   0.75627   0.78819   0.80592
  Beta virt. eigenvalues --    0.80793   0.81107   0.87059   0.87469   0.88355
  Beta virt. eigenvalues --    0.89394   0.90703   0.96064   0.97605   1.00089
  Beta virt. eigenvalues --    1.01302   1.01646   1.05414   1.08602   1.11001
  Beta virt. eigenvalues --    1.11950   1.15092   1.16082   1.16585   1.19387
  Beta virt. eigenvalues --    1.21499   1.22145   1.23836   1.26899   1.28330
  Beta virt. eigenvalues --    1.29020   1.31418   1.32965   1.36975   1.39012
  Beta virt. eigenvalues --    1.45282   1.46412   1.47491   1.48458   1.54277
  Beta virt. eigenvalues --    1.59345   1.61509   1.62384   1.62784   1.71212
  Beta virt. eigenvalues --    1.74648   1.76312   1.80324   1.82576   1.83463
  Beta virt. eigenvalues --    1.86246   1.88465   1.93875   1.94582   1.94586
  Beta virt. eigenvalues --    1.96489   2.01497   2.04187   2.06226   2.09773
  Beta virt. eigenvalues --    2.12365   2.15452   2.18190   2.18745   2.21322
  Beta virt. eigenvalues --    2.26746   2.28000   2.29228   2.29296   2.32946
  Beta virt. eigenvalues --    2.35981   2.37469   2.44602   2.46751   2.49789
  Beta virt. eigenvalues --    2.52700   2.55285   2.57370   2.61041   2.65861
  Beta virt. eigenvalues --    2.69237   2.71215   2.76505   2.78763   2.82460
  Beta virt. eigenvalues --    2.92623   2.96539   2.99960   3.05272   3.09269
  Beta virt. eigenvalues --    3.09395   3.19214   3.30598   3.39235   3.87542
  Beta virt. eigenvalues --    3.91767   3.98412   4.03264   4.23867
          Condensed to atoms (all electrons):
          Atomic-Atomic Spin Densities.
 Mulliken charges and spin densities:
               1          2
     1  S    0.342546   1.062644
     2  C    0.076604  -0.081064
     3  O   -1.108903   0.051502
     4  N    0.709568  -0.026155
     5  C   -0.461220   0.014012
     6  H    0.069162  -0.009182
     7  H    0.179503  -0.000038
     8  H    0.179509  -0.000038
     9  C   -0.355806  -0.009945
    10  H    0.004764  -0.001409
    11  H    0.182145  -0.000164
    12  H    0.182127  -0.000164
 Sum of Mulliken charges =  -0.00000   1.00000
 Mulliken charges and spin densities with hydrogens summed into heavy atoms:
               1          2
     1  S    0.342546   1.062644
     2  C    0.076604  -0.081064
     3  O   -1.108903   0.051502
     4  N    0.709568  -0.026155
     5  C   -0.033046   0.004754
     9  C    0.013231  -0.011682
 Electronic spatial extent (au):  <R**2>=            742.9452
 Charge=              0.0000 electrons
 Dipole moment (field-independent basis, Debye):
    X=              2.7097    Y=              3.2441    Z=              0.0001  Tot=              4.2269
                          Isotropic Fermi Contact Couplings
        Atom                 a.u.       MegaHertz       Gauss      10(-4) cm-1
     1  S(33)              0.21380      73.43348      26.20289      24.49477
     2  C(13)             -0.02199     -24.72578      -8.82277      -8.24763
     3  O(17)              0.04449     -26.96699      -9.62249      -8.99522
     4  N(14)             -0.01093      -3.53119      -1.26002      -1.17788
     5  C(13)              0.01203      13.52329       4.82545       4.51088
     6  H(1)              -0.00027      -1.20298      -0.42925      -0.40127
     7  H(1)              -0.00003      -0.15357      -0.05480      -0.05123
     8  H(1)              -0.00003      -0.15360      -0.05481      -0.05124
     9  C(13)              0.00002       0.01915       0.00683       0.00639
    10  H(1)               0.00019       0.83362       0.29746       0.27807
    11  H(1)               0.00004       0.17984       0.06417       0.05999
    12  H(1)               0.00004       0.17993       0.06420       0.06002
 --------------------------------------------------------
       Center         ----  Spin Dipole Couplings  ----
                      3XX-RR        3YY-RR        3ZZ-RR
 --------------------------------------------------------
     1   Atom       -1.332997      3.295548     -1.962551
     2   Atom        0.015126      0.007627     -0.022754
     3   Atom        0.196634     -0.068327     -0.128307
     4   Atom        0.014503      0.003155     -0.017658
     5   Atom        0.029624     -0.012622     -0.017001
     6   Atom        0.018781     -0.002807     -0.015974
     7   Atom        0.003873     -0.002683     -0.001190
     8   Atom        0.003873     -0.002683     -0.001190
     9   Atom        0.003757     -0.001670     -0.002088
    10   Atom        0.003534     -0.001026     -0.002508
    11   Atom        0.002273     -0.001051     -0.001222
    12   Atom        0.002273     -0.001051     -0.001222
 --------------------------------------------------------
                        XY            XZ            YZ
 --------------------------------------------------------
     1   Atom        2.038835      0.000165      0.000435
     2   Atom       -0.001650      0.000003     -0.000001
     3   Atom       -0.193044      0.000034     -0.000018
     4   Atom       -0.006438      0.000002      0.000001
     5   Atom       -0.005207      0.000001     -0.000000
     6   Atom        0.012842      0.000000     -0.000000
     7   Atom        0.002496     -0.002680     -0.001474
     8   Atom        0.002496      0.002680      0.001475
     9   Atom        0.001359      0.000000     -0.000000
    10   Atom       -0.001660      0.000000     -0.000000
    11   Atom       -0.000465      0.000709     -0.000154
    12   Atom       -0.000465     -0.000709      0.000154
 --------------------------------------------------------


 ---------------------------------------------------------------------------------
              Anisotropic Spin Dipole Couplings in Principal Axis System
 ---------------------------------------------------------------------------------

       Atom             a.u.   MegaHertz   Gauss  10(-4) cm-1        Axes

              Baa    -2.1030   -86.221   -30.766   -28.760  0.9355 -0.3533 -0.0000
     1 S(33)  Bbb    -1.9626   -80.463   -28.711   -26.839 -0.0000 -0.0001  1.0000
              Bcc     4.0655   166.684    59.477    55.600  0.3533  0.9355  0.0001
 
              Baa    -0.0228    -3.053    -1.090    -1.018 -0.0001  0.0000  1.0000
     2 C(13)  Bbb     0.0073     0.977     0.349     0.326  0.2058  0.9786 -0.0000
              Bcc     0.0155     2.076     0.741     0.693  0.9786 -0.2058  0.0001
 
              Baa    -0.1700    12.299     4.389     4.103  0.4659  0.8848  0.0000
     3 O(17)  Bbb    -0.1283     9.284     3.313     3.097 -0.0001  0.0000  1.0000
              Bcc     0.2983   -21.584    -7.702    -7.200  0.8848 -0.4659  0.0001
 
              Baa    -0.0177    -0.681    -0.243    -0.227 -0.0001 -0.0001  1.0000
     4 N(14)  Bbb     0.0002     0.010     0.003     0.003  0.4116  0.9114  0.0001
              Bcc     0.0174     0.671     0.240     0.224  0.9114 -0.4116  0.0000
 
              Baa    -0.0170    -2.281    -0.814    -0.761 -0.0000  0.0000  1.0000
     5 C(13)  Bbb    -0.0133    -1.779    -0.635    -0.593  0.1206  0.9927 -0.0000
              Bcc     0.0303     4.060     1.449     1.354  0.9927 -0.1206  0.0000
 
              Baa    -0.0160    -8.523    -3.041    -2.843 -0.0000  0.0000  1.0000
     6 H(1)   Bbb    -0.0088    -4.690    -1.673    -1.564 -0.4222  0.9065 -0.0000
              Bcc     0.0248    13.212     4.714     4.407  0.9065  0.4222  0.0000
 
              Baa    -0.0037    -1.987    -0.709    -0.663 -0.1812  0.9212  0.3443
     7 H(1)   Bbb    -0.0023    -1.205    -0.430    -0.402  0.4663 -0.2278  0.8548
              Bcc     0.0060     3.193     1.139     1.065  0.8659  0.3154 -0.3883
 
              Baa    -0.0037    -1.987    -0.709    -0.663 -0.1811  0.9212 -0.3443
     8 H(1)   Bbb    -0.0023    -1.205    -0.430    -0.402 -0.4663  0.2278  0.8548
              Bcc     0.0060     3.193     1.139     1.065  0.8659  0.3154  0.3883
 
              Baa    -0.0021    -0.280    -0.100    -0.093 -0.0003  0.0010  1.0000
     9 C(13)  Bbb    -0.0020    -0.267    -0.095    -0.089 -0.2300  0.9732 -0.0011
              Bcc     0.0041     0.547     0.195     0.183  0.9732  0.2300  0.0000
 
              Baa    -0.0025    -1.338    -0.477    -0.446 -0.0000 -0.0000  1.0000
    10 H(1)   Bbb    -0.0016    -0.835    -0.298    -0.279  0.3095  0.9509  0.0000
              Bcc     0.0041     2.174     0.776     0.725  0.9509 -0.3095  0.0000
 
              Baa    -0.0014    -0.734    -0.262    -0.245 -0.1573  0.2306  0.9603
    11 H(1)   Bbb    -0.0011    -0.589    -0.210    -0.196  0.1754  0.9634 -0.2026
              Bcc     0.0025     1.322     0.472     0.441  0.9719 -0.1365  0.1920
 
              Baa    -0.0014    -0.734    -0.262    -0.245  0.1572 -0.2308  0.9602
    12 H(1)   Bbb    -0.0011    -0.589    -0.210    -0.196  0.1754  0.9634  0.2028
              Bcc     0.0025     1.322     0.472     0.441  0.9719 -0.1365 -0.1919
 

 ---------------------------------------------------------------------------------


 Test job not archived.
 1\1\GINC-SE103\SP\UHF\Aug-CC-pVDZ\C3H6N1O1S1(2)\OHZDE\09-Apr-2025\0\\#
 t hf aug-cc-pvdz iop(5/13=1,5/36=2,99/5=2) pseudo=read geom=check gues
 s=(read,tcheck) scf=(maxcycle=1)\\title\\0,2\S,0,-1.855093,0.363311,-0
 .000037\C,0,-0.30872,-0.476816,0.000048\O,0,-0.456879,-1.697974,-0.000
 031\N,0,0.87947,0.164353,0.000026\C,0,1.000977,1.610268,0.000022\H,0,0
 .010271,2.065461,-0.000001\H,0,1.538956,1.950597,-0.890676\H,0,1.53891
 8,1.950605,0.89074\C,0,2.11176,-0.616252,0.000019\H,0,1.855484,-1.6735
 18,0.000019\H,0,2.706256,-0.388007,0.890244\H,0,2.706249,-0.388004,-0.
 890211\\Version=ES64L-G16RevC.01\State=2-A\HF=-644.2599998\S2=0.76206\
 S2-1=0.\S2A=0.75006\RMSD=9.906e-03\Dipole=1.0660698,1.2763298,0.000047
 \Quadrupole=2.7607837,-1.7406957,-1.020088,-0.9520809,0.0001179,-0.000
 0472\PG=C01 [X(C3H6N1O1S1)]\\@


 YOU CANNOT THROW TO THE GROUND THE LETTERS OF
 THE GREEK ALPHABET AND PICK UP THE ILIAD.
        - RUFUS CHOATE, 1799-1859
 Job cpu time:       0 days  0 hours  1 minutes  0.1 seconds.
 Elapsed time:       0 days  0 hours  0 minutes  5.4 seconds.
 File lengths (MBytes):  RWF=     10 Int=      0 D2E=      0 Chk=      7 Scr=      1
 Normal termination of Gaussian 16 at Wed Apr  9 00:18:34 2025.
