 Entering Gaussian System, Link 0=g16
 Input=BDE49_expt_1913_mol1.gjf
 Output=BDE49_expt_1913_mol1.log
 Initial command:
 /arc/software/Gaussian/g16.c01/l1.exe "/tmp/slurm/4842705/Gau-2521782.inp" -scrdir="/tmp/slurm/4842705/"
 Entering Link 1 = /arc/software/Gaussian/g16.c01/l1.exe PID=   2521783.
  
 Copyright (c) 1988-2019, Gaussian, Inc.  All Rights Reserved.
  
 This is part of the Gaussian(R) 16 program.  It is based on
 the Gaussian(R) 09 system (copyright 2009, Gaussian, Inc.),
 the Gaussian(R) 03 system (copyright 2003, Gaussian, Inc.),
 the Gaussian(R) 98 system (copyright 1998, Gaussian, Inc.),
 the Gaussian(R) 94 system (copyright 1995, Gaussian, Inc.),
 the Gaussian 92(TM) system (copyright 1992, Gaussian, Inc.),
 the Gaussian 90(TM) system (copyright 1990, Gaussian, Inc.),
 the Gaussian 88(TM) system (copyright 1988, Gaussian, Inc.),
 the Gaussian 86(TM) system (copyright 1986, Carnegie Mellon
 University), and the Gaussian 82(TM) system (copyright 1983,
 Carnegie Mellon University). Gaussian is a federally registered
 trademark of Gaussian, Inc.
  
 This software contains proprietary and confidential information,
 including trade secrets, belonging to Gaussian, Inc.
  
 This software is provided under written license and may be
 used, copied, transmitted, or stored only in accord with that
 written license.
  
 The following legend is applicable only to US Government
 contracts under FAR:
  
                    RESTRICTED RIGHTS LEGEND
  
 Use, reproduction and disclosure by the US Government is
 subject to restrictions as set forth in subparagraphs (a)
 and (c) of the Commercial Computer Software - Restricted
 Rights clause in FAR 52.227-19.
  
 Gaussian, Inc.
 340 Quinnipiac St., Bldg. 40, Wallingford CT 06492
  
  
 ---------------------------------------------------------------
 Warning -- This program may not be used in any manner that
 competes with the business of Gaussian, Inc. or will provide
 assistance to any competitor of Gaussian, Inc.  The licensee
 of this program is prohibited from giving any competitor of
 Gaussian, Inc. access to this program.  By using this program,
 the user acknowledges that Gaussian, Inc. is engaged in the
 business of creating and licensing software in the field of
 computational chemistry and represents and warrants to the
 licensee that it is not a competitor of Gaussian, Inc. and that
 it will not use this program in any manner prohibited above.
 ---------------------------------------------------------------
  

 Cite this work as:
 Gaussian 16, Revision C.01,
 M. J. Frisch, G. W. Trucks, H. B. Schlegel, G. E. Scuseria, 
 M. A. Robb, J. R. Cheeseman, G. Scalmani, V. Barone, 
 G. A. Petersson, H. Nakatsuji, X. Li, M. Caricato, A. V. Marenich, 
 J. Bloino, B. G. Janesko, R. Gomperts, B. Mennucci, H. P. Hratchian, 
 J. V. Ortiz, A. F. Izmaylov, J. L. Sonnenberg, D. Williams-Young, 
 F. Ding, F. Lipparini, F. Egidi, J. Goings, B. Peng, A. Petrone, 
 T. Henderson, D. Ranasinghe, V. G. Zakrzewski, J. Gao, N. Rega, 
 G. Zheng, W. Liang, M. Hada, M. Ehara, K. Toyota, R. Fukuda, 
 J. Hasegawa, M. Ishida, T. Nakajima, Y. Honda, O. Kitao, H. Nakai, 
 T. Vreven, K. Throssell, J. A. Montgomery, Jr., J. E. Peralta, 
 F. Ogliaro, M. J. Bearpark, J. J. Heyd, E. N. Brothers, K. N. Kudin, 
 V. N. Staroverov, T. A. Keith, R. Kobayashi, J. Normand, 
 K. Raghavachari, A. P. Rendell, J. C. Burant, S. S. Iyengar, 
 J. Tomasi, M. Cossi, J. M. Millam, M. Klene, C. Adamo, R. Cammi, 
 J. W. Ochterski, R. L. Martin, K. Morokuma, O. Farkas, 
 J. B. Foresman, and D. J. Fox, Gaussian, Inc., Wallingford CT, 2019.
 
 ******************************************
 Gaussian 16:  ES64L-G16RevC.01  3-Jul-2019
                 8-Apr-2025 
 ******************************************
 %nprocs=16
 Will use up to   16 processors via shared memory.
 %mem=30GB
 %chk=BDE49_expt_1913_mol1.chk
 ----------------------------------------------------------------------
 #t hf aug-cc-pvdz symm=none int=(grid=ultrafine) guess=(read,tcheck) s
 table=(opt,rrhf)
 ----------------------------------------------------------------------
 -----
 title
 -----
 Symbolic Z-matrix:
 Charge =  0 Multiplicity = 1
 O                     0.       -1.31576  -0.46798 
 S                     0.        0.        0.55886 
 H                    -0.91563  -1.48633  -0.72704 
 O                     0.        1.31576  -0.46798 
 H                     0.91563   1.48633  -0.72704 
 
                    Distance matrix (angstroms):
                    1          2          3          4          5
     1  O    0.000000
     2  S    1.669017   0.000000
     3  H    0.966734   2.168195   0.000000
     4  O    2.631522   1.669017   2.959251   0.000000
     5  H    2.959251   2.168195   3.491436   0.966734   0.000000
 Symmetry turned off by external request.
 Rotational constants (GHZ):          25.8023086           8.2142841           6.4800877
    91 basis functions,   189 primitive gaussians,    97 cartesian basis functions
    17 alpha electrons       17 beta electrons
       nuclear repulsion energy       113.6179228924 Hartrees.
 NAtoms=    5 NActive=    5 NUniq=    5 SFac= 1.00D+00 NAtFMM=   60 NAOKFM=F Big=F
 ExpMin= 2.97D-02 ExpMax= 1.11D+05 ExpMxC= 1.07D+03 IAcc=3 IRadAn=         5 AccDes= 0.00D+00
 Harris functional with IExCor=  205 and IRadAn=       5 diagonalized for initial guess.
 HarFok:  IExCor=  205 AccDes= 0.00D+00 IRadAn=         5 IDoV= 1 UseB2=F ITyADJ=14
 ICtDFT=  3500011 ScaDFX=  1.000000  1.000000  1.000000  1.000000
 FoFCou: FMM=F IPFlag=           0 FMFlag=      100000 FMFlg1=           0
         NFxFlg=           0 DoJE=T BraDBF=F KetDBF=T FulRan=T
         wScrn=  0.000000 ICntrl=       500 IOpCl=  0 I1Cent=   200000004 NGrid=           0
         NMat0=    1 NMatS0=      1 NMatT0=    0 NMatD0=    1 NMtDS0=    0 NMtDT0=    0
 Symmetry not used in FoFCou.
 SCF Done:  E(RHF) =  -548.396451640     A.U. after   13 cycles
            NFock= 13  Conv=0.26D-08     -V/T= 2.0007

 **********************************************************************

            Population analysis using the SCF Density.

 **********************************************************************

 Alpha  occ. eigenvalues --  -92.06265 -20.62137 -20.62136  -9.05144  -6.73349
 Alpha  occ. eigenvalues --   -6.73141  -6.72818  -1.41849  -1.37018  -0.93025
 Alpha  occ. eigenvalues --   -0.74173  -0.66331  -0.62699  -0.61187  -0.51972
 Alpha  occ. eigenvalues --   -0.49178  -0.37067
 Alpha virt. eigenvalues --    0.03630   0.04654   0.08283   0.09337   0.12498
 Alpha virt. eigenvalues --    0.16695   0.17887   0.18285   0.20699   0.21120
 Alpha virt. eigenvalues --    0.22432   0.23360   0.24124   0.27734   0.32032
 Alpha virt. eigenvalues --    0.32761   0.36370   0.36736   0.41573   0.43433
 Alpha virt. eigenvalues --    0.46014   0.50329   0.50798   0.51626   0.53722
 Alpha virt. eigenvalues --    0.60717   0.64143   0.65861   0.67686   0.84865
 Alpha virt. eigenvalues --    0.86024   0.89095   0.93554   0.97939   0.98530
 Alpha virt. eigenvalues --    1.02396   1.05649   1.06199   1.11171   1.15058
 Alpha virt. eigenvalues --    1.16578   1.23398   1.24871   1.26752   1.29162
 Alpha virt. eigenvalues --    1.33651   1.41942   1.42829   1.49445   1.50998
 Alpha virt. eigenvalues --    1.60675   1.66365   1.68107   1.73948   2.04371
 Alpha virt. eigenvalues --    2.09639   2.17652   2.26620   2.41607   2.49374
 Alpha virt. eigenvalues --    2.69200   2.69779   2.89592   2.96547   3.63214
 Alpha virt. eigenvalues --    3.63378   3.65483   3.65931   3.70085   3.71011
 Alpha virt. eigenvalues --    3.71538   3.77585   4.16779   4.18627
          Condensed to atoms (all electrons):
 Mulliken charges:
               1
     1  O   -0.711923
     2  S    1.034871
     3  H    0.194488
     4  O   -0.711923
     5  H    0.194488
 Sum of Mulliken charges =  -0.00000
 Mulliken charges with hydrogens summed into heavy atoms:
               1
     1  O   -0.517435
     2  S    1.034871
     4  O   -0.517435
 Electronic spatial extent (au):  <R**2>=            208.0044
 Charge=             -0.0000 electrons
 Dipole moment (field-independent basis, Debye):
    X=              0.0000    Y=             -0.0000    Z=             -0.3816  Tot=              0.3816
 NROrb=     91 NOA=    17 NOB=    17 NVA=    74 NVB=    74
    12 initial guesses have been made.
 Iteration     1 Dimension    12 NMult     0 NNew     12
 New state      1 was old state      2
 Iteration     2 Dimension    24 NMult    12 NNew     12
 Iteration     3 Dimension    27 NMult    24 NNew      3
 Iteration     4 Dimension    30 NMult    27 NNew      3
 Iteration     5 Dimension    33 NMult    30 NNew      3
 ***********************************************************************
 Stability analysis using <AA,BB:AA,BB> singles matrix:
 ***********************************************************************
 Ground to excited state transition densities written to RWF  633

 Eigenvectors of the stability matrix:
 
 Excited state symmetry could not be determined.
 Eigenvector   1:      Singlet-?Sym  Eigenvalue= 0.2010273  <S**2>=0.000
      17 -> 19         0.29213
      17 -> 21        -0.41756
      17 -> 22        -0.18709
      17 -> 24         0.34203
      17 -> 29         0.25274
 The wavefunction is stable under the perturbations considered.
 The wavefunction is already stable.

 **********************************************************************

            Population analysis using the SCF Density.

 **********************************************************************

 Alpha  occ. eigenvalues --  -92.06265 -20.62137 -20.62136  -9.05144  -6.73349
 Alpha  occ. eigenvalues --   -6.73141  -6.72818  -1.41849  -1.37018  -0.93025
 Alpha  occ. eigenvalues --   -0.74173  -0.66331  -0.62699  -0.61187  -0.51972
 Alpha  occ. eigenvalues --   -0.49178  -0.37067
 Alpha virt. eigenvalues --    0.03630   0.04654   0.08283   0.09337   0.12498
 Alpha virt. eigenvalues --    0.16695   0.17887   0.18285   0.20699   0.21120
 Alpha virt. eigenvalues --    0.22432   0.23360   0.24124   0.27734   0.32032
 Alpha virt. eigenvalues --    0.32761   0.36370   0.36736   0.41573   0.43433
 Alpha virt. eigenvalues --    0.46014   0.50329   0.50798   0.51626   0.53722
 Alpha virt. eigenvalues --    0.60717   0.64143   0.65861   0.67686   0.84865
 Alpha virt. eigenvalues --    0.86024   0.89095   0.93554   0.97939   0.98530
 Alpha virt. eigenvalues --    1.02396   1.05649   1.06199   1.11171   1.15058
 Alpha virt. eigenvalues --    1.16578   1.23398   1.24871   1.26752   1.29162
 Alpha virt. eigenvalues --    1.33651   1.41942   1.42829   1.49445   1.50998
 Alpha virt. eigenvalues --    1.60675   1.66365   1.68107   1.73948   2.04371
 Alpha virt. eigenvalues --    2.09639   2.17652   2.26620   2.41607   2.49374
 Alpha virt. eigenvalues --    2.69200   2.69779   2.89592   2.96547   3.63214
 Alpha virt. eigenvalues --    3.63378   3.65483   3.65931   3.70085   3.71011
 Alpha virt. eigenvalues --    3.71538   3.77585   4.16779   4.18627
          Condensed to atoms (all electrons):
 Mulliken charges:
               1
     1  O   -0.711923
     2  S    1.034871
     3  H    0.194488
     4  O   -0.711923
     5  H    0.194488
 Sum of Mulliken charges =  -0.00000
 Mulliken charges with hydrogens summed into heavy atoms:
               1
     1  O   -0.517435
     2  S    1.034871
     4  O   -0.517435
 Electronic spatial extent (au):  <R**2>=            208.0044
 Charge=             -0.0000 electrons
 Dipole moment (field-independent basis, Debye):
    X=              0.0000    Y=             -0.0000    Z=             -0.3816  Tot=              0.3816
 Unable to Open any file for archive entry.
 1\1\GINC-SE105\Stability\RHF\Aug-CC-pVDZ\H2O2S1\OHZDE\08-Apr-2025\0\\#
 t hf aug-cc-pvdz symm=none int=(grid=ultrafine) guess=(read,tcheck) st
 able=(opt,rrhf)\\title\\0,1\O,0,0.,-1.315761,-0.467978\S,0,0.,0.,0.558
 858\H,0,-0.915625,-1.486325,-0.727042\O,0,0.,1.315761,-0.467978\H,0,0.
 915625,1.486325,-0.727042\\Version=ES64L-G16RevC.01\HF=-548.3964516\RM
 SD=2.596e-09\Dipole=0.,0.,-0.1501163\Quadrupole=0.9506057,-0.6060087,-
 0.344597,4.0770452,0.,0.\PG=Unknown\\@
 The archive entry for this job was punched.


 "A LITTLE BIT GOES A LONG WAY"
 R.S. MULLIKEN AS QUOTED BY K. RUEDENBERG
 Job cpu time:       0 days  0 hours  0 minutes 16.4 seconds.
 Elapsed time:       0 days  0 hours  0 minutes  2.0 seconds.
 File lengths (MBytes):  RWF=     81 Int=      0 D2E=      0 Chk=      2 Scr=      1
 Normal termination of Gaussian 16 at Tue Apr  8 22:57:34 2025.
 Initial command:
 /arc/software/Gaussian/g16.c01/l1.exe "/tmp/slurm/4842705/Gau-2521782.inp" -scrdir="/tmp/slurm/4842705/"
 Entering Link 1 = /arc/software/Gaussian/g16.c01/l1.exe PID=   2521994.
  
 Copyright (c) 1988-2019, Gaussian, Inc.  All Rights Reserved.
  
 This is part of the Gaussian(R) 16 program.  It is based on
 the Gaussian(R) 09 system (copyright 2009, Gaussian, Inc.),
 the Gaussian(R) 03 system (copyright 2003, Gaussian, Inc.),
 the Gaussian(R) 98 system (copyright 1998, Gaussian, Inc.),
 the Gaussian(R) 94 system (copyright 1995, Gaussian, Inc.),
 the Gaussian 92(TM) system (copyright 1992, Gaussian, Inc.),
 the Gaussian 90(TM) system (copyright 1990, Gaussian, Inc.),
 the Gaussian 88(TM) system (copyright 1988, Gaussian, Inc.),
 the Gaussian 86(TM) system (copyright 1986, Carnegie Mellon
 University), and the Gaussian 82(TM) system (copyright 1983,
 Carnegie Mellon University). Gaussian is a federally registered
 trademark of Gaussian, Inc.
  
 This software contains proprietary and confidential information,
 including trade secrets, belonging to Gaussian, Inc.
  
 This software is provided under written license and may be
 used, copied, transmitted, or stored only in accord with that
 written license.
  
 The following legend is applicable only to US Government
 contracts under FAR:
  
                    RESTRICTED RIGHTS LEGEND
  
 Use, reproduction and disclosure by the US Government is
 subject to restrictions as set forth in subparagraphs (a)
 and (c) of the Commercial Computer Software - Restricted
 Rights clause in FAR 52.227-19.
  
 Gaussian, Inc.
 340 Quinnipiac St., Bldg. 40, Wallingford CT 06492
  
  
 ---------------------------------------------------------------
 Warning -- This program may not be used in any manner that
 competes with the business of Gaussian, Inc. or will provide
 assistance to any competitor of Gaussian, Inc.  The licensee
 of this program is prohibited from giving any competitor of
 Gaussian, Inc. access to this program.  By using this program,
 the user acknowledges that Gaussian, Inc. is engaged in the
 business of creating and licensing software in the field of
 computational chemistry and represents and warrants to the
 licensee that it is not a competitor of Gaussian, Inc. and that
 it will not use this program in any manner prohibited above.
 ---------------------------------------------------------------
  

 Cite this work as:
 Gaussian 16, Revision C.01,
 M. J. Frisch, G. W. Trucks, H. B. Schlegel, G. E. Scuseria, 
 M. A. Robb, J. R. Cheeseman, G. Scalmani, V. Barone, 
 G. A. Petersson, H. Nakatsuji, X. Li, M. Caricato, A. V. Marenich, 
 J. Bloino, B. G. Janesko, R. Gomperts, B. Mennucci, H. P. Hratchian, 
 J. V. Ortiz, A. F. Izmaylov, J. L. Sonnenberg, D. Williams-Young, 
 F. Ding, F. Lipparini, F. Egidi, J. Goings, B. Peng, A. Petrone, 
 T. Henderson, D. Ranasinghe, V. G. Zakrzewski, J. Gao, N. Rega, 
 G. Zheng, W. Liang, M. Hada, M. Ehara, K. Toyota, R. Fukuda, 
 J. Hasegawa, M. Ishida, T. Nakajima, Y. Honda, O. Kitao, H. Nakai, 
 T. Vreven, K. Throssell, J. A. Montgomery, Jr., J. E. Peralta, 
 F. Ogliaro, M. J. Bearpark, J. J. Heyd, E. N. Brothers, K. N. Kudin, 
 V. N. Staroverov, T. A. Keith, R. Kobayashi, J. Normand, 
 K. Raghavachari, A. P. Rendell, J. C. Burant, S. S. Iyengar, 
 J. Tomasi, M. Cossi, J. M. Millam, M. Klene, C. Adamo, R. Cammi, 
 J. W. Ochterski, R. L. Martin, K. Morokuma, O. Farkas, 
 J. B. Foresman, and D. J. Fox, Gaussian, Inc., Wallingford CT, 2019.
 
 ******************************************
 Gaussian 16:  ES64L-G16RevC.01  3-Jul-2019
                 8-Apr-2025 
 ******************************************
 %nprocs=16
 Will use up to   16 processors via shared memory.
 %mem=30GB
 %chk=BDE49_expt_1913_mol1.chk
 ----------------------------------------------------------------------
 #t hf aug-cc-pvdz iop(5/13=1,5/36=2,99/5=2) pseudo=read geom=check gue
 ss=(read,tcheck) scf=(maxcycle=1)
 ----------------------------------------------------------------------
 -----
 title
 -----
 Structure from the checkpoint file:  "BDE49_expt_1913_mol1.chk"
 Charge =  0 Multiplicity = 1
 Z-Matrix found in chk file.
 O,0,0.,-1.315761,-0.467978
 S,0,0.,0.,0.558858
 H,0,-0.915625,-1.486325,-0.727042
 O,0,0.,1.315761,-0.467978
 H,0,0.915625,1.486325,-0.727042
 Recover connectivity data from disk.
                    Distance matrix (angstroms):
                    1          2          3          4          5
     1  O    0.000000
     2  S    1.669017   0.000000
     3  H    0.966734   2.168195   0.000000
     4  O    2.631522   1.669017   2.959251   0.000000
     5  H    2.959251   2.168195   3.491436   0.966734   0.000000
 Framework group  C2[C2(S),X(H2O2)]
 Deg. of freedom     5
                         Standard orientation:                         
 ---------------------------------------------------------------------
 Center     Atomic      Atomic             Coordinates (Angstroms)
 Number     Number       Type             X           Y           Z
 ---------------------------------------------------------------------
      1          8           0        0.000000    1.315761   -0.467978
      2         16           0       -0.000000    0.000000    0.558858
      3          1           0        0.915625    1.486325   -0.727042
      4          8           0       -0.000000   -1.315761   -0.467978
      5          1           0       -0.915625   -1.486325   -0.727042
 ---------------------------------------------------------------------
 Rotational constants (GHZ):          25.8023086           8.2142841           6.4800877
 ======================================================================================================
                                       Pseudopotential Parameters
 ======================================================================================================
  Center     Atomic      Valence      Angular      Power
  Number     Number     Electrons     Momentum     of R      Exponent        Coefficient   SO-Coeffient
 ======================================================================================================
    1          8            8
                                      G and up 
                                                     0        0.0000010        0.00049668    0.00000000
                                                     2        0.1200000       -0.01803391    0.00000000
                                                     2        0.1400000        0.04014195    0.00000000
                                                     2        0.2000000       -0.02692147    0.00000000
                                                     2        0.2800000       -0.04241843    0.00000000
                                                     2        0.4000000        0.15412145    0.00000000
                                                     2        0.7000000       -0.40587006    0.00000000
                                                     2        1.1000000        1.75666647    0.00000000
                                      S - G
                                                     0        0.0000010       -0.01088195    0.00000000
                                                     2        0.1200000        0.09867335    0.00000000
                                                     2        0.2400000       -0.08484177    0.00000000
                                                     2        0.6000000       -1.39011554    0.00000000
                                                     2        2.5000000        1.36225910    0.00000000
                                      P - G
                                                     0        0.0000010        0.05874028    0.00000000
                                                     2        0.1200000       -0.11700340    0.00000000
                                                     2        0.1600000        0.08847775    0.00000000
                                                     2        0.3000000        0.04709907    0.00000000
                                                     2        1.2000000       -1.80388338    0.00000000
                                      D - G
                                                     0        0.0000010       -0.00541262    0.00000000
                                                     2        0.1200000       -0.26547906    0.00000000
                                                     2        0.1600000        1.04289661    0.00000000
                                                     2        0.2400000       -1.92800913    0.00000000
                                                     2        0.4000000        2.26691633    0.00000000
                                                     2        0.7000000       -1.97391482    0.00000000
                                      F - G
                                                     0        0.0000010       -0.02604870    0.00000000
                                                     2        0.1200000        0.37362552    0.00000000
                                                     2        0.1600000       -1.43526367    0.00000000
                                                     2        0.2200000        1.76778079    0.00000000
                                                     2        0.5000000       -1.90846303    0.00000000
    2         16           16
                                      G and up 
                                                     0        0.0000010       -0.00031824    0.00000000
                                                     2        0.1200000       -0.02709645    0.00000000
                                                     2        0.1400000        0.07756871    0.00000000
                                                     2        0.1800000       -0.09276244    0.00000000
                                                     2        0.2400000        0.04926396    0.00000000
                                                     2        0.4000000        0.19256092    0.00000000
                                                     2        0.6000000       -0.68044142    0.00000000
                                                     2        1.2000000        2.88179630    0.00000000
                                      S - G
                                                     0        0.0000010       -0.00682297    0.00000000
                                                     2        0.1200000        0.09894847    0.00000000
                                                     2        0.2400000       -0.09649386    0.00000000
                                                     2        0.5000000       -0.86533519    0.00000000
                                      P - G
                                                     0        0.0000010       -0.03724640    0.00000000
                                                     2        0.1200000        0.13565737    0.00000000
                                                     2        0.1600000       -0.58061535    0.00000000
                                                     2        0.2800000        1.15300814    0.00000000
                                                     2        0.6000000       -1.81693648    0.00000000
                                      D - G
                                                     0        0.0000010       -0.04698793    0.00000000
                                                     2        0.1200000        0.09075241    0.00000000
                                                     2        0.2000000       -0.23702631    0.00000000
                                                     2        0.4000000        0.07730186    0.00000000
                                      F - G
                                                     0        0.0000010        0.08145595    0.00000000
                                                     2        0.1200000       -0.08234030    0.00000000
                                                     2        0.2200000        0.18834854    0.00000000
                                                     2        0.4000000       -0.20344406    0.00000000
    3          1            1
                                      F and up 
                                                     0        0.0000010       -0.00007675    0.00000000
                                                     2        0.1200000        0.05352699    0.00000000
                                                     2        0.1400000       -0.25123645    0.00000000
                                                     2        0.1600000        0.32188106    0.00000000
                                                     2        0.2200000       -0.25206857    0.00000000
                                                     2        0.3000000        0.19290477    0.00000000
                                                     2        0.5000000       -0.10129770    0.00000000
                                                     2        0.9000000        0.00314995    0.00000000
                                                     2        1.5000000        0.18401192    0.00000000
                                      S - F
                                                     0        0.0000010        0.08065976    0.00000000
                                                     2        0.1200000       -0.09231673    0.00000000
                                                     2        0.1600000       -0.03278082    0.00000000
                                                     2        0.2800000        0.38423402    0.00000000
                                                     2        0.6000000       -1.09357590    0.00000000
                                                     2        1.1000000        1.53099489    0.00000000
                                                     2        3.0000000       -2.63300202    0.00000000
                                      P - F
                                                     0        0.0000010       -0.11638665    0.00000000
                                                     2        0.1200000        0.35468655    0.00000000
                                                     2        0.1600000       -0.59160923    0.00000000
                                                     2        0.3000000        0.49390547    0.00000000
                                                     2        0.6000000       -0.37949835    0.00000000
                                                     2        1.6000000        0.89304688    0.00000000
                                      D - F
                                                     0        0.0000010        0.05443663    0.00000000
                                                     2        0.1200000       -0.29679479    0.00000000
                                                     2        0.1400000        0.36849872    0.00000000
                                                     2        0.2400000        0.02793449    0.00000000
                                                     2        0.4000000       -0.46312857    0.00000000
                                                     2        0.7000000        0.97587598    0.00000000
                                                     2        1.5000000       -2.43431102    0.00000000
    4          8            8
                                      G and up 
                                                     0        0.0000010        0.00049668    0.00000000
                                                     2        0.1200000       -0.01803391    0.00000000
                                                     2        0.1400000        0.04014195    0.00000000
                                                     2        0.2000000       -0.02692147    0.00000000
                                                     2        0.2800000       -0.04241843    0.00000000
                                                     2        0.4000000        0.15412145    0.00000000
                                                     2        0.7000000       -0.40587006    0.00000000
                                                     2        1.1000000        1.75666647    0.00000000
                                      S - G
                                                     0        0.0000010       -0.01088195    0.00000000
                                                     2        0.1200000        0.09867335    0.00000000
                                                     2        0.2400000       -0.08484177    0.00000000
                                                     2        0.6000000       -1.39011554    0.00000000
                                                     2        2.5000000        1.36225910    0.00000000
                                      P - G
                                                     0        0.0000010        0.05874028    0.00000000
                                                     2        0.1200000       -0.11700340    0.00000000
                                                     2        0.1600000        0.08847775    0.00000000
                                                     2        0.3000000        0.04709907    0.00000000
                                                     2        1.2000000       -1.80388338    0.00000000
                                      D - G
                                                     0        0.0000010       -0.00541262    0.00000000
                                                     2        0.1200000       -0.26547906    0.00000000
                                                     2        0.1600000        1.04289661    0.00000000
                                                     2        0.2400000       -1.92800913    0.00000000
                                                     2        0.4000000        2.26691633    0.00000000
                                                     2        0.7000000       -1.97391482    0.00000000
                                      F - G
                                                     0        0.0000010       -0.02604870    0.00000000
                                                     2        0.1200000        0.37362552    0.00000000
                                                     2        0.1600000       -1.43526367    0.00000000
                                                     2        0.2200000        1.76778079    0.00000000
                                                     2        0.5000000       -1.90846303    0.00000000
    5          1            1
                                      F and up 
                                                     0        0.0000010       -0.00007675    0.00000000
                                                     2        0.1200000        0.05352699    0.00000000
                                                     2        0.1400000       -0.25123645    0.00000000
                                                     2        0.1600000        0.32188106    0.00000000
                                                     2        0.2200000       -0.25206857    0.00000000
                                                     2        0.3000000        0.19290477    0.00000000
                                                     2        0.5000000       -0.10129770    0.00000000
                                                     2        0.9000000        0.00314995    0.00000000
                                                     2        1.5000000        0.18401192    0.00000000
                                      S - F
                                                     0        0.0000010        0.08065976    0.00000000
                                                     2        0.1200000       -0.09231673    0.00000000
                                                     2        0.1600000       -0.03278082    0.00000000
                                                     2        0.2800000        0.38423402    0.00000000
                                                     2        0.6000000       -1.09357590    0.00000000
                                                     2        1.1000000        1.53099489    0.00000000
                                                     2        3.0000000       -2.63300202    0.00000000
                                      P - F
                                                     0        0.0000010       -0.11638665    0.00000000
                                                     2        0.1200000        0.35468655    0.00000000
                                                     2        0.1600000       -0.59160923    0.00000000
                                                     2        0.3000000        0.49390547    0.00000000
                                                     2        0.6000000       -0.37949835    0.00000000
                                                     2        1.6000000        0.89304688    0.00000000
                                      D - F
                                                     0        0.0000010        0.05443663    0.00000000
                                                     2        0.1200000       -0.29679479    0.00000000
                                                     2        0.1400000        0.36849872    0.00000000
                                                     2        0.2400000        0.02793449    0.00000000
                                                     2        0.4000000       -0.46312857    0.00000000
                                                     2        0.7000000        0.97587598    0.00000000
                                                     2        1.5000000       -2.43431102    0.00000000
 ======================================================================================================
    91 basis functions,   189 primitive gaussians,    97 cartesian basis functions
    17 alpha electrons       17 beta electrons
       nuclear repulsion energy       113.6179228924 Hartrees.
 NAtoms=    5 NActive=    5 NUniq=    3 SFac= 2.78D+00 NAtFMM=   60 NAOKFM=F Big=F
   2 Symmetry operations used in ECPInt.
 ECPInt:  NShTT=     780 NPrTT=    5574 LenC2=     780 LenP2D=    4559.
 LDataN:  DoStor=T MaxTD1= 6 Len=  172
 Initial guess from the checkpoint file:  "BDE49_expt_1913_mol1.chk"
 B after Tr=    -0.000000    0.000000    0.000000
         Rot=    0.000000    0.000000    0.000000    1.000000 Ang= 180.00 deg.
 Initial guess orbital symmetries:
       Occupied  (A) (B) (A) (A) (B) (A) (B) (A) (B) (A) (B) (A)
                 (B) (A) (B) (A) (B)
       Virtual   (A) (B) (A) (B) (B) (A) (B) (A) (A) (B) (A) (B)
                 (A) (B) (B) (A) (B) (A) (A) (B) (B) (A) (A) (B)
                 (A) (A) (B) (A) (B) (B) (A) (A) (B) (B) (A) (A)
                 (B) (A) (B) (B) (A) (A) (B) (A) (B) (A) (B) (A)
                 (B) (A) (B) (A) (B) (A) (B) (A) (B) (A) (A) (B)
                 (B) (A) (A) (B) (B) (A) (B) (A) (A) (B) (A) (B)
                 (B) (A)
 >>>>>>>>>> Convergence criterion not met.
 SCF Done:  E(RHF) =  -548.603299291     A.U. after    2 cycles
            NFock=  1  Conv=0.52D-02     -V/T= 2.0039

 **********************************************************************

            Population analysis using the SCF Density.

 **********************************************************************

 Orbital symmetries:
       Occupied  (A) (B) (A) (A) (B) (A) (B) (A) (B) (A) (B) (A)
                 (B) (A) (B) (A) (B)
       Virtual   (A) (B) (A) (B) (B) (A) (B) (A) (A) (B) (A) (B)
                 (A) (B) (B) (A) (B) (A) (A) (B) (B) (A) (A) (B)
                 (A) (A) (B) (A) (B) (B) (A) (A) (B) (B) (A) (A)
                 (B) (A) (B) (B) (A) (B) (A) (A) (B) (A) (A) (B)
                 (B) (A) (B) (A) (B) (A) (B) (A) (B) (A) (A) (B)
                 (B) (A) (A) (B) (B) (A) (B) (A) (A) (A) (B) (B)
                 (B) (A)
 The electronic state is 1-A.
 Alpha  occ. eigenvalues --  -94.05495 -20.60140 -20.60137  -8.32324  -6.30152
 Alpha  occ. eigenvalues --   -6.29926  -6.29577  -1.50818  -1.46040  -0.95667
 Alpha  occ. eigenvalues --   -0.74037  -0.66123  -0.62583  -0.60947  -0.50946
 Alpha  occ. eigenvalues --   -0.48813  -0.37638
 Alpha virt. eigenvalues --    0.03829   0.04540   0.08136   0.09194   0.12269
 Alpha virt. eigenvalues --    0.17032   0.17745   0.18253   0.20787   0.21021
 Alpha virt. eigenvalues --    0.22383   0.23128   0.24108   0.27702   0.31950
 Alpha virt. eigenvalues --    0.32643   0.36164   0.36835   0.41469   0.43215
 Alpha virt. eigenvalues --    0.45883   0.50131   0.50629   0.51248   0.53567
 Alpha virt. eigenvalues --    0.60892   0.63830   0.65862   0.67965   0.85464
 Alpha virt. eigenvalues --    0.86951   0.90168   0.94721   0.99288   1.00230
 Alpha virt. eigenvalues --    1.04572   1.07614   1.08432   1.12196   1.18085
 Alpha virt. eigenvalues --    1.18099   1.27237   1.27323   1.31237   1.34247
 Alpha virt. eigenvalues --    1.37814   1.45793   1.46528   1.52807   1.54462
 Alpha virt. eigenvalues --    1.63817   1.70151   1.71342   1.77285   2.06525
 Alpha virt. eigenvalues --    2.11671   2.20817   2.29500   2.47233   2.54691
 Alpha virt. eigenvalues --    2.74562   2.78163   2.95617   3.05545   3.73339
 Alpha virt. eigenvalues --    3.73757   3.75175   3.76309   3.79615   3.81243
 Alpha virt. eigenvalues --    3.81244   3.87961   4.26824   4.29207
          Condensed to atoms (all electrons):
 Mulliken charges:
               1
     1  O   -1.060518
     2  S    1.319971
     3  H    0.400532
     4  O   -1.060518
     5  H    0.400532
 Sum of Mulliken charges =  -0.00000
 Mulliken charges with hydrogens summed into heavy atoms:
               1
     1  O   -0.659986
     2  S    1.319971
     4  O   -0.659986
 Electronic spatial extent (au):  <R**2>=            208.8159
 Charge=             -0.0000 electrons
 Dipole moment (field-independent basis, Debye):
    X=             -0.0000    Y=              0.0000    Z=             -0.5240  Tot=              0.5240

 Test job not archived.
 1\1\GINC-SE105\SP\RHF\Aug-CC-pVDZ\H2O2S1\OHZDE\08-Apr-2025\0\\#t hf au
 g-cc-pvdz iop(5/13=1,5/36=2,99/5=2) pseudo=read geom=check guess=(read
 ,tcheck) scf=(maxcycle=1)\\title\\0,1\O,0,0.,-1.315761,-0.467978\S,0,0
 .,0.,0.558858\H,0,-0.915625,-1.486325,-0.727042\O,0,0.,1.315761,-0.467
 978\H,0,0.915625,1.486325,-0.727042\\Version=ES64L-G16RevC.01\State=1-
 A\HF=-548.6032993\RMSD=5.195e-03\Dipole=0.,0.,-0.2061451\Quadrupole=0.
 8657979,-0.4541454,-0.4116525,4.0277755,0.,0.\PG=C02 [C2(S1),X(H2O2)]\
 \@


 SCIENCE AT ITS BEST PROVIDES US WITH BETTER QUESTIONS, 
 NOT ABSOLUTE ANSWERS

                                    -- NORMAN COUSINS, 1976
 Job cpu time:       0 days  0 hours  0 minutes  9.2 seconds.
 Elapsed time:       0 days  0 hours  0 minutes  1.2 seconds.
 File lengths (MBytes):  RWF=      6 Int=      0 D2E=      0 Chk=      2 Scr=      1
 Normal termination of Gaussian 16 at Tue Apr  8 22:57:36 2025.
