 Entering Gaussian System, Link 0=g16
 Input=BDE49_expt_1103_mol1.gjf
 Output=BDE49_expt_1103_mol1.log
 Initial command:
 /arc/software/Gaussian/g16.c01/l1.exe "/tmp/slurm/4840952/Gau-3063887.inp" -scrdir="/tmp/slurm/4840952/"
 Entering Link 1 = /arc/software/Gaussian/g16.c01/l1.exe PID=   3063888.
  
 Copyright (c) 1988-2019, Gaussian, Inc.  All Rights Reserved.
  
 This is part of the Gaussian(R) 16 program.  It is based on
 the Gaussian(R) 09 system (copyright 2009, Gaussian, Inc.),
 the Gaussian(R) 03 system (copyright 2003, Gaussian, Inc.),
 the Gaussian(R) 98 system (copyright 1998, Gaussian, Inc.),
 the Gaussian(R) 94 system (copyright 1995, Gaussian, Inc.),
 the Gaussian 92(TM) system (copyright 1992, Gaussian, Inc.),
 the Gaussian 90(TM) system (copyright 1990, Gaussian, Inc.),
 the Gaussian 88(TM) system (copyright 1988, Gaussian, Inc.),
 the Gaussian 86(TM) system (copyright 1986, Carnegie Mellon
 University), and the Gaussian 82(TM) system (copyright 1983,
 Carnegie Mellon University). Gaussian is a federally registered
 trademark of Gaussian, Inc.
  
 This software contains proprietary and confidential information,
 including trade secrets, belonging to Gaussian, Inc.
  
 This software is provided under written license and may be
 used, copied, transmitted, or stored only in accord with that
 written license.
  
 The following legend is applicable only to US Government
 contracts under FAR:
  
                    RESTRICTED RIGHTS LEGEND
  
 Use, reproduction and disclosure by the US Government is
 subject to restrictions as set forth in subparagraphs (a)
 and (c) of the Commercial Computer Software - Restricted
 Rights clause in FAR 52.227-19.
  
 Gaussian, Inc.
 340 Quinnipiac St., Bldg. 40, Wallingford CT 06492
  
  
 ---------------------------------------------------------------
 Warning -- This program may not be used in any manner that
 competes with the business of Gaussian, Inc. or will provide
 assistance to any competitor of Gaussian, Inc.  The licensee
 of this program is prohibited from giving any competitor of
 Gaussian, Inc. access to this program.  By using this program,
 the user acknowledges that Gaussian, Inc. is engaged in the
 business of creating and licensing software in the field of
 computational chemistry and represents and warrants to the
 licensee that it is not a competitor of Gaussian, Inc. and that
 it will not use this program in any manner prohibited above.
 ---------------------------------------------------------------
  

 Cite this work as:
 Gaussian 16, Revision C.01,
 M. J. Frisch, G. W. Trucks, H. B. Schlegel, G. E. Scuseria, 
 M. A. Robb, J. R. Cheeseman, G. Scalmani, V. Barone, 
 G. A. Petersson, H. Nakatsuji, X. Li, M. Caricato, A. V. Marenich, 
 J. Bloino, B. G. Janesko, R. Gomperts, B. Mennucci, H. P. Hratchian, 
 J. V. Ortiz, A. F. Izmaylov, J. L. Sonnenberg, D. Williams-Young, 
 F. Ding, F. Lipparini, F. Egidi, J. Goings, B. Peng, A. Petrone, 
 T. Henderson, D. Ranasinghe, V. G. Zakrzewski, J. Gao, N. Rega, 
 G. Zheng, W. Liang, M. Hada, M. Ehara, K. Toyota, R. Fukuda, 
 J. Hasegawa, M. Ishida, T. Nakajima, Y. Honda, O. Kitao, H. Nakai, 
 T. Vreven, K. Throssell, J. A. Montgomery, Jr., J. E. Peralta, 
 F. Ogliaro, M. J. Bearpark, J. J. Heyd, E. N. Brothers, K. N. Kudin, 
 V. N. Staroverov, T. A. Keith, R. Kobayashi, J. Normand, 
 K. Raghavachari, A. P. Rendell, J. C. Burant, S. S. Iyengar, 
 J. Tomasi, M. Cossi, J. M. Millam, M. Klene, C. Adamo, R. Cammi, 
 J. W. Ochterski, R. L. Martin, K. Morokuma, O. Farkas, 
 J. B. Foresman, and D. J. Fox, Gaussian, Inc., Wallingford CT, 2019.
 
 ******************************************
 Gaussian 16:  ES64L-G16RevC.01  3-Jul-2019
                 8-Apr-2025 
 ******************************************
 %nprocs=16
 Will use up to   16 processors via shared memory.
 %mem=30GB
 %chk=BDE49_expt_1103_mol1.chk
 ----------------------------------------------------------------------
 #t hf aug-cc-pvdz symm=none int=(grid=ultrafine) guess=(read,tcheck) s
 table=(opt,rrhf)
 ----------------------------------------------------------------------
 -----
 title
 -----
 Symbolic Z-matrix:
 Charge =  0 Multiplicity = 1
 C                    -0.55818  -0.54443   0.00033 
 C                     0.55817   0.54442   0.00038 
 O                    -0.36526  -1.70682   0.00073 
 O                     0.36526   1.70681   0.00076 
 Cl                   -2.17697   0.18404  -0.00041 
 Cl                    2.17698  -0.18403  -0.00055 
 
                    Distance matrix (angstroms):
                    1          2          3          4          5
     1  C    0.000000
     2  C    1.559432   0.000000
     3  O    1.178286   2.433267   0.000000
     4  O    2.433278   1.178289   3.490920   0.000000
     5  Cl   1.775152   2.758779   2.618711   2.963410   0.000000
     6  Cl   2.758799   1.775157   2.963420   2.618698   4.369480
                    6
     6  Cl   0.000000
 Symmetry turned off by external request.
 Rotational constants (GHZ):           4.9222190           1.4725579           1.1334647
   146 basis functions,   334 primitive gaussians,   158 cartesian basis functions
    31 alpha electrons       31 beta electrons
       nuclear repulsion energy       324.3886192853 Hartrees.
 NAtoms=    6 NActive=    6 NUniq=    6 SFac= 1.00D+00 NAtFMM=   60 NAOKFM=F Big=F
 ExpMin= 4.04D-02 ExpMax= 1.28D+05 ExpMxC= 1.24D+03 IAcc=3 IRadAn=         5 AccDes= 0.00D+00
 Harris functional with IExCor=  205 and IRadAn=       5 diagonalized for initial guess.
 HarFok:  IExCor=  205 AccDes= 0.00D+00 IRadAn=         5 IDoV= 1 UseB2=F ITyADJ=14
 ICtDFT=  3500011 ScaDFX=  1.000000  1.000000  1.000000  1.000000
 FoFCou: FMM=F IPFlag=           0 FMFlag=      100000 FMFlg1=           0
         NFxFlg=           0 DoJE=T BraDBF=F KetDBF=T FulRan=T
         wScrn=  0.000000 ICntrl=       500 IOpCl=  0 I1Cent=   200000004 NGrid=           0
         NMat0=    1 NMatS0=      1 NMatT0=    0 NMatD0=    1 NMtDS0=    0 NMtDT0=    0
 Symmetry not used in FoFCou.
 SCF Done:  E(RHF) =  -1144.48342373     A.U. after   13 cycles
            NFock= 13  Conv=0.29D-08     -V/T= 2.0003

 **********************************************************************

            Population analysis using the SCF Density.

 **********************************************************************

 Alpha  occ. eigenvalues -- -104.88311-104.88311 -20.65520 -20.65520 -11.46461
 Alpha  occ. eigenvalues --  -11.46412 -10.60935 -10.60934  -8.07695  -8.07695
 Alpha  occ. eigenvalues --   -8.07354  -8.07353  -8.07325  -8.07325  -1.51140
 Alpha  occ. eigenvalues --   -1.49597  -1.17266  -1.16767  -0.95684  -0.78943
 Alpha  occ. eigenvalues --   -0.75193  -0.72633  -0.67972  -0.66919  -0.60571
 Alpha  occ. eigenvalues --   -0.56383  -0.51163  -0.50297  -0.49305  -0.49082
 Alpha  occ. eigenvalues --   -0.47019
 Alpha virt. eigenvalues --    0.01551   0.05949   0.06711   0.08428   0.10055
 Alpha virt. eigenvalues --    0.10253   0.11381   0.12498   0.12792   0.13249
 Alpha virt. eigenvalues --    0.14374   0.17032   0.17183   0.17649   0.18273
 Alpha virt. eigenvalues --    0.20669   0.20720   0.24654   0.25873   0.27212
 Alpha virt. eigenvalues --    0.27475   0.29502   0.30752   0.30900   0.32417
 Alpha virt. eigenvalues --    0.32525   0.36006   0.37071   0.38766   0.42526
 Alpha virt. eigenvalues --    0.43671   0.43896   0.49376   0.49698   0.51237
 Alpha virt. eigenvalues --    0.52743   0.54197   0.58589   0.60548   0.66739
 Alpha virt. eigenvalues --    0.66950   0.67645   0.68191   0.68961   0.70122
 Alpha virt. eigenvalues --    0.73951   0.76531   0.81124   0.85347   0.85642
 Alpha virt. eigenvalues --    0.86355   0.87631   0.89953   0.90361   0.92035
 Alpha virt. eigenvalues --    0.95331   0.96911   1.00527   1.05365   1.06558
 Alpha virt. eigenvalues --    1.11793   1.17396   1.21008   1.22032   1.24388
 Alpha virt. eigenvalues --    1.27838   1.29147   1.29413   1.30712   1.33521
 Alpha virt. eigenvalues --    1.33748   1.36636   1.38468   1.39020   1.39201
 Alpha virt. eigenvalues --    1.41281   1.42900   1.43149   1.43415   1.46446
 Alpha virt. eigenvalues --    1.51491   1.54089   1.54560   1.54595   1.62960
 Alpha virt. eigenvalues --    1.72755   1.74695   1.74921   1.80452   1.84980
 Alpha virt. eigenvalues --    1.94027   1.95388   1.97873   2.02456   2.06236
 Alpha virt. eigenvalues --    2.08903   2.19100   2.28924   2.35407   2.38393
 Alpha virt. eigenvalues --    2.47181   2.51651   2.92988   3.11328   3.15481
 Alpha virt. eigenvalues --    3.66034   3.68856   3.68925   3.70038   3.71813
 Alpha virt. eigenvalues --    3.74492   3.80364   3.84516   4.05843   4.07549
          Condensed to atoms (all electrons):
 Mulliken charges:
               1
     1  C    0.457154
     2  C    0.457163
     3  O   -0.466024
     4  O   -0.466031
     5  Cl   0.008873
     6  Cl   0.008865
 Sum of Mulliken charges =  -0.00000
 Mulliken charges with hydrogens summed into heavy atoms:
               1
     1  C    0.457154
     2  C    0.457163
     3  O   -0.466024
     4  O   -0.466031
     5  Cl   0.008873
     6  Cl   0.008865
 Electronic spatial extent (au):  <R**2>=            887.3583
 Charge=              0.0000 electrons
 Dipole moment (field-independent basis, Debye):
    X=             -0.0001    Y=             -0.0000    Z=             -0.0006  Tot=              0.0006
 NROrb=    146 NOA=    31 NOB=    31 NVA=   115 NVB=   115

 **** Warning!!: The largest alpha MO coefficient is  0.26674915D+02

    12 initial guesses have been made.
 Iteration     1 Dimension    12 NMult     0 NNew     12
 Iteration     2 Dimension    24 NMult    12 NNew     12
 Iteration     3 Dimension    27 NMult    24 NNew      3
 Iteration     4 Dimension    30 NMult    27 NNew      3
 Iteration     5 Dimension    33 NMult    30 NNew      3
 Iteration     6 Dimension    36 NMult    33 NNew      3
 Iteration     7 Dimension    39 NMult    36 NNew      3
 ***********************************************************************
 Stability analysis using <AA,BB:AA,BB> singles matrix:
 ***********************************************************************
 Ground to excited state transition densities written to RWF  633

 Eigenvectors of the stability matrix:
 
 Excited state symmetry could not be determined.
 Eigenvector   1:      Singlet-?Sym  Eigenvalue= 0.1633311  <S**2>=0.000
      23 -> 32         0.10612
      26 -> 44         0.17781
      31 -> 32         0.63337
 The wavefunction is stable under the perturbations considered.
 The wavefunction is already stable.

 **********************************************************************

            Population analysis using the SCF Density.

 **********************************************************************

 Alpha  occ. eigenvalues -- -104.88311-104.88311 -20.65520 -20.65520 -11.46461
 Alpha  occ. eigenvalues --  -11.46412 -10.60935 -10.60934  -8.07695  -8.07695
 Alpha  occ. eigenvalues --   -8.07354  -8.07353  -8.07325  -8.07325  -1.51140
 Alpha  occ. eigenvalues --   -1.49597  -1.17266  -1.16767  -0.95684  -0.78943
 Alpha  occ. eigenvalues --   -0.75193  -0.72633  -0.67972  -0.66919  -0.60571
 Alpha  occ. eigenvalues --   -0.56383  -0.51163  -0.50297  -0.49305  -0.49082
 Alpha  occ. eigenvalues --   -0.47019
 Alpha virt. eigenvalues --    0.01551   0.05949   0.06711   0.08428   0.10055
 Alpha virt. eigenvalues --    0.10253   0.11381   0.12498   0.12792   0.13249
 Alpha virt. eigenvalues --    0.14374   0.17032   0.17183   0.17649   0.18273
 Alpha virt. eigenvalues --    0.20669   0.20720   0.24654   0.25873   0.27212
 Alpha virt. eigenvalues --    0.27475   0.29502   0.30752   0.30900   0.32417
 Alpha virt. eigenvalues --    0.32525   0.36006   0.37071   0.38766   0.42526
 Alpha virt. eigenvalues --    0.43671   0.43896   0.49376   0.49698   0.51237
 Alpha virt. eigenvalues --    0.52743   0.54197   0.58589   0.60548   0.66739
 Alpha virt. eigenvalues --    0.66950   0.67645   0.68191   0.68961   0.70122
 Alpha virt. eigenvalues --    0.73951   0.76531   0.81124   0.85347   0.85642
 Alpha virt. eigenvalues --    0.86355   0.87631   0.89953   0.90361   0.92035
 Alpha virt. eigenvalues --    0.95331   0.96911   1.00527   1.05365   1.06558
 Alpha virt. eigenvalues --    1.11793   1.17396   1.21008   1.22032   1.24388
 Alpha virt. eigenvalues --    1.27838   1.29147   1.29413   1.30712   1.33521
 Alpha virt. eigenvalues --    1.33748   1.36636   1.38468   1.39020   1.39201
 Alpha virt. eigenvalues --    1.41281   1.42900   1.43149   1.43415   1.46446
 Alpha virt. eigenvalues --    1.51491   1.54089   1.54560   1.54595   1.62960
 Alpha virt. eigenvalues --    1.72755   1.74695   1.74921   1.80452   1.84980
 Alpha virt. eigenvalues --    1.94027   1.95388   1.97873   2.02456   2.06236
 Alpha virt. eigenvalues --    2.08903   2.19100   2.28924   2.35407   2.38393
 Alpha virt. eigenvalues --    2.47181   2.51651   2.92988   3.11328   3.15481
 Alpha virt. eigenvalues --    3.66034   3.68856   3.68925   3.70038   3.71813
 Alpha virt. eigenvalues --    3.74492   3.80364   3.84516   4.05843   4.07549
          Condensed to atoms (all electrons):
 Mulliken charges:
               1
     1  C    0.457154
     2  C    0.457163
     3  O   -0.466024
     4  O   -0.466031
     5  Cl   0.008873
     6  Cl   0.008865
 Sum of Mulliken charges =  -0.00000
 Mulliken charges with hydrogens summed into heavy atoms:
               1
     1  C    0.457154
     2  C    0.457163
     3  O   -0.466024
     4  O   -0.466031
     5  Cl   0.008873
     6  Cl   0.008865
 Electronic spatial extent (au):  <R**2>=            887.3583
 Charge=              0.0000 electrons
 Dipole moment (field-independent basis, Debye):
    X=             -0.0001    Y=             -0.0000    Z=             -0.0006  Tot=              0.0006
 Unable to Open any file for archive entry.
 1\1\GINC-SE083\Stability\RHF\Aug-CC-pVDZ\C2Cl2O2\OHZDE\08-Apr-2025\0\\
 #t hf aug-cc-pvdz symm=none int=(grid=ultrafine) guess=(read,tcheck) s
 table=(opt,rrhf)\\title\\0,1\C,0,-0.558179,-0.544434,0.000334\C,0,0.55
 8166,0.544419,0.000377\O,0,-0.365259,-1.706819,0.000731\O,0,0.365262,1
 .70681,0.000758\Cl,0,-2.176973,0.184037,-0.000406\Cl,0,2.176977,-0.184
 027,-0.000545\\Version=ES64L-G16RevC.01\HF=-1144.4834237\RMSD=2.948e-0
 9\Dipole=-0.000038,-0.0000069,-0.0002173\Quadrupole=1.8831075,-4.22442
 34,2.3413159,-1.1687343,-0.0000368,0.0000174\PG=Unknown\\@
 The archive entry for this job was punched.


 THE FIRST MORNING OF CREATION WROTE WHAT THE LAST DAWN OF
 RECKONING SHALL READ. -- OMAR KHAYYAM
 Job cpu time:       0 days  0 hours  1 minutes 36.3 seconds.
 Elapsed time:       0 days  0 hours  0 minutes  9.5 seconds.
 File lengths (MBytes):  RWF=    170 Int=      0 D2E=      0 Chk=      4 Scr=      1
 Normal termination of Gaussian 16 at Tue Apr  8 22:35:43 2025.
 Initial command:
 /arc/software/Gaussian/g16.c01/l1.exe "/tmp/slurm/4840952/Gau-3063887.inp" -scrdir="/tmp/slurm/4840952/"
 Entering Link 1 = /arc/software/Gaussian/g16.c01/l1.exe PID=   3064127.
  
 Copyright (c) 1988-2019, Gaussian, Inc.  All Rights Reserved.
  
 This is part of the Gaussian(R) 16 program.  It is based on
 the Gaussian(R) 09 system (copyright 2009, Gaussian, Inc.),
 the Gaussian(R) 03 system (copyright 2003, Gaussian, Inc.),
 the Gaussian(R) 98 system (copyright 1998, Gaussian, Inc.),
 the Gaussian(R) 94 system (copyright 1995, Gaussian, Inc.),
 the Gaussian 92(TM) system (copyright 1992, Gaussian, Inc.),
 the Gaussian 90(TM) system (copyright 1990, Gaussian, Inc.),
 the Gaussian 88(TM) system (copyright 1988, Gaussian, Inc.),
 the Gaussian 86(TM) system (copyright 1986, Carnegie Mellon
 University), and the Gaussian 82(TM) system (copyright 1983,
 Carnegie Mellon University). Gaussian is a federally registered
 trademark of Gaussian, Inc.
  
 This software contains proprietary and confidential information,
 including trade secrets, belonging to Gaussian, Inc.
  
 This software is provided under written license and may be
 used, copied, transmitted, or stored only in accord with that
 written license.
  
 The following legend is applicable only to US Government
 contracts under FAR:
  
                    RESTRICTED RIGHTS LEGEND
  
 Use, reproduction and disclosure by the US Government is
 subject to restrictions as set forth in subparagraphs (a)
 and (c) of the Commercial Computer Software - Restricted
 Rights clause in FAR 52.227-19.
  
 Gaussian, Inc.
 340 Quinnipiac St., Bldg. 40, Wallingford CT 06492
  
  
 ---------------------------------------------------------------
 Warning -- This program may not be used in any manner that
 competes with the business of Gaussian, Inc. or will provide
 assistance to any competitor of Gaussian, Inc.  The licensee
 of this program is prohibited from giving any competitor of
 Gaussian, Inc. access to this program.  By using this program,
 the user acknowledges that Gaussian, Inc. is engaged in the
 business of creating and licensing software in the field of
 computational chemistry and represents and warrants to the
 licensee that it is not a competitor of Gaussian, Inc. and that
 it will not use this program in any manner prohibited above.
 ---------------------------------------------------------------
  

 Cite this work as:
 Gaussian 16, Revision C.01,
 M. J. Frisch, G. W. Trucks, H. B. Schlegel, G. E. Scuseria, 
 M. A. Robb, J. R. Cheeseman, G. Scalmani, V. Barone, 
 G. A. Petersson, H. Nakatsuji, X. Li, M. Caricato, A. V. Marenich, 
 J. Bloino, B. G. Janesko, R. Gomperts, B. Mennucci, H. P. Hratchian, 
 J. V. Ortiz, A. F. Izmaylov, J. L. Sonnenberg, D. Williams-Young, 
 F. Ding, F. Lipparini, F. Egidi, J. Goings, B. Peng, A. Petrone, 
 T. Henderson, D. Ranasinghe, V. G. Zakrzewski, J. Gao, N. Rega, 
 G. Zheng, W. Liang, M. Hada, M. Ehara, K. Toyota, R. Fukuda, 
 J. Hasegawa, M. Ishida, T. Nakajima, Y. Honda, O. Kitao, H. Nakai, 
 T. Vreven, K. Throssell, J. A. Montgomery, Jr., J. E. Peralta, 
 F. Ogliaro, M. J. Bearpark, J. J. Heyd, E. N. Brothers, K. N. Kudin, 
 V. N. Staroverov, T. A. Keith, R. Kobayashi, J. Normand, 
 K. Raghavachari, A. P. Rendell, J. C. Burant, S. S. Iyengar, 
 J. Tomasi, M. Cossi, J. M. Millam, M. Klene, C. Adamo, R. Cammi, 
 J. W. Ochterski, R. L. Martin, K. Morokuma, O. Farkas, 
 J. B. Foresman, and D. J. Fox, Gaussian, Inc., Wallingford CT, 2019.
 
 ******************************************
 Gaussian 16:  ES64L-G16RevC.01  3-Jul-2019
                 8-Apr-2025 
 ******************************************
 %nprocs=16
 Will use up to   16 processors via shared memory.
 %mem=30GB
 %chk=BDE49_expt_1103_mol1.chk
 ----------------------------------------------------------------------
 #t hf aug-cc-pvdz iop(5/13=1,5/36=2,99/5=2) pseudo=read geom=check gue
 ss=(read,tcheck) scf=(maxcycle=1)
 ----------------------------------------------------------------------
 -----
 title
 -----
 Structure from the checkpoint file:  "BDE49_expt_1103_mol1.chk"
 Charge =  0 Multiplicity = 1
 Z-Matrix found in chk file.
 C,0,-0.558179,-0.544434,0.000334
 C,0,0.558166,0.544419,0.000377
 O,0,-0.365259,-1.706819,0.000731
 O,0,0.365262,1.70681,0.000758
 Cl,0,-2.176973,0.184037,-0.000406
 Cl,0,2.176977,-0.184027,-0.000545
 Recover connectivity data from disk.
                    Distance matrix (angstroms):
                    1          2          3          4          5
     1  C    0.000000
     2  C    1.559432   0.000000
     3  O    1.178286   2.433267   0.000000
     4  O    2.433278   1.178289   3.490920   0.000000
     5  Cl   1.775152   2.758779   2.618711   2.963410   0.000000
     6  Cl   2.758799   1.775157   2.963420   2.618698   4.369480
                    6
     6  Cl   0.000000
 Framework group  C1[X(C2Cl2O2)]
 Deg. of freedom    12
                         Standard orientation:                         
 ---------------------------------------------------------------------
 Center     Atomic      Atomic             Coordinates (Angstroms)
 Number     Number       Type             X           Y           Z
 ---------------------------------------------------------------------
      1          6           0        0.558179    0.544434    0.000334
      2          6           0       -0.558166   -0.544419    0.000377
      3          8           0        0.365259    1.706819    0.000731
      4          8           0       -0.365262   -1.706810    0.000758
      5         17           0        2.176973   -0.184037   -0.000406
      6         17           0       -2.176977    0.184027   -0.000545
 ---------------------------------------------------------------------
 Rotational constants (GHZ):           4.9222190           1.4725579           1.1334647
 ======================================================================================================
                                       Pseudopotential Parameters
 ======================================================================================================
  Center     Atomic      Valence      Angular      Power
  Number     Number     Electrons     Momentum     of R      Exponent        Coefficient   SO-Coeffient
 ======================================================================================================
    1          6            6
                                      G and up 
                                                     0        0.0000010       -0.00007288    0.00000000
                                                     2        0.1200000        0.10466671    0.00000000
                                                     2        0.1400000       -0.65716157    0.00000000
                                                     2        0.1600000        1.18890794    0.00000000
                                                     2        0.2000000       -1.25772850    0.00000000
                                                     2        0.2600000        1.01188378    0.00000000
                                                     2        0.4000000       -1.09380874    0.00000000
                                                     2        0.5000000        0.96944888    0.00000000
                                                     2        1.0000000       -0.79256938    0.00000000
                                                     2        3.0000000        1.06443276    0.00000000
                                      S - G
                                                     0        0.0000010       -0.00635295    0.00000000
                                                     2        0.1200000        0.16918955    0.00000000
                                                     2        0.1600000       -0.38862576    0.00000000
                                                     2        0.2800000        0.25638263    0.00000000
                                                     2        0.5000000        0.29628419    0.00000000
                                                     2        0.9000000       -0.28791512    0.00000000
                                      P - G
                                                     0        0.0000010       -0.04756931    0.00000000
                                                     2        0.1200000        0.28430375    0.00000000
                                                     2        0.1600000       -0.69640032    0.00000000
                                                     2        0.2600000        1.13005668    0.00000000
                                                     2        0.4000000       -1.31433324    0.00000000
                                                     2        0.7000000        0.91526469    0.00000000
                                      D - G
                                                     0        0.0000010       -0.11496411    0.00000000
                                                     2        0.1200000        0.16620776    0.00000000
                                                     2        0.1800000       -0.30959819    0.00000000
                                                     2        0.3000000        0.16621458    0.00000000
                                                     2        0.6000000        0.27350556    0.00000000
                                      F - G
                                                     0        0.0000010        0.12037550    0.00000000
                                                     2        0.1200000       -0.48737077    0.00000000
                                                     2        0.1400000        0.58315350    0.00000000
                                                     2        0.3000000        0.00005188    0.00000000
                                                     2        0.5000000       -1.16063549    0.00000000
                                                     2        0.8000000        2.09053308    0.00000000
    2          6            6
                                      G and up 
                                                     0        0.0000010       -0.00007288    0.00000000
                                                     2        0.1200000        0.10466671    0.00000000
                                                     2        0.1400000       -0.65716157    0.00000000
                                                     2        0.1600000        1.18890794    0.00000000
                                                     2        0.2000000       -1.25772850    0.00000000
                                                     2        0.2600000        1.01188378    0.00000000
                                                     2        0.4000000       -1.09380874    0.00000000
                                                     2        0.5000000        0.96944888    0.00000000
                                                     2        1.0000000       -0.79256938    0.00000000
                                                     2        3.0000000        1.06443276    0.00000000
                                      S - G
                                                     0        0.0000010       -0.00635295    0.00000000
                                                     2        0.1200000        0.16918955    0.00000000
                                                     2        0.1600000       -0.38862576    0.00000000
                                                     2        0.2800000        0.25638263    0.00000000
                                                     2        0.5000000        0.29628419    0.00000000
                                                     2        0.9000000       -0.28791512    0.00000000
                                      P - G
                                                     0        0.0000010       -0.04756931    0.00000000
                                                     2        0.1200000        0.28430375    0.00000000
                                                     2        0.1600000       -0.69640032    0.00000000
                                                     2        0.2600000        1.13005668    0.00000000
                                                     2        0.4000000       -1.31433324    0.00000000
                                                     2        0.7000000        0.91526469    0.00000000
                                      D - G
                                                     0        0.0000010       -0.11496411    0.00000000
                                                     2        0.1200000        0.16620776    0.00000000
                                                     2        0.1800000       -0.30959819    0.00000000
                                                     2        0.3000000        0.16621458    0.00000000
                                                     2        0.6000000        0.27350556    0.00000000
                                      F - G
                                                     0        0.0000010        0.12037550    0.00000000
                                                     2        0.1200000       -0.48737077    0.00000000
                                                     2        0.1400000        0.58315350    0.00000000
                                                     2        0.3000000        0.00005188    0.00000000
                                                     2        0.5000000       -1.16063549    0.00000000
                                                     2        0.8000000        2.09053308    0.00000000
    3          8            8
                                      G and up 
                                                     0        0.0000010        0.00049668    0.00000000
                                                     2        0.1200000       -0.01803391    0.00000000
                                                     2        0.1400000        0.04014195    0.00000000
                                                     2        0.2000000       -0.02692147    0.00000000
                                                     2        0.2800000       -0.04241843    0.00000000
                                                     2        0.4000000        0.15412145    0.00000000
                                                     2        0.7000000       -0.40587006    0.00000000
                                                     2        1.1000000        1.75666647    0.00000000
                                      S - G
                                                     0        0.0000010       -0.01088195    0.00000000
                                                     2        0.1200000        0.09867335    0.00000000
                                                     2        0.2400000       -0.08484177    0.00000000
                                                     2        0.6000000       -1.39011554    0.00000000
                                                     2        2.5000000        1.36225910    0.00000000
                                      P - G
                                                     0        0.0000010        0.05874028    0.00000000
                                                     2        0.1200000       -0.11700340    0.00000000
                                                     2        0.1600000        0.08847775    0.00000000
                                                     2        0.3000000        0.04709907    0.00000000
                                                     2        1.2000000       -1.80388338    0.00000000
                                      D - G
                                                     0        0.0000010       -0.00541262    0.00000000
                                                     2        0.1200000       -0.26547906    0.00000000
                                                     2        0.1600000        1.04289661    0.00000000
                                                     2        0.2400000       -1.92800913    0.00000000
                                                     2        0.4000000        2.26691633    0.00000000
                                                     2        0.7000000       -1.97391482    0.00000000
                                      F - G
                                                     0        0.0000010       -0.02604870    0.00000000
                                                     2        0.1200000        0.37362552    0.00000000
                                                     2        0.1600000       -1.43526367    0.00000000
                                                     2        0.2200000        1.76778079    0.00000000
                                                     2        0.5000000       -1.90846303    0.00000000
    4          8            8
                                      G and up 
                                                     0        0.0000010        0.00049668    0.00000000
                                                     2        0.1200000       -0.01803391    0.00000000
                                                     2        0.1400000        0.04014195    0.00000000
                                                     2        0.2000000       -0.02692147    0.00000000
                                                     2        0.2800000       -0.04241843    0.00000000
                                                     2        0.4000000        0.15412145    0.00000000
                                                     2        0.7000000       -0.40587006    0.00000000
                                                     2        1.1000000        1.75666647    0.00000000
                                      S - G
                                                     0        0.0000010       -0.01088195    0.00000000
                                                     2        0.1200000        0.09867335    0.00000000
                                                     2        0.2400000       -0.08484177    0.00000000
                                                     2        0.6000000       -1.39011554    0.00000000
                                                     2        2.5000000        1.36225910    0.00000000
                                      P - G
                                                     0        0.0000010        0.05874028    0.00000000
                                                     2        0.1200000       -0.11700340    0.00000000
                                                     2        0.1600000        0.08847775    0.00000000
                                                     2        0.3000000        0.04709907    0.00000000
                                                     2        1.2000000       -1.80388338    0.00000000
                                      D - G
                                                     0        0.0000010       -0.00541262    0.00000000
                                                     2        0.1200000       -0.26547906    0.00000000
                                                     2        0.1600000        1.04289661    0.00000000
                                                     2        0.2400000       -1.92800913    0.00000000
                                                     2        0.4000000        2.26691633    0.00000000
                                                     2        0.7000000       -1.97391482    0.00000000
                                      F - G
                                                     0        0.0000010       -0.02604870    0.00000000
                                                     2        0.1200000        0.37362552    0.00000000
                                                     2        0.1600000       -1.43526367    0.00000000
                                                     2        0.2200000        1.76778079    0.00000000
                                                     2        0.5000000       -1.90846303    0.00000000
    5         17           17
                                      G and up 
                                                     0        0.0000010        0.00010715    0.00000000
                                                     2        0.1200000       -0.00076261    0.00000000
                                                     2        0.1600000        0.04395058    0.00000000
                                                     2        0.2000000       -0.10504698    0.00000000
                                                     2        0.2800000        0.13950130    0.00000000
                                                     2        0.4000000       -0.12623641    0.00000000
                                                     2        0.7000000       -0.42143984    0.00000000
                                      S - G
                                                     0        0.0000010       -0.00139392    0.00000000
                                                     2        0.1200000       -0.01887585    0.00000000
                                                     2        0.4000000        0.46511854    0.00000000
                                      P - G
                                                     0        0.0000010        0.03235088    0.00000000
                                                     2        0.1200000        0.42220750    0.00000000
                                                     2        0.1600000       -1.02263661    0.00000000
                                                     2        0.2600000        0.81322107    0.00000000
                                      D - G
                                                     0        0.0000010       -0.08073759    0.00000000
                                                     2        0.1200000       -0.02872770    0.00000000
                                                     2        0.2000000        0.11554000    0.00000000
                                      F - G
                                                     0        0.0000010        0.04269408    0.00000000
                                                     2        0.1200000       -0.09796467    0.00000000
                                                     2        0.2000000        0.26850099    0.00000000
    6         17           17
                                      G and up 
                                                     0        0.0000010        0.00010715    0.00000000
                                                     2        0.1200000       -0.00076261    0.00000000
                                                     2        0.1600000        0.04395058    0.00000000
                                                     2        0.2000000       -0.10504698    0.00000000
                                                     2        0.2800000        0.13950130    0.00000000
                                                     2        0.4000000       -0.12623641    0.00000000
                                                     2        0.7000000       -0.42143984    0.00000000
                                      S - G
                                                     0        0.0000010       -0.00139392    0.00000000
                                                     2        0.1200000       -0.01887585    0.00000000
                                                     2        0.4000000        0.46511854    0.00000000
                                      P - G
                                                     0        0.0000010        0.03235088    0.00000000
                                                     2        0.1200000        0.42220750    0.00000000
                                                     2        0.1600000       -1.02263661    0.00000000
                                                     2        0.2600000        0.81322107    0.00000000
                                      D - G
                                                     0        0.0000010       -0.08073759    0.00000000
                                                     2        0.1200000       -0.02872770    0.00000000
                                                     2        0.2000000        0.11554000    0.00000000
                                      F - G
                                                     0        0.0000010        0.04269408    0.00000000
                                                     2        0.1200000       -0.09796467    0.00000000
                                                     2        0.2000000        0.26850099    0.00000000
 ======================================================================================================
   146 basis functions,   334 primitive gaussians,   158 cartesian basis functions
    31 alpha electrons       31 beta electrons
       nuclear repulsion energy       324.3886192853 Hartrees.
 NAtoms=    6 NActive=    6 NUniq=    6 SFac= 1.00D+00 NAtFMM=   60 NAOKFM=F Big=F
   1 Symmetry operations used in ECPInt.
 ECPInt:  NShTT=    1711 NPrTT=   16355 LenC2=    1699 LenP2D=   10662.
 LDataN:  DoStor=T MaxTD1= 6 Len=  172
 Initial guess from the checkpoint file:  "BDE49_expt_1103_mol1.chk"
 B after Tr=     0.000000    0.000000   -0.000000
         Rot=    0.000000   -0.000000   -0.000000    1.000000 Ang= 180.00 deg.
 >>>>>>>>>> Convergence criterion not met.
 SCF Done:  E(RHF) =  -1144.84519029     A.U. after    2 cycles
            NFock=  1  Conv=0.11D-01     -V/T= 2.0032

 **********************************************************************

            Population analysis using the SCF Density.

 **********************************************************************

 Orbital symmetries:
       Occupied  (A) (A) (A) (A) (A) (A) (A) (A) (A) (A) (A) (A)
                 (A) (A) (A) (A) (A) (A) (A) (A) (A) (A) (A) (A)
                 (A) (A) (A) (A) (A) (A) (A)
       Virtual   (A) (A) (A) (A) (A) (A) (A) (A) (A) (A) (A) (A)
                 (A) (A) (A) (A) (A) (A) (A) (A) (A) (A) (A) (A)
                 (A) (A) (A) (A) (A) (A) (A) (A) (A) (A) (A) (A)
                 (A) (A) (A) (A) (A) (A) (A) (A) (A) (A) (A) (A)
                 (A) (A) (A) (A) (A) (A) (A) (A) (A) (A) (A) (A)
                 (A) (A) (A) (A) (A) (A) (A) (A) (A) (A) (A) (A)
                 (A) (A) (A) (A) (A) (A) (A) (A) (A) (A) (A) (A)
                 (A) (A) (A) (A) (A) (A) (A) (A) (A) (A) (A) (A)
                 (A) (A) (A) (A) (A) (A) (A) (A) (A) (A) (A) (A)
                 (A) (A) (A) (A) (A) (A) (A)
 The electronic state is 1-A.
 Alpha  occ. eigenvalues -- -105.61607-105.61607 -20.63302 -20.63298 -11.46537
 Alpha  occ. eigenvalues --  -11.46516 -10.66442 -10.66441  -7.83385  -7.83377
 Alpha  occ. eigenvalues --   -7.82975  -7.82973  -7.82945  -7.82944  -1.58402
 Alpha  occ. eigenvalues --   -1.57484  -1.14400  -1.12980  -0.95702  -0.79240
 Alpha  occ. eigenvalues --   -0.75587  -0.73020  -0.68207  -0.67317  -0.60657
 Alpha  occ. eigenvalues --   -0.56038  -0.52007  -0.51016  -0.50127  -0.50039
 Alpha  occ. eigenvalues --   -0.46872
 Alpha virt. eigenvalues --    0.01433   0.06172   0.06814   0.08586   0.10125
 Alpha virt. eigenvalues --    0.10159   0.10844   0.12086   0.12376   0.13119
 Alpha virt. eigenvalues --    0.14167   0.16708   0.16948   0.17622   0.18070
 Alpha virt. eigenvalues --    0.20424   0.20545   0.24203   0.25869   0.27077
 Alpha virt. eigenvalues --    0.27466   0.29431   0.30513   0.31091   0.32343
 Alpha virt. eigenvalues --    0.32379   0.35176   0.37085   0.37454   0.42124
 Alpha virt. eigenvalues --    0.42282   0.42754   0.48478   0.48493   0.49169
 Alpha virt. eigenvalues --    0.51528   0.52076   0.57790   0.59701   0.66017
 Alpha virt. eigenvalues --    0.66626   0.67275   0.67755   0.68328   0.70002
 Alpha virt. eigenvalues --    0.73666   0.76808   0.81126   0.85603   0.85767
 Alpha virt. eigenvalues --    0.87007   0.87121   0.90344   0.91769   0.92317
 Alpha virt. eigenvalues --    0.95361   0.97617   1.00993   1.04987   1.06427
 Alpha virt. eigenvalues --    1.11492   1.18188   1.18954   1.21354   1.25172
 Alpha virt. eigenvalues --    1.26253   1.27613   1.28316   1.28449   1.28750
 Alpha virt. eigenvalues --    1.31743   1.31816   1.33219   1.33469   1.36735
 Alpha virt. eigenvalues --    1.36748   1.36933   1.39270   1.39849   1.42624
 Alpha virt. eigenvalues --    1.48569   1.51464   1.53543   1.54355   1.61437
 Alpha virt. eigenvalues --    1.72366   1.74294   1.75793   1.81577   1.86296
 Alpha virt. eigenvalues --    1.95392   1.97606   1.97652   2.04072   2.05907
 Alpha virt. eigenvalues --    2.11101   2.19537   2.29530   2.33889   2.37825
 Alpha virt. eigenvalues --    2.47580   2.50092   2.91772   3.13875   3.18255
 Alpha virt. eigenvalues --    3.76477   3.79323   3.79532   3.80387   3.82390
 Alpha virt. eigenvalues --    3.84662   3.90503   3.94406   4.16422   4.17936
          Condensed to atoms (all electrons):
 Mulliken charges:
               1
     1  C    0.878074
     2  C    0.878083
     3  O   -0.931261
     4  O   -0.931271
     5  Cl   0.053192
     6  Cl   0.053183
 Sum of Mulliken charges =  -0.00000
 Mulliken charges with hydrogens summed into heavy atoms:
               1
     1  C    0.878074
     2  C    0.878083
     3  O   -0.931261
     4  O   -0.931271
     5  Cl   0.053192
     6  Cl   0.053183
 Electronic spatial extent (au):  <R**2>=            887.8556
 Charge=             -0.0000 electrons
 Dipole moment (field-independent basis, Debye):
    X=              0.0001    Y=              0.0000    Z=             -0.0004  Tot=              0.0004

 Test job not archived.
 1\1\GINC-SE083\SP\RHF\Aug-CC-pVDZ\C2Cl2O2\OHZDE\08-Apr-2025\0\\#t hf a
 ug-cc-pvdz iop(5/13=1,5/36=2,99/5=2) pseudo=read geom=check guess=(rea
 d,tcheck) scf=(maxcycle=1)\\title\\0,1\C,0,-0.558179,-0.544434,0.00033
 4\C,0,0.558166,0.544419,0.000377\O,0,-0.365259,-1.706819,0.000731\O,0,
 0.365262,1.70681,0.000758\Cl,0,-2.176973,0.184037,-0.000406\Cl,0,2.176
 977,-0.184027,-0.000545\\Version=ES64L-G16RevC.01\State=1-A\HF=-1144.8
 451903\RMSD=1.111e-02\Dipole=-0.000037,-0.0000067,-0.0001655\Quadrupol
 e=1.6572813,-3.7651359,2.1078546,-1.0801948,-0.0000388,0.0000192\PG=C0
 1 [X(C2Cl2O2)]\\@


 BE NOT THE FIRST BY WHOM THE NEW ARE TRIED,
 NOR YET THE THE LAST TO LAY THE OLD ASIDE.

                          -- ALEXANDER POPE
 Job cpu time:       0 days  0 hours  0 minutes 47.0 seconds.
 Elapsed time:       0 days  0 hours  0 minutes  4.3 seconds.
 File lengths (MBytes):  RWF=      6 Int=      0 D2E=      0 Chk=      4 Scr=      1
 Normal termination of Gaussian 16 at Tue Apr  8 22:35:48 2025.
