 Entering Gaussian System, Link 0=g16
 Input=BDE49_nonexpt_946_mol1.gjf
 Output=BDE49_nonexpt_946_mol1.log
 Initial command:
 /arc/software/Gaussian/g16.c01/l1.exe "/tmp/slurm/4855523/Gau-1604504.inp" -scrdir="/tmp/slurm/4855523/"
 Entering Link 1 = /arc/software/Gaussian/g16.c01/l1.exe PID=   1604505.
  
 Copyright (c) 1988-2019, Gaussian, Inc.  All Rights Reserved.
  
 This is part of the Gaussian(R) 16 program.  It is based on
 the Gaussian(R) 09 system (copyright 2009, Gaussian, Inc.),
 the Gaussian(R) 03 system (copyright 2003, Gaussian, Inc.),
 the Gaussian(R) 98 system (copyright 1998, Gaussian, Inc.),
 the Gaussian(R) 94 system (copyright 1995, Gaussian, Inc.),
 the Gaussian 92(TM) system (copyright 1992, Gaussian, Inc.),
 the Gaussian 90(TM) system (copyright 1990, Gaussian, Inc.),
 the Gaussian 88(TM) system (copyright 1988, Gaussian, Inc.),
 the Gaussian 86(TM) system (copyright 1986, Carnegie Mellon
 University), and the Gaussian 82(TM) system (copyright 1983,
 Carnegie Mellon University). Gaussian is a federally registered
 trademark of Gaussian, Inc.
  
 This software contains proprietary and confidential information,
 including trade secrets, belonging to Gaussian, Inc.
  
 This software is provided under written license and may be
 used, copied, transmitted, or stored only in accord with that
 written license.
  
 The following legend is applicable only to US Government
 contracts under FAR:
  
                    RESTRICTED RIGHTS LEGEND
  
 Use, reproduction and disclosure by the US Government is
 subject to restrictions as set forth in subparagraphs (a)
 and (c) of the Commercial Computer Software - Restricted
 Rights clause in FAR 52.227-19.
  
 Gaussian, Inc.
 340 Quinnipiac St., Bldg. 40, Wallingford CT 06492
  
  
 ---------------------------------------------------------------
 Warning -- This program may not be used in any manner that
 competes with the business of Gaussian, Inc. or will provide
 assistance to any competitor of Gaussian, Inc.  The licensee
 of this program is prohibited from giving any competitor of
 Gaussian, Inc. access to this program.  By using this program,
 the user acknowledges that Gaussian, Inc. is engaged in the
 business of creating and licensing software in the field of
 computational chemistry and represents and warrants to the
 licensee that it is not a competitor of Gaussian, Inc. and that
 it will not use this program in any manner prohibited above.
 ---------------------------------------------------------------
  

 Cite this work as:
 Gaussian 16, Revision C.01,
 M. J. Frisch, G. W. Trucks, H. B. Schlegel, G. E. Scuseria, 
 M. A. Robb, J. R. Cheeseman, G. Scalmani, V. Barone, 
 G. A. Petersson, H. Nakatsuji, X. Li, M. Caricato, A. V. Marenich, 
 J. Bloino, B. G. Janesko, R. Gomperts, B. Mennucci, H. P. Hratchian, 
 J. V. Ortiz, A. F. Izmaylov, J. L. Sonnenberg, D. Williams-Young, 
 F. Ding, F. Lipparini, F. Egidi, J. Goings, B. Peng, A. Petrone, 
 T. Henderson, D. Ranasinghe, V. G. Zakrzewski, J. Gao, N. Rega, 
 G. Zheng, W. Liang, M. Hada, M. Ehara, K. Toyota, R. Fukuda, 
 J. Hasegawa, M. Ishida, T. Nakajima, Y. Honda, O. Kitao, H. Nakai, 
 T. Vreven, K. Throssell, J. A. Montgomery, Jr., J. E. Peralta, 
 F. Ogliaro, M. J. Bearpark, J. J. Heyd, E. N. Brothers, K. N. Kudin, 
 V. N. Staroverov, T. A. Keith, R. Kobayashi, J. Normand, 
 K. Raghavachari, A. P. Rendell, J. C. Burant, S. S. Iyengar, 
 J. Tomasi, M. Cossi, J. M. Millam, M. Klene, C. Adamo, R. Cammi, 
 J. W. Ochterski, R. L. Martin, K. Morokuma, O. Farkas, 
 J. B. Foresman, and D. J. Fox, Gaussian, Inc., Wallingford CT, 2019.
 
 ******************************************
 Gaussian 16:  ES64L-G16RevC.01  3-Jul-2019
                 9-Apr-2025 
 ******************************************
 %nprocs=16
 Will use up to   16 processors via shared memory.
 %mem=30GB
 %chk=BDE49_nonexpt_946_mol1.chk
 ----------------------------------------------------------------------
 #t hf aug-cc-pvdz symm=none int=(grid=ultrafine) guess=(read,tcheck) s
 table=(opt,rrhf)
 ----------------------------------------------------------------------
 -----
 title
 -----
 Symbolic Z-matrix:
 Charge =  0 Multiplicity = 1
 C                    -0.82051   0.34254   0.02303 
 C                    -1.68885   0.62343   1.08043 
 H                    -1.3534    1.26491   1.88678 
 C                    -2.97012   0.08179   1.07982 
 H                    -3.64558   0.2947    1.90005 
 C                    -3.38308  -0.73166   0.0247 
 H                    -4.38185  -1.15269   0.02607 
 C                    -2.51657  -1.00113  -1.03273 
 H                    -2.83849  -1.63122  -1.85339 
 C                    -1.23368  -0.46012  -1.04066 
 H                    -0.54964  -0.65617  -1.85649 
 N                     0.49803   0.90006   0.02805 
 Cl                    0.64318   2.51057  -0.62532 
 C                     1.6776    0.30749   0.44577 
 O                     2.75304   0.85256   0.40704 
 C                     1.52054  -1.11233   0.9927 
 Cl                    1.76131  -2.33171  -0.32412 
 H                     0.54964  -1.31324   1.43582 
 H                     2.3206   -1.26779   1.71053 
 
                    Distance matrix (angstroms):
                    1          2          3          4          5
     1  C    0.000000
     2  C    1.396785   0.000000
     3  H    2.146693   1.083620   0.000000
     4  C    2.409483   1.391045   2.159800   0.000000
     5  H    3.392125   2.146770   2.489095   1.083677   0.000000
     6  C    2.778615   2.412724   3.401948   1.394818   2.153889
     7  H    3.862502   3.393895   4.298673   2.151125   2.479682
     8  C    2.407633   2.791007   3.874456   2.416871   3.399264
     9  H    3.389534   3.874583   4.958017   3.399331   4.295213
    10  C    1.395142   2.424931   3.399997   2.793801   3.877473
    11  H    2.145550   3.400095   4.283529   3.876231   4.959891
    12  N    1.431564   2.442633   2.648727   3.715343   4.586970
    13  Cl   2.695004   3.450972   3.442177   4.675714   5.448024
    14  C    2.533861   3.440288   3.489996   4.696187   5.518267
    15  O    3.630120   4.498479   4.384341   5.813877   6.594129
    16  C    2.921887   3.649763   3.835384   4.647528   5.430635
    17  Cl   3.733352   4.754915   5.246442   5.493851   6.409316
    18  H    2.571941   2.981248   3.236010   3.802834   4.516729
    19  H    3.912465   4.477662   4.465859   5.496439   6.170297
                    6          7          8          9         10
     6  C    0.000000
     7  H    1.083889   0.000000
     8  C    1.393417   2.150189   0.000000
     9  H    2.152445   2.478577   1.083576   0.000000
    10  C    2.414263   3.395377   1.392321   2.146489   0.000000
    11  H    3.401902   4.298417   2.160178   2.487878   1.082547
    12  N    4.210166   5.294053   3.718537   4.591241   2.447657
    13  Cl   5.210117   6.252574   4.741513   5.548381   3.538368
    14  C    5.183393   6.247014   4.635670   5.425839   3.357711
    15  O    6.348845   7.421103   5.768689   6.522560   4.439914
    16  C    5.012726   5.981158   4.518073   5.231693   3.485067
    17  Cl   5.398751   6.265069   4.535723   4.897697   3.603644
    18  H    4.218504   5.131550   3.948771   4.732805   3.168758
    19  H    5.971716   6.911838   5.567295   6.280906   4.566653
                   11         12         13         14         15
    11  H    0.000000
    12  N    2.659123   0.000000
    13  Cl   3.600947   1.744041   0.000000
    14  C    3.345088   1.384565   2.659096   0.000000
    15  O    4.278723   2.287129   2.875105   1.206305   0.000000
    16  C    3.551283   2.454753   4.063634   1.529604   2.392245
    17  Cl   3.239764   3.487732   4.978816   2.750480   3.414341
    18  H    3.532625   2.623578   4.344937   2.208896   3.256377
    19  H    4.619089   3.294255   4.748254   2.120044   2.526260
                   16         17         18         19
    16  C    0.000000
    17  Cl   1.810769   0.000000
    18  H    1.085983   2.367025   0.000000
    19  H    1.086067   2.363165   1.792712   0.000000
 Symmetry turned off by external request.
 Rotational constants (GHZ):           0.8522408           0.5986473           0.4132181
   347 basis functions,   669 primitive gaussians,   371 cartesian basis functions
    52 alpha electrons       52 beta electrons
       nuclear repulsion energy       860.9084016009 Hartrees.
 NAtoms=   19 NActive=   19 NUniq=   19 SFac= 1.00D+00 NAtFMM=   60 NAOKFM=F Big=F
 ExpMin= 2.97D-02 ExpMax= 1.28D+05 ExpMxC= 1.24D+03 IAcc=3 IRadAn=         5 AccDes= 0.00D+00
 Harris functional with IExCor=  205 and IRadAn=       5 diagonalized for initial guess.
 HarFok:  IExCor=  205 AccDes= 0.00D+00 IRadAn=         5 IDoV= 1 UseB2=F ITyADJ=14
 ICtDFT=  3500011 ScaDFX=  1.000000  1.000000  1.000000  1.000000
 FoFCou: FMM=F IPFlag=           0 FMFlag=      100000 FMFlg1=           0
         NFxFlg=           0 DoJE=T BraDBF=F KetDBF=T FulRan=T
         wScrn=  0.000000 ICntrl=       500 IOpCl=  0 I1Cent=   200000004 NGrid=           0
         NMat0=    1 NMatS0=      1 NMatT0=    0 NMatD0=    1 NMtDS0=    0 NMtDT0=    0
 Symmetry not used in FoFCou.
 SCF Done:  E(RHF) =  -1355.35245627     A.U. after   16 cycles
            NFock= 16  Conv=0.37D-08     -V/T= 2.0004

 **********************************************************************

            Population analysis using the SCF Density.

 **********************************************************************

 Alpha  occ. eigenvalues -- -104.87749-104.84346 -20.56000 -15.66507 -11.39463
 Alpha  occ. eigenvalues --  -11.32731 -11.31009 -11.27099 -11.26917 -11.26887
 Alpha  occ. eigenvalues --  -11.26653 -11.26529 -10.59929 -10.56892  -8.06735
 Alpha  occ. eigenvalues --   -8.06306  -8.06283  -8.03661  -8.03333  -8.03320
 Alpha  occ. eigenvalues --   -1.42256  -1.29912  -1.17704  -1.15143  -1.08433
 Alpha  occ. eigenvalues --   -1.04715  -1.03226  -0.95804  -0.87454  -0.86154
 Alpha  occ. eigenvalues --   -0.78264  -0.72917  -0.70562  -0.68374  -0.67533
 Alpha  occ. eigenvalues --   -0.64529  -0.62502  -0.62040  -0.61371  -0.59655
 Alpha  occ. eigenvalues --   -0.55701  -0.54116  -0.53054  -0.52405  -0.50041
 Alpha  occ. eigenvalues --   -0.48202  -0.47253  -0.45375  -0.43816  -0.40038
 Alpha  occ. eigenvalues --   -0.36256  -0.36221
 Alpha virt. eigenvalues --    0.02744   0.03509   0.04243   0.04733   0.05740
 Alpha virt. eigenvalues --    0.06199   0.06412   0.07136   0.08030   0.08954
 Alpha virt. eigenvalues --    0.09237   0.10566   0.11342   0.11987   0.12671
 Alpha virt. eigenvalues --    0.12980   0.13425   0.13672   0.14055   0.14303
 Alpha virt. eigenvalues --    0.14561   0.14665   0.15450   0.15769   0.15981
 Alpha virt. eigenvalues --    0.16117   0.16695   0.16953   0.17759   0.18159
 Alpha virt. eigenvalues --    0.18336   0.18882   0.19091   0.19558   0.20181
 Alpha virt. eigenvalues --    0.20819   0.21295   0.22078   0.22433   0.23405
 Alpha virt. eigenvalues --    0.24365   0.24880   0.25753   0.25968   0.27995
 Alpha virt. eigenvalues --    0.29225   0.30025   0.30327   0.30547   0.31228
 Alpha virt. eigenvalues --    0.31550   0.32872   0.32945   0.33305   0.34292
 Alpha virt. eigenvalues --    0.34848   0.35292   0.36035   0.36182   0.37024
 Alpha virt. eigenvalues --    0.37602   0.37724   0.37832   0.39655   0.40023
 Alpha virt. eigenvalues --    0.40317   0.40780   0.41226   0.41658   0.42111
 Alpha virt. eigenvalues --    0.42991   0.43784   0.44365   0.44624   0.45468
 Alpha virt. eigenvalues --    0.45874   0.46628   0.47085   0.47954   0.49425
 Alpha virt. eigenvalues --    0.50699   0.51132   0.51929   0.53576   0.54583
 Alpha virt. eigenvalues --    0.54850   0.55383   0.56109   0.56781   0.57126
 Alpha virt. eigenvalues --    0.57905   0.58216   0.58489   0.59309   0.60640
 Alpha virt. eigenvalues --    0.61331   0.61953   0.62872   0.63349   0.63922
 Alpha virt. eigenvalues --    0.65004   0.65843   0.66330   0.66862   0.67465
 Alpha virt. eigenvalues --    0.67954   0.68303   0.68887   0.69960   0.70333
 Alpha virt. eigenvalues --    0.71272   0.72535   0.73400   0.74593   0.75055
 Alpha virt. eigenvalues --    0.75819   0.76276   0.77160   0.77574   0.78190
 Alpha virt. eigenvalues --    0.78719   0.79814   0.80348   0.81913   0.82048
 Alpha virt. eigenvalues --    0.83537   0.84654   0.84824   0.85905   0.86460
 Alpha virt. eigenvalues --    0.87415   0.89208   0.90513   0.91436   0.91917
 Alpha virt. eigenvalues --    0.92471   0.92658   0.93789   0.94452   0.94821
 Alpha virt. eigenvalues --    0.95541   0.96597   0.98813   0.98983   1.00348
 Alpha virt. eigenvalues --    1.01062   1.01628   1.02723   1.03949   1.04579
 Alpha virt. eigenvalues --    1.04968   1.06160   1.08420   1.08978   1.10149
 Alpha virt. eigenvalues --    1.11676   1.12570   1.13089   1.14284   1.15335
 Alpha virt. eigenvalues --    1.17467   1.18723   1.19539   1.20868   1.23161
 Alpha virt. eigenvalues --    1.26214   1.26794   1.27695   1.29199   1.30683
 Alpha virt. eigenvalues --    1.34582   1.35987   1.36862   1.38400   1.39911
 Alpha virt. eigenvalues --    1.40947   1.41461   1.43383   1.44833   1.45830
 Alpha virt. eigenvalues --    1.46116   1.47229   1.47974   1.49559   1.50320
 Alpha virt. eigenvalues --    1.51157   1.51663   1.52021   1.52629   1.54691
 Alpha virt. eigenvalues --    1.57003   1.58020   1.58902   1.59630   1.60297
 Alpha virt. eigenvalues --    1.61077   1.62474   1.63050   1.64111   1.65322
 Alpha virt. eigenvalues --    1.66371   1.67028   1.68674   1.71158   1.72547
 Alpha virt. eigenvalues --    1.73496   1.74371   1.75626   1.76346   1.78323
 Alpha virt. eigenvalues --    1.79141   1.80834   1.82723   1.84227   1.86183
 Alpha virt. eigenvalues --    1.88155   1.89949   1.90256   1.92042   1.92871
 Alpha virt. eigenvalues --    1.94185   1.95469   1.95851   1.96863   1.98557
 Alpha virt. eigenvalues --    1.99697   2.02796   2.03280   2.03627   2.07045
 Alpha virt. eigenvalues --    2.10026   2.10446   2.10882   2.12104   2.12651
 Alpha virt. eigenvalues --    2.15031   2.19100   2.20644   2.21486   2.22374
 Alpha virt. eigenvalues --    2.23466   2.23938   2.26330   2.27124   2.29126
 Alpha virt. eigenvalues --    2.29951   2.31569   2.34499   2.35832   2.35976
 Alpha virt. eigenvalues --    2.38991   2.39037   2.42306   2.42884   2.45128
 Alpha virt. eigenvalues --    2.49658   2.50644   2.56333   2.58508   2.61178
 Alpha virt. eigenvalues --    2.61770   2.63011   2.65670   2.67308   2.72211
 Alpha virt. eigenvalues --    2.78797   2.80057   2.80481   2.84437   2.85942
 Alpha virt. eigenvalues --    2.88022   2.92378   2.99291   3.01373   3.02231
 Alpha virt. eigenvalues --    3.07238   3.10310   3.14051   3.15216   3.16534
 Alpha virt. eigenvalues --    3.22945   3.24288   3.35254   3.39811   3.45188
 Alpha virt. eigenvalues --    3.59209   3.63873   3.76011   3.79578   3.82784
 Alpha virt. eigenvalues --    3.83308   3.89872   3.98431   4.18643   4.92009
          Condensed to atoms (all electrons):
 Mulliken charges:
               1
     1  C   -0.191186
     2  C    0.634688
     3  H   -0.571327
     4  C    0.662866
     5  H   -0.438168
     6  C    0.660116
     7  H   -0.449821
     8  C    0.639724
     9  H   -0.447540
    10  C    0.726655
    11  H   -0.580013
    12  N   -0.793296
    13  Cl   0.254512
    14  C    0.649021
    15  O   -0.713040
    16  C    0.002323
    17  Cl  -0.057117
    18  H    0.000709
    19  H    0.010892
 Sum of Mulliken charges =  -0.00000
 Mulliken charges with hydrogens summed into heavy atoms:
               1
     1  C   -0.191186
     2  C    0.063361
     4  C    0.224698
     6  C    0.210295
     8  C    0.192184
    10  C    0.146643
    12  N   -0.793296
    13  Cl   0.254512
    14  C    0.649021
    15  O   -0.713040
    16  C    0.013924
    17  Cl  -0.057117
 Electronic spatial extent (au):  <R**2>=           2674.1522
 Charge=              0.0000 electrons
 Dipole moment (field-independent basis, Debye):
    X=             -4.8121    Y=             -1.5013    Z=              1.5028  Tot=              5.2601
 NROrb=    347 NOA=    52 NOB=    52 NVA=   295 NVB=   295

 **** Warning!!: The largest alpha MO coefficient is  0.11106288D+03

    12 initial guesses have been made.
 Iteration     1 Dimension    12 NMult     0 NNew     12
 New state      1 was old state      2
 Iteration     2 Dimension    24 NMult    12 NNew     12
 Iteration     3 Dimension    27 NMult    24 NNew      3
 Iteration     4 Dimension    30 NMult    27 NNew      3
 Iteration     5 Dimension    33 NMult    30 NNew      3
 Iteration     6 Dimension    36 NMult    33 NNew      3
 ***********************************************************************
 Stability analysis using <AA,BB:AA,BB> singles matrix:
 ***********************************************************************
 Ground to excited state transition densities written to RWF  633

 Eigenvectors of the stability matrix:
 
 Excited state symmetry could not be determined.
 Eigenvector   1:      Singlet-?Sym  Eigenvalue= 0.1675605  <S**2>=0.000
      51 -> 59         0.34808
      51 -> 60        -0.20861
      51 -> 62        -0.16734
      51 -> 84        -0.11038
      52 -> 61        -0.23667
      52 -> 62        -0.18324
      52 -> 63         0.30617
 The wavefunction is stable under the perturbations considered.
 The wavefunction is already stable.

 **********************************************************************

            Population analysis using the SCF Density.

 **********************************************************************

 Alpha  occ. eigenvalues -- -104.87749-104.84346 -20.56000 -15.66507 -11.39463
 Alpha  occ. eigenvalues --  -11.32731 -11.31009 -11.27099 -11.26917 -11.26887
 Alpha  occ. eigenvalues --  -11.26653 -11.26529 -10.59929 -10.56892  -8.06735
 Alpha  occ. eigenvalues --   -8.06306  -8.06283  -8.03661  -8.03333  -8.03320
 Alpha  occ. eigenvalues --   -1.42256  -1.29912  -1.17704  -1.15143  -1.08433
 Alpha  occ. eigenvalues --   -1.04715  -1.03226  -0.95804  -0.87454  -0.86154
 Alpha  occ. eigenvalues --   -0.78264  -0.72917  -0.70562  -0.68374  -0.67533
 Alpha  occ. eigenvalues --   -0.64529  -0.62502  -0.62040  -0.61371  -0.59655
 Alpha  occ. eigenvalues --   -0.55701  -0.54116  -0.53054  -0.52405  -0.50041
 Alpha  occ. eigenvalues --   -0.48202  -0.47253  -0.45375  -0.43816  -0.40038
 Alpha  occ. eigenvalues --   -0.36256  -0.36221
 Alpha virt. eigenvalues --    0.02744   0.03509   0.04243   0.04733   0.05740
 Alpha virt. eigenvalues --    0.06199   0.06412   0.07136   0.08030   0.08954
 Alpha virt. eigenvalues --    0.09237   0.10566   0.11342   0.11987   0.12671
 Alpha virt. eigenvalues --    0.12980   0.13425   0.13672   0.14055   0.14303
 Alpha virt. eigenvalues --    0.14561   0.14665   0.15450   0.15769   0.15981
 Alpha virt. eigenvalues --    0.16117   0.16695   0.16953   0.17759   0.18159
 Alpha virt. eigenvalues --    0.18336   0.18882   0.19091   0.19558   0.20181
 Alpha virt. eigenvalues --    0.20819   0.21295   0.22078   0.22433   0.23405
 Alpha virt. eigenvalues --    0.24365   0.24880   0.25753   0.25968   0.27995
 Alpha virt. eigenvalues --    0.29225   0.30025   0.30327   0.30547   0.31228
 Alpha virt. eigenvalues --    0.31550   0.32872   0.32945   0.33305   0.34292
 Alpha virt. eigenvalues --    0.34848   0.35292   0.36035   0.36182   0.37024
 Alpha virt. eigenvalues --    0.37602   0.37724   0.37832   0.39655   0.40023
 Alpha virt. eigenvalues --    0.40317   0.40780   0.41226   0.41658   0.42111
 Alpha virt. eigenvalues --    0.42991   0.43784   0.44365   0.44624   0.45468
 Alpha virt. eigenvalues --    0.45874   0.46628   0.47085   0.47954   0.49425
 Alpha virt. eigenvalues --    0.50699   0.51132   0.51929   0.53576   0.54583
 Alpha virt. eigenvalues --    0.54850   0.55383   0.56109   0.56781   0.57126
 Alpha virt. eigenvalues --    0.57905   0.58216   0.58489   0.59309   0.60640
 Alpha virt. eigenvalues --    0.61331   0.61953   0.62872   0.63349   0.63922
 Alpha virt. eigenvalues --    0.65004   0.65843   0.66330   0.66862   0.67465
 Alpha virt. eigenvalues --    0.67954   0.68303   0.68887   0.69960   0.70333
 Alpha virt. eigenvalues --    0.71272   0.72535   0.73400   0.74593   0.75055
 Alpha virt. eigenvalues --    0.75819   0.76276   0.77160   0.77574   0.78190
 Alpha virt. eigenvalues --    0.78719   0.79814   0.80348   0.81913   0.82048
 Alpha virt. eigenvalues --    0.83537   0.84654   0.84824   0.85905   0.86460
 Alpha virt. eigenvalues --    0.87415   0.89208   0.90513   0.91436   0.91917
 Alpha virt. eigenvalues --    0.92471   0.92658   0.93789   0.94452   0.94821
 Alpha virt. eigenvalues --    0.95541   0.96597   0.98813   0.98983   1.00348
 Alpha virt. eigenvalues --    1.01062   1.01628   1.02723   1.03949   1.04579
 Alpha virt. eigenvalues --    1.04968   1.06160   1.08420   1.08978   1.10149
 Alpha virt. eigenvalues --    1.11676   1.12570   1.13089   1.14284   1.15335
 Alpha virt. eigenvalues --    1.17467   1.18723   1.19539   1.20868   1.23161
 Alpha virt. eigenvalues --    1.26214   1.26794   1.27695   1.29199   1.30683
 Alpha virt. eigenvalues --    1.34582   1.35987   1.36862   1.38400   1.39911
 Alpha virt. eigenvalues --    1.40947   1.41461   1.43383   1.44833   1.45830
 Alpha virt. eigenvalues --    1.46116   1.47229   1.47974   1.49559   1.50320
 Alpha virt. eigenvalues --    1.51157   1.51663   1.52021   1.52629   1.54691
 Alpha virt. eigenvalues --    1.57003   1.58020   1.58902   1.59630   1.60297
 Alpha virt. eigenvalues --    1.61077   1.62474   1.63050   1.64111   1.65322
 Alpha virt. eigenvalues --    1.66371   1.67028   1.68674   1.71158   1.72547
 Alpha virt. eigenvalues --    1.73496   1.74371   1.75626   1.76346   1.78323
 Alpha virt. eigenvalues --    1.79141   1.80834   1.82723   1.84227   1.86183
 Alpha virt. eigenvalues --    1.88155   1.89949   1.90256   1.92042   1.92871
 Alpha virt. eigenvalues --    1.94185   1.95469   1.95851   1.96863   1.98557
 Alpha virt. eigenvalues --    1.99697   2.02796   2.03280   2.03627   2.07045
 Alpha virt. eigenvalues --    2.10026   2.10446   2.10882   2.12104   2.12651
 Alpha virt. eigenvalues --    2.15031   2.19100   2.20644   2.21486   2.22374
 Alpha virt. eigenvalues --    2.23466   2.23938   2.26330   2.27124   2.29126
 Alpha virt. eigenvalues --    2.29951   2.31569   2.34499   2.35832   2.35976
 Alpha virt. eigenvalues --    2.38991   2.39037   2.42306   2.42884   2.45128
 Alpha virt. eigenvalues --    2.49658   2.50644   2.56333   2.58508   2.61178
 Alpha virt. eigenvalues --    2.61770   2.63011   2.65670   2.67308   2.72211
 Alpha virt. eigenvalues --    2.78797   2.80057   2.80481   2.84437   2.85942
 Alpha virt. eigenvalues --    2.88022   2.92378   2.99291   3.01373   3.02231
 Alpha virt. eigenvalues --    3.07238   3.10310   3.14051   3.15216   3.16534
 Alpha virt. eigenvalues --    3.22945   3.24288   3.35254   3.39811   3.45188
 Alpha virt. eigenvalues --    3.59209   3.63873   3.76011   3.79578   3.82784
 Alpha virt. eigenvalues --    3.83308   3.89872   3.98431   4.18643   4.92009
          Condensed to atoms (all electrons):
 Mulliken charges:
               1
     1  C   -0.191186
     2  C    0.634688
     3  H   -0.571327
     4  C    0.662866
     5  H   -0.438168
     6  C    0.660116
     7  H   -0.449821
     8  C    0.639724
     9  H   -0.447540
    10  C    0.726655
    11  H   -0.580013
    12  N   -0.793296
    13  Cl   0.254512
    14  C    0.649021
    15  O   -0.713040
    16  C    0.002323
    17  Cl  -0.057117
    18  H    0.000709
    19  H    0.010892
 Sum of Mulliken charges =  -0.00000
 Mulliken charges with hydrogens summed into heavy atoms:
               1
     1  C   -0.191186
     2  C    0.063361
     4  C    0.224698
     6  C    0.210295
     8  C    0.192184
    10  C    0.146643
    12  N   -0.793296
    13  Cl   0.254512
    14  C    0.649021
    15  O   -0.713040
    16  C    0.013924
    17  Cl  -0.057117
 Electronic spatial extent (au):  <R**2>=           2674.1522
 Charge=              0.0000 electrons
 Dipole moment (field-independent basis, Debye):
    X=             -4.8121    Y=             -1.5013    Z=              1.5028  Tot=              5.2601
 Unable to Open any file for archive entry.
 1\1\GINC-SE016\Stability\RHF\Aug-CC-pVDZ\C8H7Cl2N1O1\OHZDE\09-Apr-2025
 \0\\#t hf aug-cc-pvdz symm=none int=(grid=ultrafine) guess=(read,tchec
 k) stable=(opt,rrhf)\\title\\0,1\C,0,-0.820506,0.342543,0.023032\C,0,-
 1.688852,0.62343,1.080428\H,0,-1.353396,1.264911,1.88678\C,0,-2.970115
 ,0.081793,1.079818\H,0,-3.645578,0.294696,1.900048\C,0,-3.383078,-0.73
 1664,0.024703\H,0,-4.381851,-1.152693,0.026071\C,0,-2.516567,-1.001125
 ,-1.032728\H,0,-2.838485,-1.631219,-1.853391\C,0,-1.233678,-0.460115,-
 1.040665\H,0,-0.549641,-0.656171,-1.856486\N,0,0.498025,0.900061,0.028
 049\Cl,0,0.643178,2.510566,-0.625315\C,0,1.677596,0.30749,0.445771\O,0
 ,2.753035,0.85256,0.407037\C,0,1.520542,-1.11233,0.992702\Cl,0,1.76130
 5,-2.331715,-0.324119\H,0,0.549644,-1.313235,1.43582\H,0,2.3206,-1.267
 792,1.710532\\Version=ES64L-G16RevC.01\HF=-1355.3524563\RMSD=3.727e-09
 \Dipole=-1.893234,-0.5906534,0.5912555\Quadrupole=-2.7746432,-2.808540
 7,5.5831839,-0.5787983,0.0942303,0.7826799\PG=Unknown\\@
 The archive entry for this job was punched.


 I HAVE NOT FAILED, I HAVE ONLY DISCOVERED 10,000
 WAYS THAT DIDN'T WORK.  -- THOMAS A. EDISON
 Job cpu time:       0 days  0 hours 38 minutes  0.2 seconds.
 Elapsed time:       0 days  0 hours  2 minutes 37.8 seconds.
 File lengths (MBytes):  RWF=    618 Int=      0 D2E=      0 Chk=     17 Scr=      1
 Normal termination of Gaussian 16 at Wed Apr  9 00:54:32 2025.
 Initial command:
 /arc/software/Gaussian/g16.c01/l1.exe "/tmp/slurm/4855523/Gau-1604504.inp" -scrdir="/tmp/slurm/4855523/"
 Entering Link 1 = /arc/software/Gaussian/g16.c01/l1.exe PID=   1604784.
  
 Copyright (c) 1988-2019, Gaussian, Inc.  All Rights Reserved.
  
 This is part of the Gaussian(R) 16 program.  It is based on
 the Gaussian(R) 09 system (copyright 2009, Gaussian, Inc.),
 the Gaussian(R) 03 system (copyright 2003, Gaussian, Inc.),
 the Gaussian(R) 98 system (copyright 1998, Gaussian, Inc.),
 the Gaussian(R) 94 system (copyright 1995, Gaussian, Inc.),
 the Gaussian 92(TM) system (copyright 1992, Gaussian, Inc.),
 the Gaussian 90(TM) system (copyright 1990, Gaussian, Inc.),
 the Gaussian 88(TM) system (copyright 1988, Gaussian, Inc.),
 the Gaussian 86(TM) system (copyright 1986, Carnegie Mellon
 University), and the Gaussian 82(TM) system (copyright 1983,
 Carnegie Mellon University). Gaussian is a federally registered
 trademark of Gaussian, Inc.
  
 This software contains proprietary and confidential information,
 including trade secrets, belonging to Gaussian, Inc.
  
 This software is provided under written license and may be
 used, copied, transmitted, or stored only in accord with that
 written license.
  
 The following legend is applicable only to US Government
 contracts under FAR:
  
                    RESTRICTED RIGHTS LEGEND
  
 Use, reproduction and disclosure by the US Government is
 subject to restrictions as set forth in subparagraphs (a)
 and (c) of the Commercial Computer Software - Restricted
 Rights clause in FAR 52.227-19.
  
 Gaussian, Inc.
 340 Quinnipiac St., Bldg. 40, Wallingford CT 06492
  
  
 ---------------------------------------------------------------
 Warning -- This program may not be used in any manner that
 competes with the business of Gaussian, Inc. or will provide
 assistance to any competitor of Gaussian, Inc.  The licensee
 of this program is prohibited from giving any competitor of
 Gaussian, Inc. access to this program.  By using this program,
 the user acknowledges that Gaussian, Inc. is engaged in the
 business of creating and licensing software in the field of
 computational chemistry and represents and warrants to the
 licensee that it is not a competitor of Gaussian, Inc. and that
 it will not use this program in any manner prohibited above.
 ---------------------------------------------------------------
  

 Cite this work as:
 Gaussian 16, Revision C.01,
 M. J. Frisch, G. W. Trucks, H. B. Schlegel, G. E. Scuseria, 
 M. A. Robb, J. R. Cheeseman, G. Scalmani, V. Barone, 
 G. A. Petersson, H. Nakatsuji, X. Li, M. Caricato, A. V. Marenich, 
 J. Bloino, B. G. Janesko, R. Gomperts, B. Mennucci, H. P. Hratchian, 
 J. V. Ortiz, A. F. Izmaylov, J. L. Sonnenberg, D. Williams-Young, 
 F. Ding, F. Lipparini, F. Egidi, J. Goings, B. Peng, A. Petrone, 
 T. Henderson, D. Ranasinghe, V. G. Zakrzewski, J. Gao, N. Rega, 
 G. Zheng, W. Liang, M. Hada, M. Ehara, K. Toyota, R. Fukuda, 
 J. Hasegawa, M. Ishida, T. Nakajima, Y. Honda, O. Kitao, H. Nakai, 
 T. Vreven, K. Throssell, J. A. Montgomery, Jr., J. E. Peralta, 
 F. Ogliaro, M. J. Bearpark, J. J. Heyd, E. N. Brothers, K. N. Kudin, 
 V. N. Staroverov, T. A. Keith, R. Kobayashi, J. Normand, 
 K. Raghavachari, A. P. Rendell, J. C. Burant, S. S. Iyengar, 
 J. Tomasi, M. Cossi, J. M. Millam, M. Klene, C. Adamo, R. Cammi, 
 J. W. Ochterski, R. L. Martin, K. Morokuma, O. Farkas, 
 J. B. Foresman, and D. J. Fox, Gaussian, Inc., Wallingford CT, 2019.
 
 ******************************************
 Gaussian 16:  ES64L-G16RevC.01  3-Jul-2019
                 9-Apr-2025 
 ******************************************
 %nprocs=16
 Will use up to   16 processors via shared memory.
 %mem=30GB
 %chk=BDE49_nonexpt_946_mol1.chk
 ----------------------------------------------------------------------
 #t hf aug-cc-pvdz iop(5/13=1,5/36=2,99/5=2) pseudo=read geom=check gue
 ss=(read,tcheck) scf=(maxcycle=1)
 ----------------------------------------------------------------------
 -----
 title
 -----
 Structure from the checkpoint file:  "BDE49_nonexpt_946_mol1.chk"
 Charge =  0 Multiplicity = 1
 Z-Matrix found in chk file.
 C,0,-0.820506,0.342543,0.023032
 C,0,-1.688852,0.62343,1.080428
 H,0,-1.353396,1.264911,1.88678
 C,0,-2.970115,0.081793,1.079818
 H,0,-3.645578,0.294696,1.900048
 C,0,-3.383078,-0.731664,0.024703
 H,0,-4.381851,-1.152693,0.026071
 C,0,-2.516567,-1.001125,-1.032728
 H,0,-2.838485,-1.631219,-1.853391
 C,0,-1.233678,-0.460115,-1.040665
 H,0,-0.549641,-0.656171,-1.856486
 N,0,0.498025,0.900061,0.028049
 Cl,0,0.643178,2.510566,-0.625315
 C,0,1.677596,0.30749,0.445771
 O,0,2.753035,0.85256,0.407037
 C,0,1.520542,-1.11233,0.992702
 Cl,0,1.761305,-2.331715,-0.324119
 H,0,0.549644,-1.313235,1.43582
 H,0,2.3206,-1.267792,1.710532
 Recover connectivity data from disk.
                    Distance matrix (angstroms):
                    1          2          3          4          5
     1  C    0.000000
     2  C    1.396785   0.000000
     3  H    2.146693   1.083620   0.000000
     4  C    2.409483   1.391045   2.159800   0.000000
     5  H    3.392125   2.146770   2.489095   1.083677   0.000000
     6  C    2.778615   2.412724   3.401948   1.394818   2.153889
     7  H    3.862502   3.393895   4.298673   2.151125   2.479682
     8  C    2.407633   2.791007   3.874456   2.416871   3.399264
     9  H    3.389534   3.874583   4.958017   3.399331   4.295213
    10  C    1.395142   2.424931   3.399997   2.793801   3.877473
    11  H    2.145550   3.400095   4.283529   3.876231   4.959891
    12  N    1.431564   2.442633   2.648727   3.715343   4.586970
    13  Cl   2.695004   3.450972   3.442177   4.675714   5.448024
    14  C    2.533861   3.440288   3.489996   4.696187   5.518267
    15  O    3.630120   4.498479   4.384341   5.813877   6.594129
    16  C    2.921887   3.649763   3.835384   4.647528   5.430635
    17  Cl   3.733352   4.754915   5.246442   5.493851   6.409316
    18  H    2.571941   2.981248   3.236010   3.802834   4.516729
    19  H    3.912465   4.477662   4.465859   5.496439   6.170297
                    6          7          8          9         10
     6  C    0.000000
     7  H    1.083889   0.000000
     8  C    1.393417   2.150189   0.000000
     9  H    2.152445   2.478577   1.083576   0.000000
    10  C    2.414263   3.395377   1.392321   2.146489   0.000000
    11  H    3.401902   4.298417   2.160178   2.487878   1.082547
    12  N    4.210166   5.294053   3.718537   4.591241   2.447657
    13  Cl   5.210117   6.252574   4.741513   5.548381   3.538368
    14  C    5.183393   6.247014   4.635670   5.425839   3.357711
    15  O    6.348845   7.421103   5.768689   6.522560   4.439914
    16  C    5.012726   5.981158   4.518073   5.231693   3.485067
    17  Cl   5.398751   6.265069   4.535723   4.897697   3.603644
    18  H    4.218504   5.131550   3.948771   4.732805   3.168758
    19  H    5.971716   6.911838   5.567295   6.280906   4.566653
                   11         12         13         14         15
    11  H    0.000000
    12  N    2.659123   0.000000
    13  Cl   3.600947   1.744041   0.000000
    14  C    3.345088   1.384565   2.659096   0.000000
    15  O    4.278723   2.287129   2.875105   1.206305   0.000000
    16  C    3.551283   2.454753   4.063634   1.529604   2.392245
    17  Cl   3.239764   3.487732   4.978816   2.750480   3.414341
    18  H    3.532625   2.623578   4.344937   2.208896   3.256377
    19  H    4.619089   3.294255   4.748254   2.120044   2.526260
                   16         17         18         19
    16  C    0.000000
    17  Cl   1.810769   0.000000
    18  H    1.085983   2.367025   0.000000
    19  H    1.086067   2.363165   1.792712   0.000000
 Framework group  C1[X(C8H7Cl2NO)]
 Deg. of freedom    51
                         Standard orientation:                         
 ---------------------------------------------------------------------
 Center     Atomic      Atomic             Coordinates (Angstroms)
 Number     Number       Type             X           Y           Z
 ---------------------------------------------------------------------
      1          6           0       -0.820506    0.342543    0.023032
      2          6           0       -1.688852    0.623430    1.080428
      3          1           0       -1.353396    1.264911    1.886780
      4          6           0       -2.970115    0.081793    1.079818
      5          1           0       -3.645578    0.294696    1.900048
      6          6           0       -3.383078   -0.731664    0.024703
      7          1           0       -4.381851   -1.152693    0.026071
      8          6           0       -2.516567   -1.001125   -1.032728
      9          1           0       -2.838485   -1.631219   -1.853391
     10          6           0       -1.233678   -0.460115   -1.040665
     11          1           0       -0.549641   -0.656171   -1.856486
     12          7           0        0.498025    0.900061    0.028049
     13         17           0        0.643178    2.510566   -0.625315
     14          6           0        1.677596    0.307490    0.445771
     15          8           0        2.753035    0.852560    0.407037
     16          6           0        1.520542   -1.112330    0.992702
     17         17           0        1.761305   -2.331715   -0.324119
     18          1           0        0.549644   -1.313235    1.435820
     19          1           0        2.320600   -1.267792    1.710532
 ---------------------------------------------------------------------
 Rotational constants (GHZ):           0.8522408           0.5986473           0.4132181
 ======================================================================================================
                                       Pseudopotential Parameters
 ======================================================================================================
  Center     Atomic      Valence      Angular      Power
  Number     Number     Electrons     Momentum     of R      Exponent        Coefficient   SO-Coeffient
 ======================================================================================================
    1          6            6
                                      G and up 
                                                     0        0.0000010       -0.00007288    0.00000000
                                                     2        0.1200000        0.10466671    0.00000000
                                                     2        0.1400000       -0.65716157    0.00000000
                                                     2        0.1600000        1.18890794    0.00000000
                                                     2        0.2000000       -1.25772850    0.00000000
                                                     2        0.2600000        1.01188378    0.00000000
                                                     2        0.4000000       -1.09380874    0.00000000
                                                     2        0.5000000        0.96944888    0.00000000
                                                     2        1.0000000       -0.79256938    0.00000000
                                                     2        3.0000000        1.06443276    0.00000000
                                      S - G
                                                     0        0.0000010       -0.00635295    0.00000000
                                                     2        0.1200000        0.16918955    0.00000000
                                                     2        0.1600000       -0.38862576    0.00000000
                                                     2        0.2800000        0.25638263    0.00000000
                                                     2        0.5000000        0.29628419    0.00000000
                                                     2        0.9000000       -0.28791512    0.00000000
                                      P - G
                                                     0        0.0000010       -0.04756931    0.00000000
                                                     2        0.1200000        0.28430375    0.00000000
                                                     2        0.1600000       -0.69640032    0.00000000
                                                     2        0.2600000        1.13005668    0.00000000
                                                     2        0.4000000       -1.31433324    0.00000000
                                                     2        0.7000000        0.91526469    0.00000000
                                      D - G
                                                     0        0.0000010       -0.11496411    0.00000000
                                                     2        0.1200000        0.16620776    0.00000000
                                                     2        0.1800000       -0.30959819    0.00000000
                                                     2        0.3000000        0.16621458    0.00000000
                                                     2        0.6000000        0.27350556    0.00000000
                                      F - G
                                                     0        0.0000010        0.12037550    0.00000000
                                                     2        0.1200000       -0.48737077    0.00000000
                                                     2        0.1400000        0.58315350    0.00000000
                                                     2        0.3000000        0.00005188    0.00000000
                                                     2        0.5000000       -1.16063549    0.00000000
                                                     2        0.8000000        2.09053308    0.00000000
    2          6            6
                                      G and up 
                                                     0        0.0000010       -0.00007288    0.00000000
                                                     2        0.1200000        0.10466671    0.00000000
                                                     2        0.1400000       -0.65716157    0.00000000
                                                     2        0.1600000        1.18890794    0.00000000
                                                     2        0.2000000       -1.25772850    0.00000000
                                                     2        0.2600000        1.01188378    0.00000000
                                                     2        0.4000000       -1.09380874    0.00000000
                                                     2        0.5000000        0.96944888    0.00000000
                                                     2        1.0000000       -0.79256938    0.00000000
                                                     2        3.0000000        1.06443276    0.00000000
                                      S - G
                                                     0        0.0000010       -0.00635295    0.00000000
                                                     2        0.1200000        0.16918955    0.00000000
                                                     2        0.1600000       -0.38862576    0.00000000
                                                     2        0.2800000        0.25638263    0.00000000
                                                     2        0.5000000        0.29628419    0.00000000
                                                     2        0.9000000       -0.28791512    0.00000000
                                      P - G
                                                     0        0.0000010       -0.04756931    0.00000000
                                                     2        0.1200000        0.28430375    0.00000000
                                                     2        0.1600000       -0.69640032    0.00000000
                                                     2        0.2600000        1.13005668    0.00000000
                                                     2        0.4000000       -1.31433324    0.00000000
                                                     2        0.7000000        0.91526469    0.00000000
                                      D - G
                                                     0        0.0000010       -0.11496411    0.00000000
                                                     2        0.1200000        0.16620776    0.00000000
                                                     2        0.1800000       -0.30959819    0.00000000
                                                     2        0.3000000        0.16621458    0.00000000
                                                     2        0.6000000        0.27350556    0.00000000
                                      F - G
                                                     0        0.0000010        0.12037550    0.00000000
                                                     2        0.1200000       -0.48737077    0.00000000
                                                     2        0.1400000        0.58315350    0.00000000
                                                     2        0.3000000        0.00005188    0.00000000
                                                     2        0.5000000       -1.16063549    0.00000000
                                                     2        0.8000000        2.09053308    0.00000000
    3          1            1
                                      F and up 
                                                     0        0.0000010       -0.00007675    0.00000000
                                                     2        0.1200000        0.05352699    0.00000000
                                                     2        0.1400000       -0.25123645    0.00000000
                                                     2        0.1600000        0.32188106    0.00000000
                                                     2        0.2200000       -0.25206857    0.00000000
                                                     2        0.3000000        0.19290477    0.00000000
                                                     2        0.5000000       -0.10129770    0.00000000
                                                     2        0.9000000        0.00314995    0.00000000
                                                     2        1.5000000        0.18401192    0.00000000
                                      S - F
                                                     0        0.0000010        0.08065976    0.00000000
                                                     2        0.1200000       -0.09231673    0.00000000
                                                     2        0.1600000       -0.03278082    0.00000000
                                                     2        0.2800000        0.38423402    0.00000000
                                                     2        0.6000000       -1.09357590    0.00000000
                                                     2        1.1000000        1.53099489    0.00000000
                                                     2        3.0000000       -2.63300202    0.00000000
                                      P - F
                                                     0        0.0000010       -0.11638665    0.00000000
                                                     2        0.1200000        0.35468655    0.00000000
                                                     2        0.1600000       -0.59160923    0.00000000
                                                     2        0.3000000        0.49390547    0.00000000
                                                     2        0.6000000       -0.37949835    0.00000000
                                                     2        1.6000000        0.89304688    0.00000000
                                      D - F
                                                     0        0.0000010        0.05443663    0.00000000
                                                     2        0.1200000       -0.29679479    0.00000000
                                                     2        0.1400000        0.36849872    0.00000000
                                                     2        0.2400000        0.02793449    0.00000000
                                                     2        0.4000000       -0.46312857    0.00000000
                                                     2        0.7000000        0.97587598    0.00000000
                                                     2        1.5000000       -2.43431102    0.00000000
    4          6            6
                                      G and up 
                                                     0        0.0000010       -0.00007288    0.00000000
                                                     2        0.1200000        0.10466671    0.00000000
                                                     2        0.1400000       -0.65716157    0.00000000
                                                     2        0.1600000        1.18890794    0.00000000
                                                     2        0.2000000       -1.25772850    0.00000000
                                                     2        0.2600000        1.01188378    0.00000000
                                                     2        0.4000000       -1.09380874    0.00000000
                                                     2        0.5000000        0.96944888    0.00000000
                                                     2        1.0000000       -0.79256938    0.00000000
                                                     2        3.0000000        1.06443276    0.00000000
                                      S - G
                                                     0        0.0000010       -0.00635295    0.00000000
                                                     2        0.1200000        0.16918955    0.00000000
                                                     2        0.1600000       -0.38862576    0.00000000
                                                     2        0.2800000        0.25638263    0.00000000
                                                     2        0.5000000        0.29628419    0.00000000
                                                     2        0.9000000       -0.28791512    0.00000000
                                      P - G
                                                     0        0.0000010       -0.04756931    0.00000000
                                                     2        0.1200000        0.28430375    0.00000000
                                                     2        0.1600000       -0.69640032    0.00000000
                                                     2        0.2600000        1.13005668    0.00000000
                                                     2        0.4000000       -1.31433324    0.00000000
                                                     2        0.7000000        0.91526469    0.00000000
                                      D - G
                                                     0        0.0000010       -0.11496411    0.00000000
                                                     2        0.1200000        0.16620776    0.00000000
                                                     2        0.1800000       -0.30959819    0.00000000
                                                     2        0.3000000        0.16621458    0.00000000
                                                     2        0.6000000        0.27350556    0.00000000
                                      F - G
                                                     0        0.0000010        0.12037550    0.00000000
                                                     2        0.1200000       -0.48737077    0.00000000
                                                     2        0.1400000        0.58315350    0.00000000
                                                     2        0.3000000        0.00005188    0.00000000
                                                     2        0.5000000       -1.16063549    0.00000000
                                                     2        0.8000000        2.09053308    0.00000000
    5          1            1
                                      F and up 
                                                     0        0.0000010       -0.00007675    0.00000000
                                                     2        0.1200000        0.05352699    0.00000000
                                                     2        0.1400000       -0.25123645    0.00000000
                                                     2        0.1600000        0.32188106    0.00000000
                                                     2        0.2200000       -0.25206857    0.00000000
                                                     2        0.3000000        0.19290477    0.00000000
                                                     2        0.5000000       -0.10129770    0.00000000
                                                     2        0.9000000        0.00314995    0.00000000
                                                     2        1.5000000        0.18401192    0.00000000
                                      S - F
                                                     0        0.0000010        0.08065976    0.00000000
                                                     2        0.1200000       -0.09231673    0.00000000
                                                     2        0.1600000       -0.03278082    0.00000000
                                                     2        0.2800000        0.38423402    0.00000000
                                                     2        0.6000000       -1.09357590    0.00000000
                                                     2        1.1000000        1.53099489    0.00000000
                                                     2        3.0000000       -2.63300202    0.00000000
                                      P - F
                                                     0        0.0000010       -0.11638665    0.00000000
                                                     2        0.1200000        0.35468655    0.00000000
                                                     2        0.1600000       -0.59160923    0.00000000
                                                     2        0.3000000        0.49390547    0.00000000
                                                     2        0.6000000       -0.37949835    0.00000000
                                                     2        1.6000000        0.89304688    0.00000000
                                      D - F
                                                     0        0.0000010        0.05443663    0.00000000
                                                     2        0.1200000       -0.29679479    0.00000000
                                                     2        0.1400000        0.36849872    0.00000000
                                                     2        0.2400000        0.02793449    0.00000000
                                                     2        0.4000000       -0.46312857    0.00000000
                                                     2        0.7000000        0.97587598    0.00000000
                                                     2        1.5000000       -2.43431102    0.00000000
    6          6            6
                                      G and up 
                                                     0        0.0000010       -0.00007288    0.00000000
                                                     2        0.1200000        0.10466671    0.00000000
                                                     2        0.1400000       -0.65716157    0.00000000
                                                     2        0.1600000        1.18890794    0.00000000
                                                     2        0.2000000       -1.25772850    0.00000000
                                                     2        0.2600000        1.01188378    0.00000000
                                                     2        0.4000000       -1.09380874    0.00000000
                                                     2        0.5000000        0.96944888    0.00000000
                                                     2        1.0000000       -0.79256938    0.00000000
                                                     2        3.0000000        1.06443276    0.00000000
                                      S - G
                                                     0        0.0000010       -0.00635295    0.00000000
                                                     2        0.1200000        0.16918955    0.00000000
                                                     2        0.1600000       -0.38862576    0.00000000
                                                     2        0.2800000        0.25638263    0.00000000
                                                     2        0.5000000        0.29628419    0.00000000
                                                     2        0.9000000       -0.28791512    0.00000000
                                      P - G
                                                     0        0.0000010       -0.04756931    0.00000000
                                                     2        0.1200000        0.28430375    0.00000000
                                                     2        0.1600000       -0.69640032    0.00000000
                                                     2        0.2600000        1.13005668    0.00000000
                                                     2        0.4000000       -1.31433324    0.00000000
                                                     2        0.7000000        0.91526469    0.00000000
                                      D - G
                                                     0        0.0000010       -0.11496411    0.00000000
                                                     2        0.1200000        0.16620776    0.00000000
                                                     2        0.1800000       -0.30959819    0.00000000
                                                     2        0.3000000        0.16621458    0.00000000
                                                     2        0.6000000        0.27350556    0.00000000
                                      F - G
                                                     0        0.0000010        0.12037550    0.00000000
                                                     2        0.1200000       -0.48737077    0.00000000
                                                     2        0.1400000        0.58315350    0.00000000
                                                     2        0.3000000        0.00005188    0.00000000
                                                     2        0.5000000       -1.16063549    0.00000000
                                                     2        0.8000000        2.09053308    0.00000000
    7          1            1
                                      F and up 
                                                     0        0.0000010       -0.00007675    0.00000000
                                                     2        0.1200000        0.05352699    0.00000000
                                                     2        0.1400000       -0.25123645    0.00000000
                                                     2        0.1600000        0.32188106    0.00000000
                                                     2        0.2200000       -0.25206857    0.00000000
                                                     2        0.3000000        0.19290477    0.00000000
                                                     2        0.5000000       -0.10129770    0.00000000
                                                     2        0.9000000        0.00314995    0.00000000
                                                     2        1.5000000        0.18401192    0.00000000
                                      S - F
                                                     0        0.0000010        0.08065976    0.00000000
                                                     2        0.1200000       -0.09231673    0.00000000
                                                     2        0.1600000       -0.03278082    0.00000000
                                                     2        0.2800000        0.38423402    0.00000000
                                                     2        0.6000000       -1.09357590    0.00000000
                                                     2        1.1000000        1.53099489    0.00000000
                                                     2        3.0000000       -2.63300202    0.00000000
                                      P - F
                                                     0        0.0000010       -0.11638665    0.00000000
                                                     2        0.1200000        0.35468655    0.00000000
                                                     2        0.1600000       -0.59160923    0.00000000
                                                     2        0.3000000        0.49390547    0.00000000
                                                     2        0.6000000       -0.37949835    0.00000000
                                                     2        1.6000000        0.89304688    0.00000000
                                      D - F
                                                     0        0.0000010        0.05443663    0.00000000
                                                     2        0.1200000       -0.29679479    0.00000000
                                                     2        0.1400000        0.36849872    0.00000000
                                                     2        0.2400000        0.02793449    0.00000000
                                                     2        0.4000000       -0.46312857    0.00000000
                                                     2        0.7000000        0.97587598    0.00000000
                                                     2        1.5000000       -2.43431102    0.00000000
    8          6            6
                                      G and up 
                                                     0        0.0000010       -0.00007288    0.00000000
                                                     2        0.1200000        0.10466671    0.00000000
                                                     2        0.1400000       -0.65716157    0.00000000
                                                     2        0.1600000        1.18890794    0.00000000
                                                     2        0.2000000       -1.25772850    0.00000000
                                                     2        0.2600000        1.01188378    0.00000000
                                                     2        0.4000000       -1.09380874    0.00000000
                                                     2        0.5000000        0.96944888    0.00000000
                                                     2        1.0000000       -0.79256938    0.00000000
                                                     2        3.0000000        1.06443276    0.00000000
                                      S - G
                                                     0        0.0000010       -0.00635295    0.00000000
                                                     2        0.1200000        0.16918955    0.00000000
                                                     2        0.1600000       -0.38862576    0.00000000
                                                     2        0.2800000        0.25638263    0.00000000
                                                     2        0.5000000        0.29628419    0.00000000
                                                     2        0.9000000       -0.28791512    0.00000000
                                      P - G
                                                     0        0.0000010       -0.04756931    0.00000000
                                                     2        0.1200000        0.28430375    0.00000000
                                                     2        0.1600000       -0.69640032    0.00000000
                                                     2        0.2600000        1.13005668    0.00000000
                                                     2        0.4000000       -1.31433324    0.00000000
                                                     2        0.7000000        0.91526469    0.00000000
                                      D - G
                                                     0        0.0000010       -0.11496411    0.00000000
                                                     2        0.1200000        0.16620776    0.00000000
                                                     2        0.1800000       -0.30959819    0.00000000
                                                     2        0.3000000        0.16621458    0.00000000
                                                     2        0.6000000        0.27350556    0.00000000
                                      F - G
                                                     0        0.0000010        0.12037550    0.00000000
                                                     2        0.1200000       -0.48737077    0.00000000
                                                     2        0.1400000        0.58315350    0.00000000
                                                     2        0.3000000        0.00005188    0.00000000
                                                     2        0.5000000       -1.16063549    0.00000000
                                                     2        0.8000000        2.09053308    0.00000000
    9          1            1
                                      F and up 
                                                     0        0.0000010       -0.00007675    0.00000000
                                                     2        0.1200000        0.05352699    0.00000000
                                                     2        0.1400000       -0.25123645    0.00000000
                                                     2        0.1600000        0.32188106    0.00000000
                                                     2        0.2200000       -0.25206857    0.00000000
                                                     2        0.3000000        0.19290477    0.00000000
                                                     2        0.5000000       -0.10129770    0.00000000
                                                     2        0.9000000        0.00314995    0.00000000
                                                     2        1.5000000        0.18401192    0.00000000
                                      S - F
                                                     0        0.0000010        0.08065976    0.00000000
                                                     2        0.1200000       -0.09231673    0.00000000
                                                     2        0.1600000       -0.03278082    0.00000000
                                                     2        0.2800000        0.38423402    0.00000000
                                                     2        0.6000000       -1.09357590    0.00000000
                                                     2        1.1000000        1.53099489    0.00000000
                                                     2        3.0000000       -2.63300202    0.00000000
                                      P - F
                                                     0        0.0000010       -0.11638665    0.00000000
                                                     2        0.1200000        0.35468655    0.00000000
                                                     2        0.1600000       -0.59160923    0.00000000
                                                     2        0.3000000        0.49390547    0.00000000
                                                     2        0.6000000       -0.37949835    0.00000000
                                                     2        1.6000000        0.89304688    0.00000000
                                      D - F
                                                     0        0.0000010        0.05443663    0.00000000
                                                     2        0.1200000       -0.29679479    0.00000000
                                                     2        0.1400000        0.36849872    0.00000000
                                                     2        0.2400000        0.02793449    0.00000000
                                                     2        0.4000000       -0.46312857    0.00000000
                                                     2        0.7000000        0.97587598    0.00000000
                                                     2        1.5000000       -2.43431102    0.00000000
   10          6            6
                                      G and up 
                                                     0        0.0000010       -0.00007288    0.00000000
                                                     2        0.1200000        0.10466671    0.00000000
                                                     2        0.1400000       -0.65716157    0.00000000
                                                     2        0.1600000        1.18890794    0.00000000
                                                     2        0.2000000       -1.25772850    0.00000000
                                                     2        0.2600000        1.01188378    0.00000000
                                                     2        0.4000000       -1.09380874    0.00000000
                                                     2        0.5000000        0.96944888    0.00000000
                                                     2        1.0000000       -0.79256938    0.00000000
                                                     2        3.0000000        1.06443276    0.00000000
                                      S - G
                                                     0        0.0000010       -0.00635295    0.00000000
                                                     2        0.1200000        0.16918955    0.00000000
                                                     2        0.1600000       -0.38862576    0.00000000
                                                     2        0.2800000        0.25638263    0.00000000
                                                     2        0.5000000        0.29628419    0.00000000
                                                     2        0.9000000       -0.28791512    0.00000000
                                      P - G
                                                     0        0.0000010       -0.04756931    0.00000000
                                                     2        0.1200000        0.28430375    0.00000000
                                                     2        0.1600000       -0.69640032    0.00000000
                                                     2        0.2600000        1.13005668    0.00000000
                                                     2        0.4000000       -1.31433324    0.00000000
                                                     2        0.7000000        0.91526469    0.00000000
                                      D - G
                                                     0        0.0000010       -0.11496411    0.00000000
                                                     2        0.1200000        0.16620776    0.00000000
                                                     2        0.1800000       -0.30959819    0.00000000
                                                     2        0.3000000        0.16621458    0.00000000
                                                     2        0.6000000        0.27350556    0.00000000
                                      F - G
                                                     0        0.0000010        0.12037550    0.00000000
                                                     2        0.1200000       -0.48737077    0.00000000
                                                     2        0.1400000        0.58315350    0.00000000
                                                     2        0.3000000        0.00005188    0.00000000
                                                     2        0.5000000       -1.16063549    0.00000000
                                                     2        0.8000000        2.09053308    0.00000000
   11          1            1
                                      F and up 
                                                     0        0.0000010       -0.00007675    0.00000000
                                                     2        0.1200000        0.05352699    0.00000000
                                                     2        0.1400000       -0.25123645    0.00000000
                                                     2        0.1600000        0.32188106    0.00000000
                                                     2        0.2200000       -0.25206857    0.00000000
                                                     2        0.3000000        0.19290477    0.00000000
                                                     2        0.5000000       -0.10129770    0.00000000
                                                     2        0.9000000        0.00314995    0.00000000
                                                     2        1.5000000        0.18401192    0.00000000
                                      S - F
                                                     0        0.0000010        0.08065976    0.00000000
                                                     2        0.1200000       -0.09231673    0.00000000
                                                     2        0.1600000       -0.03278082    0.00000000
                                                     2        0.2800000        0.38423402    0.00000000
                                                     2        0.6000000       -1.09357590    0.00000000
                                                     2        1.1000000        1.53099489    0.00000000
                                                     2        3.0000000       -2.63300202    0.00000000
                                      P - F
                                                     0        0.0000010       -0.11638665    0.00000000
                                                     2        0.1200000        0.35468655    0.00000000
                                                     2        0.1600000       -0.59160923    0.00000000
                                                     2        0.3000000        0.49390547    0.00000000
                                                     2        0.6000000       -0.37949835    0.00000000
                                                     2        1.6000000        0.89304688    0.00000000
                                      D - F
                                                     0        0.0000010        0.05443663    0.00000000
                                                     2        0.1200000       -0.29679479    0.00000000
                                                     2        0.1400000        0.36849872    0.00000000
                                                     2        0.2400000        0.02793449    0.00000000
                                                     2        0.4000000       -0.46312857    0.00000000
                                                     2        0.7000000        0.97587598    0.00000000
                                                     2        1.5000000       -2.43431102    0.00000000
   12          7            7
                                      G and up 
                                                     0        0.0000010       -0.00039818    0.00000000
                                                     2        0.1200000       -0.37616123    0.00000000
                                                     2        0.1400000        2.13837358    0.00000000
                                                     2        0.1600000       -3.36562035    0.00000000
                                                     2        0.2000000        2.53463289    0.00000000
                                                     2        0.3000000       -1.98118833    0.00000000
                                                     2        0.5000000        4.06642919    0.00000000
                                                     2        0.7000000       -6.15327959    0.00000000
                                                     2        1.2000000       10.22492851    0.00000000
                                                     2        2.0000000      -14.94707511    0.00000000
                                      S - G
                                                     0        0.0000010        0.02721443    0.00000000
                                                     2        0.1200000       -0.60186009    0.00000000
                                                     2        0.1600000        1.10088134    0.00000000
                                                     2        0.2600000       -0.59857981    0.00000000
                                                     2        0.6000000        0.21288222    0.00000000
                                                     2        3.0000000        5.09059205    0.00000000
                                      P - G
                                                     0        0.0000010        0.40558062    0.00000000
                                                     2        0.1200000        0.81809854    0.00000000
                                                     2        0.1600000       -2.44952728    0.00000000
                                                     2        0.2800000        4.16638749    0.00000000
                                                     2        0.5000000       -6.02944147    0.00000000
                                                     2        1.1000000        5.78262914    0.00000000
                                      D - G
                                                     0        0.0000010       -0.62770267    0.00000000
                                                     2        0.1600000        0.91438653    0.00000000
                                                     2        0.2600000       -2.00568466    0.00000000
                                                     2        0.5000000        3.30798839    0.00000000
                                                     2        1.1000000       -3.91526108    0.00000000
                                      F - G
                                                     0        0.0000010        0.29726344    0.00000000
                                                     2        0.1200000       -0.41591527    0.00000000
                                                     2        0.1600000        0.51444439    0.00000000
                                                     2        0.4000000       -0.69401726    0.00000000
                                                     2        0.7000000        0.51478123    0.00000000
   13         17           17
                                      G and up 
                                                     0        0.0000010        0.00010715    0.00000000
                                                     2        0.1200000       -0.00076261    0.00000000
                                                     2        0.1600000        0.04395058    0.00000000
                                                     2        0.2000000       -0.10504698    0.00000000
                                                     2        0.2800000        0.13950130    0.00000000
                                                     2        0.4000000       -0.12623641    0.00000000
                                                     2        0.7000000       -0.42143984    0.00000000
                                      S - G
                                                     0        0.0000010       -0.00139392    0.00000000
                                                     2        0.1200000       -0.01887585    0.00000000
                                                     2        0.4000000        0.46511854    0.00000000
                                      P - G
                                                     0        0.0000010        0.03235088    0.00000000
                                                     2        0.1200000        0.42220750    0.00000000
                                                     2        0.1600000       -1.02263661    0.00000000
                                                     2        0.2600000        0.81322107    0.00000000
                                      D - G
                                                     0        0.0000010       -0.08073759    0.00000000
                                                     2        0.1200000       -0.02872770    0.00000000
                                                     2        0.2000000        0.11554000    0.00000000
                                      F - G
                                                     0        0.0000010        0.04269408    0.00000000
                                                     2        0.1200000       -0.09796467    0.00000000
[...]
                                                     2        0.8000000        2.09053308    0.00000000
   17         17           17
                                      G and up 
                                                     0        0.0000010        0.00010715    0.00000000
                                                     2        0.1200000       -0.00076261    0.00000000
                                                     2        0.1600000        0.04395058    0.00000000
                                                     2        0.2000000       -0.10504698    0.00000000
                                                     2        0.2800000        0.13950130    0.00000000
                                                     2        0.4000000       -0.12623641    0.00000000
                                                     2        0.7000000       -0.42143984    0.00000000
                                      S - G
                                                     0        0.0000010       -0.00139392    0.00000000
                                                     2        0.1200000       -0.01887585    0.00000000
                                                     2        0.4000000        0.46511854    0.00000000
                                      P - G
                                                     0        0.0000010        0.03235088    0.00000000
                                                     2        0.1200000        0.42220750    0.00000000
                                                     2        0.1600000       -1.02263661    0.00000000
                                                     2        0.2600000        0.81322107    0.00000000
                                      D - G
                                                     0        0.0000010       -0.08073759    0.00000000
                                                     2        0.1200000       -0.02872770    0.00000000
                                                     2        0.2000000        0.11554000    0.00000000
                                      F - G
                                                     0        0.0000010        0.04269408    0.00000000
                                                     2        0.1200000       -0.09796467    0.00000000
                                                     2        0.2000000        0.26850099    0.00000000
   18          1            1
                                      F and up 
                                                     0        0.0000010       -0.00007675    0.00000000
                                                     2        0.1200000        0.05352699    0.00000000
                                                     2        0.1400000       -0.25123645    0.00000000
                                                     2        0.1600000        0.32188106    0.00000000
                                                     2        0.2200000       -0.25206857    0.00000000
                                                     2        0.3000000        0.19290477    0.00000000
                                                     2        0.5000000       -0.10129770    0.00000000
                                                     2        0.9000000        0.00314995    0.00000000
                                                     2        1.5000000        0.18401192    0.00000000
                                      S - F
                                                     0        0.0000010        0.08065976    0.00000000
                                                     2        0.1200000       -0.09231673    0.00000000
                                                     2        0.1600000       -0.03278082    0.00000000
                                                     2        0.2800000        0.38423402    0.00000000
                                                     2        0.6000000       -1.09357590    0.00000000
                                                     2        1.1000000        1.53099489    0.00000000
                                                     2        3.0000000       -2.63300202    0.00000000
                                      P - F
                                                     0        0.0000010       -0.11638665    0.00000000
                                                     2        0.1200000        0.35468655    0.00000000
                                                     2        0.1600000       -0.59160923    0.00000000
                                                     2        0.3000000        0.49390547    0.00000000
                                                     2        0.6000000       -0.37949835    0.00000000
                                                     2        1.6000000        0.89304688    0.00000000
                                      D - F
                                                     0        0.0000010        0.05443663    0.00000000
                                                     2        0.1200000       -0.29679479    0.00000000
                                                     2        0.1400000        0.36849872    0.00000000
                                                     2        0.2400000        0.02793449    0.00000000
                                                     2        0.4000000       -0.46312857    0.00000000
                                                     2        0.7000000        0.97587598    0.00000000
                                                     2        1.5000000       -2.43431102    0.00000000
   19          1            1
                                      F and up 
                                                     0        0.0000010       -0.00007675    0.00000000
                                                     2        0.1200000        0.05352699    0.00000000
                                                     2        0.1400000       -0.25123645    0.00000000
                                                     2        0.1600000        0.32188106    0.00000000
                                                     2        0.2200000       -0.25206857    0.00000000
                                                     2        0.3000000        0.19290477    0.00000000
                                                     2        0.5000000       -0.10129770    0.00000000
                                                     2        0.9000000        0.00314995    0.00000000
                                                     2        1.5000000        0.18401192    0.00000000
                                      S - F
                                                     0        0.0000010        0.08065976    0.00000000
                                                     2        0.1200000       -0.09231673    0.00000000
                                                     2        0.1600000       -0.03278082    0.00000000
                                                     2        0.2800000        0.38423402    0.00000000
                                                     2        0.6000000       -1.09357590    0.00000000
                                                     2        1.1000000        1.53099489    0.00000000
                                                     2        3.0000000       -2.63300202    0.00000000
                                      P - F
                                                     0        0.0000010       -0.11638665    0.00000000
                                                     2        0.1200000        0.35468655    0.00000000
                                                     2        0.1600000       -0.59160923    0.00000000
                                                     2        0.3000000        0.49390547    0.00000000
                                                     2        0.6000000       -0.37949835    0.00000000
                                                     2        1.6000000        0.89304688    0.00000000
                                      D - F
                                                     0        0.0000010        0.05443663    0.00000000
                                                     2        0.1200000       -0.29679479    0.00000000
                                                     2        0.1400000        0.36849872    0.00000000
                                                     2        0.2400000        0.02793449    0.00000000
                                                     2        0.4000000       -0.46312857    0.00000000
                                                     2        0.7000000        0.97587598    0.00000000
                                                     2        1.5000000       -2.43431102    0.00000000
 ======================================================================================================
   347 basis functions,   669 primitive gaussians,   371 cartesian basis functions
    52 alpha electrons       52 beta electrons
       nuclear repulsion energy       860.9084016009 Hartrees.
 NAtoms=   19 NActive=   19 NUniq=   19 SFac= 1.00D+00 NAtFMM=   60 NAOKFM=F Big=F
   1 Symmetry operations used in ECPInt.
 ECPInt:  NShTT=   10878 NPrTT=   67510 LenC2=   10747 LenP2D=   44154.
 LDataN:  DoStor=T MaxTD1= 6 Len=  172
 Initial guess from the checkpoint file:  "BDE49_nonexpt_946_mol1.chk"
 B after Tr=    -0.000000   -0.000000   -0.000000
         Rot=    1.000000   -0.000000   -0.000000    0.000000 Ang=   0.00 deg.
 >>>>>>>>>> Convergence criterion not met.
 SCF Done:  E(RHF) =  -1355.93951084     A.U. after    2 cycles
            NFock=  1  Conv=0.47D-01     -V/T= 2.0022

 **********************************************************************

            Population analysis using the SCF Density.

 **********************************************************************

 Orbital symmetries:
       Occupied  (A) (A) (A) (A) (A) (A) (A) (A) (A) (A) (A) (A)
                 (A) (A) (A) (A) (A) (A) (A) (A) (A) (A) (A) (A)
                 (A) (A) (A) (A) (A) (A) (A) (A) (A) (A) (A) (A)
                 (A) (A) (A) (A) (A) (A) (A) (A) (A) (A) (A) (A)
                 (A) (A) (A) (A)
       Virtual   (A) (A) (A) (A) (A) (A) (A) (A) (A) (A) (A) (A)
                 (A) (A) (A) (A) (A) (A) (A) (A) (A) (A) (A) (A)
                 (A) (A) (A) (A) (A) (A) (A) (A) (A) (A) (A) (A)
                 (A) (A) (A) (A) (A) (A) (A) (A) (A) (A) (A) (A)
                 (A) (A) (A) (A) (A) (A) (A) (A) (A) (A) (A) (A)
                 (A) (A) (A) (A) (A) (A) (A) (A) (A) (A) (A) (A)
                 (A) (A) (A) (A) (A) (A) (A) (A) (A) (A) (A) (A)
                 (A) (A) (A) (A) (A) (A) (A) (A) (A) (A) (A) (A)
                 (A) (A) (A) (A) (A) (A) (A) (A) (A) (A) (A) (A)
                 (A) (A) (A) (A) (A) (A) (A) (A) (A) (A) (A) (A)
                 (A) (A) (A) (A) (A) (A) (A) (A) (A) (A) (A) (A)
                 (A) (A) (A) (A) (A) (A) (A) (A) (A) (A) (A) (A)
                 (A) (A) (A) (A) (A) (A) (A) (A) (A) (A) (A) (A)
                 (A) (A) (A) (A) (A) (A) (A) (A) (A) (A) (A) (A)
                 (A) (A) (A) (A) (A) (A) (A) (A) (A) (A) (A) (A)
                 (A) (A) (A) (A) (A) (A) (A) (A) (A) (A) (A) (A)
                 (A) (A) (A) (A) (A) (A) (A) (A) (A) (A) (A) (A)
                 (A) (A) (A) (A) (A) (A) (A) (A) (A) (A) (A) (A)
                 (A) (A) (A) (A) (A) (A) (A) (A) (A) (A) (A) (A)
                 (A) (A) (A) (A) (A) (A) (A) (A) (A) (A) (A) (A)
                 (A) (A) (A) (A) (A) (A) (A) (A) (A) (A) (A) (A)
                 (A) (A) (A) (A) (A) (A) (A) (A) (A) (A) (A) (A)
                 (A) (A) (A) (A) (A) (A) (A) (A) (A) (A) (A) (A)
                 (A) (A) (A) (A) (A) (A) (A) (A) (A) (A) (A) (A)
                 (A) (A) (A) (A) (A) (A) (A)
 The electronic state is 1-A.
 Alpha  occ. eigenvalues -- -105.61057-105.57645 -20.53763 -15.59759 -11.39295
 Alpha  occ. eigenvalues --  -11.33039 -11.30916 -11.27225 -11.27043 -11.27024
 Alpha  occ. eigenvalues --  -11.26818 -11.26695 -10.65449 -10.62399  -7.82431
 Alpha  occ. eigenvalues --   -7.81930  -7.81900  -7.79350  -7.78960  -7.78946
 Alpha  occ. eigenvalues --   -1.49088  -1.29740  -1.17566  -1.12594  -1.06146
 Alpha  occ. eigenvalues --   -1.04672  -1.03313  -0.94836  -0.89424  -0.86947
 Alpha  occ. eigenvalues --   -0.79905  -0.74189  -0.71832  -0.69934  -0.69623
 Alpha  occ. eigenvalues --   -0.65421  -0.63543  -0.63316  -0.62627  -0.61460
 Alpha  occ. eigenvalues --   -0.57369  -0.55436  -0.54028  -0.53391  -0.50728
 Alpha  occ. eigenvalues --   -0.49125  -0.47928  -0.46348  -0.44157  -0.42307
 Alpha  occ. eigenvalues --   -0.37289  -0.37166
 Alpha virt. eigenvalues --    0.02690   0.03067   0.03809   0.04274   0.05319
 Alpha virt. eigenvalues --    0.05640   0.06042   0.06822   0.07586   0.08543
 Alpha virt. eigenvalues --    0.08716   0.10498   0.10871   0.11489   0.12353
 Alpha virt. eigenvalues --    0.12560   0.13437   0.13522   0.13751   0.13829
 Alpha virt. eigenvalues --    0.14348   0.14619   0.15175   0.15601   0.16079
 Alpha virt. eigenvalues --    0.16148   0.16630   0.16965   0.17767   0.18166
 Alpha virt. eigenvalues --    0.18301   0.18641   0.18996   0.19469   0.20051
 Alpha virt. eigenvalues --    0.20675   0.21258   0.22069   0.22400   0.23283
 Alpha virt. eigenvalues --    0.24237   0.24591   0.25710   0.25987   0.27686
 Alpha virt. eigenvalues --    0.29008   0.29692   0.29961   0.30206   0.30911
 Alpha virt. eigenvalues --    0.31221   0.32485   0.32608   0.33054   0.34023
 Alpha virt. eigenvalues --    0.34499   0.35132   0.35662   0.35925   0.36708
 Alpha virt. eigenvalues --    0.36888   0.37505   0.37550   0.39070   0.39568
 Alpha virt. eigenvalues --    0.39738   0.40520   0.40909   0.41221   0.41869
 Alpha virt. eigenvalues --    0.42610   0.43570   0.43796   0.44339   0.44788
 Alpha virt. eigenvalues --    0.45316   0.45709   0.46494   0.47556   0.48552
 Alpha virt. eigenvalues --    0.50016   0.50321   0.51138   0.52594   0.53513
 Alpha virt. eigenvalues --    0.54105   0.54622   0.55472   0.55482   0.56551
 Alpha virt. eigenvalues --    0.57249   0.57717   0.58013   0.58886   0.60220
 Alpha virt. eigenvalues --    0.61122   0.61695   0.62169   0.62693   0.63458
 Alpha virt. eigenvalues --    0.64555   0.65387   0.65861   0.66333   0.66971
 Alpha virt. eigenvalues --    0.67485   0.68027   0.68408   0.69804   0.70095
 Alpha virt. eigenvalues --    0.70954   0.71680   0.73318   0.74080   0.75005
 Alpha virt. eigenvalues --    0.75644   0.76019   0.76846   0.77248   0.77813
 Alpha virt. eigenvalues --    0.78559   0.79856   0.80371   0.81744   0.82173
 Alpha virt. eigenvalues --    0.83465   0.84277   0.84745   0.85862   0.86322
 Alpha virt. eigenvalues --    0.87387   0.88929   0.90910   0.91512   0.92076
 Alpha virt. eigenvalues --    0.92703   0.92763   0.93916   0.94541   0.94912
 Alpha virt. eigenvalues --    0.95978   0.96821   0.98771   0.99090   1.00309
 Alpha virt. eigenvalues --    1.01370   1.01858   1.02841   1.03885   1.04545
 Alpha virt. eigenvalues --    1.04720   1.06311   1.08760   1.09294   1.10201
 Alpha virt. eigenvalues --    1.11895   1.12396   1.13155   1.14192   1.15446
 Alpha virt. eigenvalues --    1.17123   1.18818   1.19484   1.21058   1.22592
 Alpha virt. eigenvalues --    1.25952   1.26219   1.27452   1.28912   1.29868
 Alpha virt. eigenvalues --    1.32889   1.34425   1.34924   1.36366   1.36757
 Alpha virt. eigenvalues --    1.38643   1.38967   1.40768   1.41662   1.42471
 Alpha virt. eigenvalues --    1.42653   1.43536   1.44680   1.45297   1.47718
 Alpha virt. eigenvalues --    1.49485   1.50642   1.52314   1.52553   1.53907
 Alpha virt. eigenvalues --    1.55513   1.57829   1.58313   1.58383   1.60846
 Alpha virt. eigenvalues --    1.61882   1.62848   1.64014   1.64485   1.64790
 Alpha virt. eigenvalues --    1.66341   1.66788   1.68071   1.70407   1.72573
 Alpha virt. eigenvalues --    1.72656   1.73567   1.75130   1.75665   1.79524
 Alpha virt. eigenvalues --    1.80188   1.81793   1.82407   1.84655   1.86550
 Alpha virt. eigenvalues --    1.87418   1.90439   1.90798   1.93016   1.93164
 Alpha virt. eigenvalues --    1.94630   1.96064   1.96874   1.97949   1.99363
 Alpha virt. eigenvalues --    2.00157   2.03311   2.04508   2.05356   2.08251
 Alpha virt. eigenvalues --    2.12632   2.12927   2.13763   2.13829   2.14584
 Alpha virt. eigenvalues --    2.16596   2.18746   2.20710   2.21651   2.22590
 Alpha virt. eigenvalues --    2.23464   2.24002   2.24536   2.27334   2.28721
 Alpha virt. eigenvalues --    2.31296   2.31455   2.32709   2.34849   2.35138
 Alpha virt. eigenvalues --    2.37040   2.37458   2.38218   2.40740   2.42273
 Alpha virt. eigenvalues --    2.44571   2.45812   2.47423   2.48433   2.52398
 Alpha virt. eigenvalues --    2.53525   2.59460   2.61249   2.62142   2.65129
 Alpha virt. eigenvalues --    2.68106   2.76594   2.77784   2.80347   2.82815
 Alpha virt. eigenvalues --    2.84254   2.85408   2.86284   2.98868   3.00188
 Alpha virt. eigenvalues --    3.01327   3.02843   3.12651   3.14036   3.16922
 Alpha virt. eigenvalues --    3.20379   3.22204   3.32102   3.34320   3.42335
 Alpha virt. eigenvalues --    3.60094   3.65732   3.72642   3.89483   3.91445
 Alpha virt. eigenvalues --    3.93162   3.93559   4.07263   4.27781   4.91565
          Condensed to atoms (all electrons):
 Mulliken charges:
               1
     1  C   -2.313847
     2  C    0.556486
     3  H   -0.303940
     4  C    0.417770
     5  H   -0.224297
     6  C    0.257149
     7  H   -0.212511
     8  C    0.392045
     9  H   -0.232594
    10  C    0.681485
    11  H   -0.291931
    12  N    1.566498
    13  Cl   0.175035
    14  C    0.787589
    15  O   -1.218326
    16  C   -0.489211
    17  Cl   0.001178
    18  H    0.253612
    19  H    0.197810
 Sum of Mulliken charges =  -0.00000
 Mulliken charges with hydrogens summed into heavy atoms:
               1
     1  C   -2.313847
     2  C    0.252546
     4  C    0.193473
     6  C    0.044638
     8  C    0.159452
    10  C    0.389554
    12  N    1.566498
    13  Cl   0.175035
    14  C    0.787589
    15  O   -1.218326
    16  C   -0.037789
    17  Cl   0.001178
 Electronic spatial extent (au):  <R**2>=           2671.3279
 Charge=              0.0000 electrons
 Dipole moment (field-independent basis, Debye):
    X=             -4.5561    Y=             -1.3704    Z=              1.4909  Tot=              4.9859

 Test job not archived.
 1\1\GINC-SE016\SP\RHF\Aug-CC-pVDZ\C8H7Cl2N1O1\OHZDE\09-Apr-2025\0\\#t 
 hf aug-cc-pvdz iop(5/13=1,5/36=2,99/5=2) pseudo=read geom=check guess=
 (read,tcheck) scf=(maxcycle=1)\\title\\0,1\C,0,-0.820506,0.342543,0.02
 3032\C,0,-1.688852,0.62343,1.080428\H,0,-1.353396,1.264911,1.88678\C,0
 ,-2.970115,0.081793,1.079818\H,0,-3.645578,0.294696,1.900048\C,0,-3.38
 3078,-0.731664,0.024703\H,0,-4.381851,-1.152693,0.026071\C,0,-2.516567
 ,-1.001125,-1.032728\H,0,-2.838485,-1.631219,-1.853391\C,0,-1.233678,-
 0.460115,-1.040665\H,0,-0.549641,-0.656171,-1.856486\N,0,0.498025,0.90
 0061,0.028049\Cl,0,0.643178,2.510566,-0.625315\C,0,1.677596,0.30749,0.
 445771\O,0,2.753035,0.85256,0.407037\C,0,1.520542,-1.11233,0.992702\Cl
 ,0,1.761305,-2.331715,-0.324119\H,0,0.549644,-1.313235,1.43582\H,0,2.3
 206,-1.267792,1.710532\\Version=ES64L-G16RevC.01\State=1-A\HF=-1355.93
 95108\RMSD=4.742e-02\Dipole=-1.7925082,-0.5391422,0.5865641\Quadrupole
 =-2.0831924,-2.9342505,5.0174429,-0.0976046,0.1384441,0.761767\PG=C01 
 [X(C8H7Cl2N1O1)]\\@


 BULLDOZER: SOMEONE WHO SLEEPS THROUGH SPEECHES.
 Job cpu time:       0 days  0 hours  3 minutes 29.2 seconds.
 Elapsed time:       0 days  0 hours  0 minutes 14.9 seconds.
 File lengths (MBytes):  RWF=     22 Int=      0 D2E=      0 Chk=     17 Scr=      1
 Normal termination of Gaussian 16 at Wed Apr  9 00:54:47 2025.
