 Entering Gaussian System, Link 0=g16
 Input=BDE49_expt_1398_mol1.gjf
 Output=BDE49_expt_1398_mol1.log
 Initial command:
 /arc/software/Gaussian/g16.c01/l1.exe "/tmp/slurm/4841469/Gau-193294.inp" -scrdir="/tmp/slurm/4841469/"
 Entering Link 1 = /arc/software/Gaussian/g16.c01/l1.exe PID=    193296.
  
 Copyright (c) 1988-2019, Gaussian, Inc.  All Rights Reserved.
  
 This is part of the Gaussian(R) 16 program.  It is based on
 the Gaussian(R) 09 system (copyright 2009, Gaussian, Inc.),
 the Gaussian(R) 03 system (copyright 2003, Gaussian, Inc.),
 the Gaussian(R) 98 system (copyright 1998, Gaussian, Inc.),
 the Gaussian(R) 94 system (copyright 1995, Gaussian, Inc.),
 the Gaussian 92(TM) system (copyright 1992, Gaussian, Inc.),
 the Gaussian 90(TM) system (copyright 1990, Gaussian, Inc.),
 the Gaussian 88(TM) system (copyright 1988, Gaussian, Inc.),
 the Gaussian 86(TM) system (copyright 1986, Carnegie Mellon
 University), and the Gaussian 82(TM) system (copyright 1983,
 Carnegie Mellon University). Gaussian is a federally registered
 trademark of Gaussian, Inc.
  
 This software contains proprietary and confidential information,
 including trade secrets, belonging to Gaussian, Inc.
  
 This software is provided under written license and may be
 used, copied, transmitted, or stored only in accord with that
 written license.
  
 The following legend is applicable only to US Government
 contracts under FAR:
  
                    RESTRICTED RIGHTS LEGEND
  
 Use, reproduction and disclosure by the US Government is
 subject to restrictions as set forth in subparagraphs (a)
 and (c) of the Commercial Computer Software - Restricted
 Rights clause in FAR 52.227-19.
  
 Gaussian, Inc.
 340 Quinnipiac St., Bldg. 40, Wallingford CT 06492
  
  
 ---------------------------------------------------------------
 Warning -- This program may not be used in any manner that
 competes with the business of Gaussian, Inc. or will provide
 assistance to any competitor of Gaussian, Inc.  The licensee
 of this program is prohibited from giving any competitor of
 Gaussian, Inc. access to this program.  By using this program,
 the user acknowledges that Gaussian, Inc. is engaged in the
 business of creating and licensing software in the field of
 computational chemistry and represents and warrants to the
 licensee that it is not a competitor of Gaussian, Inc. and that
 it will not use this program in any manner prohibited above.
 ---------------------------------------------------------------
  

 Cite this work as:
 Gaussian 16, Revision C.01,
 M. J. Frisch, G. W. Trucks, H. B. Schlegel, G. E. Scuseria, 
 M. A. Robb, J. R. Cheeseman, G. Scalmani, V. Barone, 
 G. A. Petersson, H. Nakatsuji, X. Li, M. Caricato, A. V. Marenich, 
 J. Bloino, B. G. Janesko, R. Gomperts, B. Mennucci, H. P. Hratchian, 
 J. V. Ortiz, A. F. Izmaylov, J. L. Sonnenberg, D. Williams-Young, 
 F. Ding, F. Lipparini, F. Egidi, J. Goings, B. Peng, A. Petrone, 
 T. Henderson, D. Ranasinghe, V. G. Zakrzewski, J. Gao, N. Rega, 
 G. Zheng, W. Liang, M. Hada, M. Ehara, K. Toyota, R. Fukuda, 
 J. Hasegawa, M. Ishida, T. Nakajima, Y. Honda, O. Kitao, H. Nakai, 
 T. Vreven, K. Throssell, J. A. Montgomery, Jr., J. E. Peralta, 
 F. Ogliaro, M. J. Bearpark, J. J. Heyd, E. N. Brothers, K. N. Kudin, 
 V. N. Staroverov, T. A. Keith, R. Kobayashi, J. Normand, 
 K. Raghavachari, A. P. Rendell, J. C. Burant, S. S. Iyengar, 
 J. Tomasi, M. Cossi, J. M. Millam, M. Klene, C. Adamo, R. Cammi, 
 J. W. Ochterski, R. L. Martin, K. Morokuma, O. Farkas, 
 J. B. Foresman, and D. J. Fox, Gaussian, Inc., Wallingford CT, 2019.
 
 ******************************************
 Gaussian 16:  ES64L-G16RevC.01  3-Jul-2019
                 8-Apr-2025 
 ******************************************
 %nprocs=16
 Will use up to   16 processors via shared memory.
 %mem=30GB
 %chk=BDE49_expt_1398_mol1.chk
 ----------------------------------------------------------------------
 #t hf aug-cc-pvdz symm=none int=(grid=ultrafine) guess=(read,tcheck) s
 table=(opt,rrhf)
 ----------------------------------------------------------------------
 -----
 title
 -----
 Symbolic Z-matrix:
 Charge =  0 Multiplicity = 1
 C                    -1.97506  -0.64977   0. 
 C                    -1.37767   0.5969    0. 
 C                     0.        0.77935   0. 
 C                    -1.13754  -1.76816   0. 
 C                     0.24236  -1.63198   0. 
 C                     0.81798  -0.35362   0. 
 H                    -3.05359  -0.73466   0. 
 F                    -2.15872   1.70188   0. 
 H                     0.39084   1.78662   0. 
 H                    -1.57469  -2.75985   0. 
 H                     0.89829  -2.49307   0. 
 O                     2.17741  -0.31255   0. 
 C                     2.81901   0.9553    0. 
 H                     3.88755   0.74735   0. 
 H                     2.56316   1.53444   0.89423 
 H                     2.56316   1.53444  -0.89423 
 
                    Distance matrix (angstroms):
                    1          2          3          4          5
     1  C    0.000000
     2  C    1.382405   0.000000
     3  C    2.437874   1.389698   0.000000
     4  C    1.397226   2.377213   2.789943   0.000000
     5  C    2.425219   2.755430   2.423483   1.386598   0.000000
     6  C    2.808694   2.392563   1.397396   2.413494   1.401981
     7  H    1.081871   2.140505   3.408321   2.177015   3.415917
     8  F    2.358809   1.353155   2.347578   3.617178   4.108506
     9  H    3.396093   2.131446   1.080438   3.869414   3.421827
    10  H    2.147736   3.362529   3.873711   1.083777   2.138637
    11  H    3.413779   3.837694   3.393477   2.161036   1.082459
    12  O    4.166136   3.669559   2.435847   3.620449   2.342077
    13  C    5.055618   4.211950   2.824491   4.803273   3.651457
    14  H    6.026782   5.267367   3.887681   5.619542   4.353004
    15  H    5.115253   4.148345   2.817729   5.040032   4.026410
    16  H    5.115253   4.148345   2.817729   5.040032   4.026410
                    6          7          8          9         10
     6  C    0.000000
     7  H    3.890279   0.000000
     8  F    3.617432   2.595675   0.000000
     9  H    2.182449   4.268601   2.550963   0.000000
    10  H    3.393353   2.507702   4.499798   4.953156   0.000000
    11  H    2.140962   4.325433   5.190658   4.309675   2.487325
    12  O    1.360048   5.248004   4.781204   2.756509   4.479684
    13  C    2.391103   6.110922   5.033399   2.566533   5.753864
    14  H    3.261041   7.097591   6.121149   3.647886   6.491269
    15  H    2.722143   6.123427   4.808723   2.362675   6.030125
    16  H    2.722143   6.123427   4.808723   2.362675   6.030125
                   11         12         13         14         15
    11  H    0.000000
    12  O    2.528014   0.000000
    13  C    3.947209   1.420945   0.000000
    14  H    4.408635   2.011956   1.088590   0.000000
    15  H    4.448855   2.088016   1.095678   1.781338   0.000000
    16  H    4.448855   2.088016   1.095678   1.781338   1.788468
                   16
    16  H    0.000000
 Symmetry turned off by external request.
 Rotational constants (GHZ):           2.8202921           1.2743250           0.8826720
   270 basis functions,   464 primitive gaussians,   288 cartesian basis functions
    33 alpha electrons       33 beta electrons
       nuclear repulsion energy       425.1875219994 Hartrees.
 NAtoms=   16 NActive=   16 NUniq=   16 SFac= 1.00D+00 NAtFMM=   60 NAOKFM=F Big=F
 ExpMin= 2.97D-02 ExpMax= 1.47D+04 ExpMxC= 5.03D+02 IAcc=3 IRadAn=         5 AccDes= 0.00D+00
 Harris functional with IExCor=  205 and IRadAn=       5 diagonalized for initial guess.
 HarFok:  IExCor=  205 AccDes= 0.00D+00 IRadAn=         5 IDoV= 1 UseB2=F ITyADJ=14
 ICtDFT=  3500011 ScaDFX=  1.000000  1.000000  1.000000  1.000000
 FoFCou: FMM=F IPFlag=           0 FMFlag=      100000 FMFlg1=           0
         NFxFlg=           0 DoJE=T BraDBF=F KetDBF=T FulRan=T
         wScrn=  0.000000 ICntrl=       500 IOpCl=  0 I1Cent=   200000004 NGrid=           0
         NMat0=    1 NMatS0=      1 NMatT0=    0 NMatD0=    1 NMtDS0=    0 NMtDT0=    0
 Symmetry not used in FoFCou.
 SCF Done:  E(RHF) =  -443.488559957     A.U. after   15 cycles
            NFock= 15  Conv=0.47D-08     -V/T= 2.0011

 **********************************************************************

            Population analysis using the SCF Density.

 **********************************************************************

 Alpha  occ. eigenvalues --  -26.32245 -20.60520 -11.34073 -11.32281 -11.30024
 Alpha  occ. eigenvalues --  -11.25927 -11.24677 -11.24099 -11.23827  -1.63011
 Alpha  occ. eigenvalues --   -1.42443  -1.16354  -1.03445  -1.03256  -0.95514
 Alpha  occ. eigenvalues --   -0.85119  -0.83786  -0.75177  -0.71572  -0.69265
 Alpha  occ. eigenvalues --   -0.68814  -0.66764  -0.66244  -0.64259  -0.61259
 Alpha  occ. eigenvalues --   -0.57925  -0.54674  -0.53414  -0.52354  -0.50591
 Alpha  occ. eigenvalues --   -0.47478  -0.34900  -0.32204
 Alpha virt. eigenvalues --    0.03338   0.03903   0.04548   0.05548   0.05671
 Alpha virt. eigenvalues --    0.06032   0.08187   0.09826   0.10633   0.11281
 Alpha virt. eigenvalues --    0.11790   0.12684   0.13531   0.13657   0.14046
 Alpha virt. eigenvalues --    0.14750   0.15594   0.15933   0.16123   0.16331
 Alpha virt. eigenvalues --    0.17134   0.17173   0.17605   0.17884   0.18593
 Alpha virt. eigenvalues --    0.19061   0.19839   0.20538   0.21128   0.22316
 Alpha virt. eigenvalues --    0.23716   0.25328   0.26098   0.27760   0.29159
 Alpha virt. eigenvalues --    0.29661   0.30398   0.30931   0.31692   0.32728
 Alpha virt. eigenvalues --    0.33341   0.34401   0.35281   0.35351   0.36293
 Alpha virt. eigenvalues --    0.37517   0.37671   0.38825   0.39157   0.40159
 Alpha virt. eigenvalues --    0.40286   0.40951   0.41375   0.42089   0.42311
 Alpha virt. eigenvalues --    0.42985   0.44352   0.45536   0.46418   0.47622
 Alpha virt. eigenvalues --    0.49139   0.49865   0.50726   0.50863   0.53494
 Alpha virt. eigenvalues --    0.53658   0.54158   0.55187   0.56285   0.56731
 Alpha virt. eigenvalues --    0.59463   0.60417   0.60476   0.61252   0.61585
 Alpha virt. eigenvalues --    0.62787   0.62996   0.63321   0.64692   0.65568
 Alpha virt. eigenvalues --    0.66384   0.67470   0.68013   0.68975   0.69082
 Alpha virt. eigenvalues --    0.69545   0.72118   0.73257   0.73706   0.73904
 Alpha virt. eigenvalues --    0.74900   0.75747   0.76127   0.77806   0.78781
 Alpha virt. eigenvalues --    0.79533   0.80118   0.82386   0.82408   0.86175
 Alpha virt. eigenvalues --    0.86468   0.87821   0.88811   0.90264   0.91456
 Alpha virt. eigenvalues --    0.92415   0.93188   0.93280   0.93882   0.96432
 Alpha virt. eigenvalues --    0.97295   0.98091   0.98654   0.98932   0.99985
 Alpha virt. eigenvalues --    1.02437   1.04787   1.05104   1.06741   1.07748
 Alpha virt. eigenvalues --    1.10013   1.15205   1.16616   1.17069   1.18204
 Alpha virt. eigenvalues --    1.18294   1.20953   1.22079   1.28012   1.35157
 Alpha virt. eigenvalues --    1.36319   1.37170   1.40737   1.44017   1.45050
 Alpha virt. eigenvalues --    1.46058   1.48491   1.50649   1.53312   1.53777
 Alpha virt. eigenvalues --    1.55829   1.57265   1.58058   1.58490   1.61131
 Alpha virt. eigenvalues --    1.62455   1.63227   1.63411   1.64615   1.67927
 Alpha virt. eigenvalues --    1.69115   1.70153   1.70377   1.72760   1.73058
 Alpha virt. eigenvalues --    1.74807   1.75042   1.75766   1.77213   1.81058
 Alpha virt. eigenvalues --    1.82591   1.83783   1.84030   1.87276   1.90042
 Alpha virt. eigenvalues --    1.90577   1.91541   1.91773   1.92690   1.94800
 Alpha virt. eigenvalues --    1.96680   1.97673   1.99474   2.01034   2.05412
 Alpha virt. eigenvalues --    2.08432   2.09707   2.10365   2.12102   2.12921
 Alpha virt. eigenvalues --    2.15284   2.17086   2.18206   2.20339   2.20969
 Alpha virt. eigenvalues --    2.22411   2.24605   2.26806   2.29312   2.29437
 Alpha virt. eigenvalues --    2.31024   2.31447   2.32683   2.37258   2.38308
 Alpha virt. eigenvalues --    2.38611   2.40449   2.41665   2.47094   2.51910
 Alpha virt. eigenvalues --    2.54602   2.59162   2.65140   2.65350   2.68599
 Alpha virt. eigenvalues --    2.71266   2.74764   2.80311   2.81464   2.83827
 Alpha virt. eigenvalues --    2.90692   2.94038   2.94927   2.98108   3.02248
 Alpha virt. eigenvalues --    3.09753   3.11649   3.18599   3.20622   3.26466
 Alpha virt. eigenvalues --    3.31035   3.38885   3.43627   3.56375   3.74884
 Alpha virt. eigenvalues --    3.78572   3.83989   3.88630   3.88922   4.14012
 Alpha virt. eigenvalues --    4.18319   4.78343   5.02706   5.04133   5.04483
 Alpha virt. eigenvalues --    5.17293   5.23843
          Condensed to atoms (all electrons):
 Mulliken charges:
               1
     1  C    0.332736
     2  C    0.818796
     3  C    0.220795
     4  C    0.780303
     5  C    0.190259
     6  C    1.198010
     7  H   -0.406956
     8  F   -0.822591
     9  H   -0.683867
    10  H   -0.431509
    11  H   -0.506288
    12  O   -1.099770
    13  C    0.825295
    14  H   -0.312552
    15  H   -0.051330
    16  H   -0.051330
 Sum of Mulliken charges =  -0.00000
 Mulliken charges with hydrogens summed into heavy atoms:
               1
     1  C   -0.074220
     2  C    0.818796
     3  C   -0.463072
     4  C    0.348794
     5  C   -0.316029
     6  C    1.198010
     8  F   -0.822591
    12  O   -1.099770
    13  C    0.410082
 Electronic spatial extent (au):  <R**2>=           1243.3955
 Charge=             -0.0000 electrons
 Dipole moment (field-independent basis, Debye):
    X=              1.4550    Y=             -0.0959    Z=             -0.0000  Tot=              1.4581
 NROrb=    270 NOA=    33 NOB=    33 NVA=   237 NVB=   237

 **** Warning!!: The largest alpha MO coefficient is  0.10548259D+03

    12 initial guesses have been made.
 Iteration     1 Dimension    12 NMult     0 NNew     12
 Iteration     2 Dimension    24 NMult    12 NNew     12
 Iteration     3 Dimension    27 NMult    24 NNew      3
 Iteration     4 Dimension    30 NMult    27 NNew      3
 Iteration     5 Dimension    33 NMult    30 NNew      3
 Iteration     6 Dimension    36 NMult    33 NNew      3
 ***********************************************************************
 Stability analysis using <AA,BB:AA,BB> singles matrix:
 ***********************************************************************
 Ground to excited state transition densities written to RWF  633

 Eigenvectors of the stability matrix:
 
 Excited state symmetry could not be determined.
 Eigenvector   1:      Singlet-?Sym  Eigenvalue= 0.1713531  <S**2>=0.000
      32 -> 44        -0.36647
      32 -> 47        -0.10085
      32 -> 54         0.14746
      32 -> 60         0.15987
      33 -> 42         0.47733
      33 -> 47         0.13673
      33 -> 51        -0.12144
      33 -> 61        -0.14594
 The wavefunction is stable under the perturbations considered.
 The wavefunction is already stable.

 **********************************************************************

            Population analysis using the SCF Density.

 **********************************************************************

 Alpha  occ. eigenvalues --  -26.32245 -20.60520 -11.34073 -11.32281 -11.30024
 Alpha  occ. eigenvalues --  -11.25927 -11.24677 -11.24099 -11.23827  -1.63011
 Alpha  occ. eigenvalues --   -1.42443  -1.16354  -1.03445  -1.03256  -0.95514
 Alpha  occ. eigenvalues --   -0.85119  -0.83786  -0.75177  -0.71572  -0.69265
 Alpha  occ. eigenvalues --   -0.68814  -0.66764  -0.66244  -0.64259  -0.61259
 Alpha  occ. eigenvalues --   -0.57925  -0.54674  -0.53414  -0.52354  -0.50591
 Alpha  occ. eigenvalues --   -0.47478  -0.34900  -0.32204
 Alpha virt. eigenvalues --    0.03338   0.03903   0.04548   0.05548   0.05671
 Alpha virt. eigenvalues --    0.06032   0.08187   0.09826   0.10633   0.11281
 Alpha virt. eigenvalues --    0.11790   0.12684   0.13531   0.13657   0.14046
 Alpha virt. eigenvalues --    0.14750   0.15594   0.15933   0.16123   0.16331
 Alpha virt. eigenvalues --    0.17134   0.17173   0.17605   0.17884   0.18593
 Alpha virt. eigenvalues --    0.19061   0.19839   0.20538   0.21128   0.22316
 Alpha virt. eigenvalues --    0.23716   0.25328   0.26098   0.27760   0.29159
 Alpha virt. eigenvalues --    0.29661   0.30398   0.30931   0.31692   0.32728
 Alpha virt. eigenvalues --    0.33341   0.34401   0.35281   0.35351   0.36293
 Alpha virt. eigenvalues --    0.37517   0.37671   0.38825   0.39157   0.40159
 Alpha virt. eigenvalues --    0.40286   0.40951   0.41375   0.42089   0.42311
 Alpha virt. eigenvalues --    0.42985   0.44352   0.45536   0.46418   0.47622
 Alpha virt. eigenvalues --    0.49139   0.49865   0.50726   0.50863   0.53494
 Alpha virt. eigenvalues --    0.53658   0.54158   0.55187   0.56285   0.56731
 Alpha virt. eigenvalues --    0.59463   0.60417   0.60476   0.61252   0.61585
 Alpha virt. eigenvalues --    0.62787   0.62996   0.63321   0.64692   0.65568
 Alpha virt. eigenvalues --    0.66384   0.67470   0.68013   0.68975   0.69082
 Alpha virt. eigenvalues --    0.69545   0.72118   0.73257   0.73706   0.73904
 Alpha virt. eigenvalues --    0.74900   0.75747   0.76127   0.77806   0.78781
 Alpha virt. eigenvalues --    0.79533   0.80118   0.82386   0.82408   0.86175
 Alpha virt. eigenvalues --    0.86468   0.87821   0.88811   0.90264   0.91456
 Alpha virt. eigenvalues --    0.92415   0.93188   0.93280   0.93882   0.96432
 Alpha virt. eigenvalues --    0.97295   0.98091   0.98654   0.98932   0.99985
 Alpha virt. eigenvalues --    1.02437   1.04787   1.05104   1.06741   1.07748
 Alpha virt. eigenvalues --    1.10013   1.15205   1.16616   1.17069   1.18204
 Alpha virt. eigenvalues --    1.18294   1.20953   1.22079   1.28012   1.35157
 Alpha virt. eigenvalues --    1.36319   1.37170   1.40737   1.44017   1.45050
 Alpha virt. eigenvalues --    1.46058   1.48491   1.50649   1.53312   1.53777
 Alpha virt. eigenvalues --    1.55829   1.57265   1.58058   1.58490   1.61131
 Alpha virt. eigenvalues --    1.62455   1.63227   1.63411   1.64615   1.67927
 Alpha virt. eigenvalues --    1.69115   1.70153   1.70377   1.72760   1.73058
 Alpha virt. eigenvalues --    1.74807   1.75042   1.75766   1.77213   1.81058
 Alpha virt. eigenvalues --    1.82591   1.83783   1.84030   1.87276   1.90042
 Alpha virt. eigenvalues --    1.90577   1.91541   1.91773   1.92690   1.94800
 Alpha virt. eigenvalues --    1.96680   1.97673   1.99474   2.01034   2.05412
 Alpha virt. eigenvalues --    2.08432   2.09707   2.10365   2.12102   2.12921
 Alpha virt. eigenvalues --    2.15284   2.17086   2.18206   2.20339   2.20969
 Alpha virt. eigenvalues --    2.22411   2.24605   2.26806   2.29312   2.29437
 Alpha virt. eigenvalues --    2.31024   2.31447   2.32683   2.37258   2.38308
 Alpha virt. eigenvalues --    2.38611   2.40449   2.41665   2.47094   2.51910
 Alpha virt. eigenvalues --    2.54602   2.59162   2.65140   2.65350   2.68599
 Alpha virt. eigenvalues --    2.71266   2.74764   2.80311   2.81464   2.83827
 Alpha virt. eigenvalues --    2.90692   2.94038   2.94927   2.98108   3.02248
 Alpha virt. eigenvalues --    3.09753   3.11649   3.18599   3.20622   3.26466
 Alpha virt. eigenvalues --    3.31035   3.38885   3.43627   3.56375   3.74884
 Alpha virt. eigenvalues --    3.78572   3.83989   3.88630   3.88922   4.14012
 Alpha virt. eigenvalues --    4.18319   4.78343   5.02706   5.04133   5.04483
 Alpha virt. eigenvalues --    5.17293   5.23843
          Condensed to atoms (all electrons):
 Mulliken charges:
               1
     1  C    0.332736
     2  C    0.818796
     3  C    0.220795
     4  C    0.780303
     5  C    0.190259
     6  C    1.198010
     7  H   -0.406956
     8  F   -0.822591
     9  H   -0.683867
    10  H   -0.431509
    11  H   -0.506288
    12  O   -1.099770
    13  C    0.825295
    14  H   -0.312552
    15  H   -0.051330
    16  H   -0.051330
 Sum of Mulliken charges =  -0.00000
 Mulliken charges with hydrogens summed into heavy atoms:
               1
     1  C   -0.074220
     2  C    0.818796
     3  C   -0.463072
     4  C    0.348794
     5  C   -0.316029
     6  C    1.198010
     8  F   -0.822591
    12  O   -1.099770
    13  C    0.410082
 Electronic spatial extent (au):  <R**2>=           1243.3955
 Charge=             -0.0000 electrons
 Dipole moment (field-independent basis, Debye):
    X=              1.4550    Y=             -0.0959    Z=             -0.0000  Tot=              1.4581
 Unable to Open any file for archive entry.
 1\1\GINC-SE329\Stability\RHF\Aug-CC-pVDZ\C7H7F1O1\OHZDE\08-Apr-2025\0\
 \#t hf aug-cc-pvdz symm=none int=(grid=ultrafine) guess=(read,tcheck) 
 stable=(opt,rrhf)\\title\\0,1\C,0,-1.975058,-0.649765,0.\C,0,-1.377669
 ,0.596898,0.\C,0,0.,0.779352,0.\C,0,-1.137536,-1.768155,0.\C,0,0.24235
 9,-1.631982,0.\C,0,0.81798,-0.353619,0.\H,0,-3.053593,-0.734657,0.\F,0
 ,-2.158717,1.701883,0.\H,0,0.390838,1.786622,0.\H,0,-1.574692,-2.75985
 4,0.\H,0,0.898285,-2.493074,0.\O,0,2.177408,-0.312547,0.\C,0,2.819005,
 0.955301,0.\H,0,3.887549,0.747352,0.\H,0,2.56316,1.534437,0.894234\H,0
 ,2.56316,1.534437,-0.894234\\Version=ES64L-G16RevC.01\HF=-443.48856\RM
 SD=4.670e-09\Dipole=0.5724242,-0.0377111,0.\Quadrupole=1.709773,1.4806
 254,-3.1903983,6.3599559,0.,0.\PG=Unknown\\@
 The archive entry for this job was punched.


 THE VALUE OF PHILOSOPHY IS, IN FACT, TO BE SOUGHT LARGELY IN ITS
 VERY UNCERTAINTY.  THE MAN WHO HAS NO TINCTURE OF PHILOSOPHY GOES
 THROUGH LIFE IMPRISONED IN THE PREJUDICES DERIVED FROM COMMON SENSE,
 FROM THE HABITUAL BELIEFS OF HIS AGE OR HIS NATION, AND FROM
 CONVICTIONS WHICH HAVE GROWN UP IN HIS MIND WITHOUT THE CO-OPERATION
 OR CONSENT OF HIS DELIBERATE REASON.  TO SUCH A MAN THE WORLD TENDS
 TO BE DEFINITE, FINITE, OBVIOUS; COMMON OBJECTS ROUSE NO QUESTIONS,
 AND UNFAMILIAR POSSIBILITIES ARE CONTEMPTUOUSLY REJECTED.

                             -- BERTRAND RUSSELL
 Job cpu time:       0 days  0 hours 12 minutes 26.1 seconds.
 Elapsed time:       0 days  0 hours  0 minutes 51.7 seconds.
 File lengths (MBytes):  RWF=    334 Int=      0 D2E=      0 Chk=     10 Scr=      1
 Normal termination of Gaussian 16 at Tue Apr  8 22:42:14 2025.
 Initial command:
 /arc/software/Gaussian/g16.c01/l1.exe "/tmp/slurm/4841469/Gau-193294.inp" -scrdir="/tmp/slurm/4841469/"
 Entering Link 1 = /arc/software/Gaussian/g16.c01/l1.exe PID=    193897.
  
 Copyright (c) 1988-2019, Gaussian, Inc.  All Rights Reserved.
  
 This is part of the Gaussian(R) 16 program.  It is based on
 the Gaussian(R) 09 system (copyright 2009, Gaussian, Inc.),
 the Gaussian(R) 03 system (copyright 2003, Gaussian, Inc.),
 the Gaussian(R) 98 system (copyright 1998, Gaussian, Inc.),
 the Gaussian(R) 94 system (copyright 1995, Gaussian, Inc.),
 the Gaussian 92(TM) system (copyright 1992, Gaussian, Inc.),
 the Gaussian 90(TM) system (copyright 1990, Gaussian, Inc.),
 the Gaussian 88(TM) system (copyright 1988, Gaussian, Inc.),
 the Gaussian 86(TM) system (copyright 1986, Carnegie Mellon
 University), and the Gaussian 82(TM) system (copyright 1983,
 Carnegie Mellon University). Gaussian is a federally registered
 trademark of Gaussian, Inc.
  
 This software contains proprietary and confidential information,
 including trade secrets, belonging to Gaussian, Inc.
  
 This software is provided under written license and may be
 used, copied, transmitted, or stored only in accord with that
 written license.
  
 The following legend is applicable only to US Government
 contracts under FAR:
  
                    RESTRICTED RIGHTS LEGEND
  
 Use, reproduction and disclosure by the US Government is
 subject to restrictions as set forth in subparagraphs (a)
 and (c) of the Commercial Computer Software - Restricted
 Rights clause in FAR 52.227-19.
  
 Gaussian, Inc.
 340 Quinnipiac St., Bldg. 40, Wallingford CT 06492
  
  
 ---------------------------------------------------------------
 Warning -- This program may not be used in any manner that
 competes with the business of Gaussian, Inc. or will provide
 assistance to any competitor of Gaussian, Inc.  The licensee
 of this program is prohibited from giving any competitor of
 Gaussian, Inc. access to this program.  By using this program,
 the user acknowledges that Gaussian, Inc. is engaged in the
 business of creating and licensing software in the field of
 computational chemistry and represents and warrants to the
 licensee that it is not a competitor of Gaussian, Inc. and that
 it will not use this program in any manner prohibited above.
 ---------------------------------------------------------------
  

 Cite this work as:
 Gaussian 16, Revision C.01,
 M. J. Frisch, G. W. Trucks, H. B. Schlegel, G. E. Scuseria, 
 M. A. Robb, J. R. Cheeseman, G. Scalmani, V. Barone, 
 G. A. Petersson, H. Nakatsuji, X. Li, M. Caricato, A. V. Marenich, 
 J. Bloino, B. G. Janesko, R. Gomperts, B. Mennucci, H. P. Hratchian, 
 J. V. Ortiz, A. F. Izmaylov, J. L. Sonnenberg, D. Williams-Young, 
 F. Ding, F. Lipparini, F. Egidi, J. Goings, B. Peng, A. Petrone, 
 T. Henderson, D. Ranasinghe, V. G. Zakrzewski, J. Gao, N. Rega, 
 G. Zheng, W. Liang, M. Hada, M. Ehara, K. Toyota, R. Fukuda, 
 J. Hasegawa, M. Ishida, T. Nakajima, Y. Honda, O. Kitao, H. Nakai, 
 T. Vreven, K. Throssell, J. A. Montgomery, Jr., J. E. Peralta, 
 F. Ogliaro, M. J. Bearpark, J. J. Heyd, E. N. Brothers, K. N. Kudin, 
 V. N. Staroverov, T. A. Keith, R. Kobayashi, J. Normand, 
 K. Raghavachari, A. P. Rendell, J. C. Burant, S. S. Iyengar, 
 J. Tomasi, M. Cossi, J. M. Millam, M. Klene, C. Adamo, R. Cammi, 
 J. W. Ochterski, R. L. Martin, K. Morokuma, O. Farkas, 
 J. B. Foresman, and D. J. Fox, Gaussian, Inc., Wallingford CT, 2019.
 
 ******************************************
 Gaussian 16:  ES64L-G16RevC.01  3-Jul-2019
                 8-Apr-2025 
 ******************************************
 %nprocs=16
 Will use up to   16 processors via shared memory.
 %mem=30GB
 %chk=BDE49_expt_1398_mol1.chk
 ----------------------------------------------------------------------
 #t hf aug-cc-pvdz iop(5/13=1,5/36=2,99/5=2) pseudo=read geom=check gue
 ss=(read,tcheck) scf=(maxcycle=1)
 ----------------------------------------------------------------------
 -----
 title
 -----
 Structure from the checkpoint file:  "BDE49_expt_1398_mol1.chk"
 Charge =  0 Multiplicity = 1
 Z-Matrix found in chk file.
 C,0,-1.975058,-0.649765,0.
 C,0,-1.377669,0.596898,0.
 C,0,0.,0.779352,0.
 C,0,-1.137536,-1.768155,0.
 C,0,0.242359,-1.631982,0.
 C,0,0.81798,-0.353619,0.
 H,0,-3.053593,-0.734657,0.
 F,0,-2.158717,1.701883,0.
 H,0,0.390838,1.786622,0.
 H,0,-1.574692,-2.759854,0.
 H,0,0.898285,-2.493074,0.
 O,0,2.177408,-0.312547,0.
 C,0,2.819005,0.955301,0.
 H,0,3.887549,0.747352,0.
 H,0,2.56316,1.534437,0.894234
 H,0,2.56316,1.534437,-0.894234
 Recover connectivity data from disk.
                    Distance matrix (angstroms):
                    1          2          3          4          5
     1  C    0.000000
     2  C    1.382405   0.000000
     3  C    2.437874   1.389698   0.000000
     4  C    1.397226   2.377213   2.789943   0.000000
     5  C    2.425219   2.755430   2.423483   1.386598   0.000000
     6  C    2.808694   2.392563   1.397396   2.413494   1.401981
     7  H    1.081871   2.140505   3.408321   2.177015   3.415917
     8  F    2.358809   1.353155   2.347578   3.617178   4.108506
     9  H    3.396093   2.131446   1.080438   3.869414   3.421827
    10  H    2.147736   3.362529   3.873711   1.083777   2.138637
    11  H    3.413779   3.837694   3.393477   2.161036   1.082459
    12  O    4.166136   3.669559   2.435847   3.620449   2.342077
    13  C    5.055618   4.211950   2.824491   4.803273   3.651457
    14  H    6.026782   5.267367   3.887681   5.619542   4.353004
    15  H    5.115253   4.148345   2.817729   5.040032   4.026410
    16  H    5.115253   4.148345   2.817729   5.040032   4.026410
                    6          7          8          9         10
     6  C    0.000000
     7  H    3.890279   0.000000
     8  F    3.617432   2.595675   0.000000
     9  H    2.182449   4.268601   2.550963   0.000000
    10  H    3.393353   2.507702   4.499798   4.953156   0.000000
    11  H    2.140962   4.325433   5.190658   4.309675   2.487325
    12  O    1.360048   5.248004   4.781204   2.756509   4.479684
    13  C    2.391103   6.110922   5.033399   2.566533   5.753864
    14  H    3.261041   7.097591   6.121149   3.647886   6.491269
    15  H    2.722143   6.123427   4.808723   2.362675   6.030125
    16  H    2.722143   6.123427   4.808723   2.362675   6.030125
                   11         12         13         14         15
    11  H    0.000000
    12  O    2.528014   0.000000
    13  C    3.947209   1.420945   0.000000
    14  H    4.408635   2.011956   1.088590   0.000000
    15  H    4.448855   2.088016   1.095678   1.781338   0.000000
    16  H    4.448855   2.088016   1.095678   1.781338   1.788468
                   16
    16  H    0.000000
 Framework group  CS[SG(C7H5FO),X(H2)]
 Deg. of freedom    28
                         Standard orientation:                         
 ---------------------------------------------------------------------
 Center     Atomic      Atomic             Coordinates (Angstroms)
 Number     Number       Type             X           Y           Z
 ---------------------------------------------------------------------
      1          6           0       -1.975058   -0.649765    0.000000
      2          6           0       -1.377669    0.596898    0.000000
      3          6           0        0.000000    0.779352    0.000000
      4          6           0       -1.137536   -1.768155    0.000000
      5          6           0        0.242359   -1.631982    0.000000
      6          6           0        0.817980   -0.353619    0.000000
      7          1           0       -3.053593   -0.734657    0.000000
      8          9           0       -2.158717    1.701883    0.000000
      9          1           0        0.390838    1.786622    0.000000
     10          1           0       -1.574692   -2.759854    0.000000
     11          1           0        0.898285   -2.493074    0.000000
     12          8           0        2.177408   -0.312547    0.000000
     13          6           0        2.819005    0.955301    0.000000
     14          1           0        3.887549    0.747351    0.000000
     15          1           0        2.563160    1.534437    0.894234
     16          1           0        2.563160    1.534437   -0.894234
 ---------------------------------------------------------------------
 Rotational constants (GHZ):           2.8202921           1.2743250           0.8826720
 ======================================================================================================
                                       Pseudopotential Parameters
 ======================================================================================================
  Center     Atomic      Valence      Angular      Power
  Number     Number     Electrons     Momentum     of R      Exponent        Coefficient   SO-Coeffient
 ======================================================================================================
    1          6            6
                                      G and up 
                                                     0        0.0000010       -0.00007288    0.00000000
                                                     2        0.1200000        0.10466671    0.00000000
                                                     2        0.1400000       -0.65716157    0.00000000
                                                     2        0.1600000        1.18890794    0.00000000
                                                     2        0.2000000       -1.25772850    0.00000000
                                                     2        0.2600000        1.01188378    0.00000000
                                                     2        0.4000000       -1.09380874    0.00000000
                                                     2        0.5000000        0.96944888    0.00000000
                                                     2        1.0000000       -0.79256938    0.00000000
                                                     2        3.0000000        1.06443276    0.00000000
                                      S - G
                                                     0        0.0000010       -0.00635295    0.00000000
                                                     2        0.1200000        0.16918955    0.00000000
                                                     2        0.1600000       -0.38862576    0.00000000
                                                     2        0.2800000        0.25638263    0.00000000
                                                     2        0.5000000        0.29628419    0.00000000
                                                     2        0.9000000       -0.28791512    0.00000000
                                      P - G
                                                     0        0.0000010       -0.04756931    0.00000000
                                                     2        0.1200000        0.28430375    0.00000000
                                                     2        0.1600000       -0.69640032    0.00000000
                                                     2        0.2600000        1.13005668    0.00000000
                                                     2        0.4000000       -1.31433324    0.00000000
                                                     2        0.7000000        0.91526469    0.00000000
                                      D - G
                                                     0        0.0000010       -0.11496411    0.00000000
                                                     2        0.1200000        0.16620776    0.00000000
                                                     2        0.1800000       -0.30959819    0.00000000
                                                     2        0.3000000        0.16621458    0.00000000
                                                     2        0.6000000        0.27350556    0.00000000
                                      F - G
                                                     0        0.0000010        0.12037550    0.00000000
                                                     2        0.1200000       -0.48737077    0.00000000
                                                     2        0.1400000        0.58315350    0.00000000
                                                     2        0.3000000        0.00005188    0.00000000
                                                     2        0.5000000       -1.16063549    0.00000000
                                                     2        0.8000000        2.09053308    0.00000000
    2          6            6
                                      G and up 
                                                     0        0.0000010       -0.00007288    0.00000000
                                                     2        0.1200000        0.10466671    0.00000000
                                                     2        0.1400000       -0.65716157    0.00000000
                                                     2        0.1600000        1.18890794    0.00000000
                                                     2        0.2000000       -1.25772850    0.00000000
                                                     2        0.2600000        1.01188378    0.00000000
                                                     2        0.4000000       -1.09380874    0.00000000
                                                     2        0.5000000        0.96944888    0.00000000
                                                     2        1.0000000       -0.79256938    0.00000000
                                                     2        3.0000000        1.06443276    0.00000000
                                      S - G
                                                     0        0.0000010       -0.00635295    0.00000000
                                                     2        0.1200000        0.16918955    0.00000000
                                                     2        0.1600000       -0.38862576    0.00000000
                                                     2        0.2800000        0.25638263    0.00000000
                                                     2        0.5000000        0.29628419    0.00000000
                                                     2        0.9000000       -0.28791512    0.00000000
                                      P - G
                                                     0        0.0000010       -0.04756931    0.00000000
                                                     2        0.1200000        0.28430375    0.00000000
                                                     2        0.1600000       -0.69640032    0.00000000
                                                     2        0.2600000        1.13005668    0.00000000
                                                     2        0.4000000       -1.31433324    0.00000000
                                                     2        0.7000000        0.91526469    0.00000000
                                      D - G
                                                     0        0.0000010       -0.11496411    0.00000000
                                                     2        0.1200000        0.16620776    0.00000000
                                                     2        0.1800000       -0.30959819    0.00000000
                                                     2        0.3000000        0.16621458    0.00000000
                                                     2        0.6000000        0.27350556    0.00000000
                                      F - G
                                                     0        0.0000010        0.12037550    0.00000000
                                                     2        0.1200000       -0.48737077    0.00000000
                                                     2        0.1400000        0.58315350    0.00000000
                                                     2        0.3000000        0.00005188    0.00000000
                                                     2        0.5000000       -1.16063549    0.00000000
                                                     2        0.8000000        2.09053308    0.00000000
    3          6            6
                                      G and up 
                                                     0        0.0000010       -0.00007288    0.00000000
                                                     2        0.1200000        0.10466671    0.00000000
                                                     2        0.1400000       -0.65716157    0.00000000
                                                     2        0.1600000        1.18890794    0.00000000
                                                     2        0.2000000       -1.25772850    0.00000000
                                                     2        0.2600000        1.01188378    0.00000000
                                                     2        0.4000000       -1.09380874    0.00000000
                                                     2        0.5000000        0.96944888    0.00000000
                                                     2        1.0000000       -0.79256938    0.00000000
                                                     2        3.0000000        1.06443276    0.00000000
                                      S - G
                                                     0        0.0000010       -0.00635295    0.00000000
                                                     2        0.1200000        0.16918955    0.00000000
                                                     2        0.1600000       -0.38862576    0.00000000
                                                     2        0.2800000        0.25638263    0.00000000
                                                     2        0.5000000        0.29628419    0.00000000
                                                     2        0.9000000       -0.28791512    0.00000000
                                      P - G
                                                     0        0.0000010       -0.04756931    0.00000000
                                                     2        0.1200000        0.28430375    0.00000000
                                                     2        0.1600000       -0.69640032    0.00000000
                                                     2        0.2600000        1.13005668    0.00000000
                                                     2        0.4000000       -1.31433324    0.00000000
                                                     2        0.7000000        0.91526469    0.00000000
                                      D - G
                                                     0        0.0000010       -0.11496411    0.00000000
                                                     2        0.1200000        0.16620776    0.00000000
                                                     2        0.1800000       -0.30959819    0.00000000
                                                     2        0.3000000        0.16621458    0.00000000
                                                     2        0.6000000        0.27350556    0.00000000
                                      F - G
                                                     0        0.0000010        0.12037550    0.00000000
                                                     2        0.1200000       -0.48737077    0.00000000
                                                     2        0.1400000        0.58315350    0.00000000
                                                     2        0.3000000        0.00005188    0.00000000
                                                     2        0.5000000       -1.16063549    0.00000000
                                                     2        0.8000000        2.09053308    0.00000000
    4          6            6
                                      G and up 
                                                     0        0.0000010       -0.00007288    0.00000000
                                                     2        0.1200000        0.10466671    0.00000000
                                                     2        0.1400000       -0.65716157    0.00000000
                                                     2        0.1600000        1.18890794    0.00000000
                                                     2        0.2000000       -1.25772850    0.00000000
                                                     2        0.2600000        1.01188378    0.00000000
                                                     2        0.4000000       -1.09380874    0.00000000
                                                     2        0.5000000        0.96944888    0.00000000
                                                     2        1.0000000       -0.79256938    0.00000000
                                                     2        3.0000000        1.06443276    0.00000000
                                      S - G
                                                     0        0.0000010       -0.00635295    0.00000000
                                                     2        0.1200000        0.16918955    0.00000000
                                                     2        0.1600000       -0.38862576    0.00000000
                                                     2        0.2800000        0.25638263    0.00000000
                                                     2        0.5000000        0.29628419    0.00000000
                                                     2        0.9000000       -0.28791512    0.00000000
                                      P - G
                                                     0        0.0000010       -0.04756931    0.00000000
                                                     2        0.1200000        0.28430375    0.00000000
                                                     2        0.1600000       -0.69640032    0.00000000
                                                     2        0.2600000        1.13005668    0.00000000
                                                     2        0.4000000       -1.31433324    0.00000000
                                                     2        0.7000000        0.91526469    0.00000000
                                      D - G
                                                     0        0.0000010       -0.11496411    0.00000000
                                                     2        0.1200000        0.16620776    0.00000000
                                                     2        0.1800000       -0.30959819    0.00000000
                                                     2        0.3000000        0.16621458    0.00000000
                                                     2        0.6000000        0.27350556    0.00000000
                                      F - G
                                                     0        0.0000010        0.12037550    0.00000000
                                                     2        0.1200000       -0.48737077    0.00000000
                                                     2        0.1400000        0.58315350    0.00000000
                                                     2        0.3000000        0.00005188    0.00000000
                                                     2        0.5000000       -1.16063549    0.00000000
                                                     2        0.8000000        2.09053308    0.00000000
    5          6            6
                                      G and up 
                                                     0        0.0000010       -0.00007288    0.00000000
                                                     2        0.1200000        0.10466671    0.00000000
                                                     2        0.1400000       -0.65716157    0.00000000
                                                     2        0.1600000        1.18890794    0.00000000
                                                     2        0.2000000       -1.25772850    0.00000000
                                                     2        0.2600000        1.01188378    0.00000000
                                                     2        0.4000000       -1.09380874    0.00000000
                                                     2        0.5000000        0.96944888    0.00000000
                                                     2        1.0000000       -0.79256938    0.00000000
                                                     2        3.0000000        1.06443276    0.00000000
                                      S - G
                                                     0        0.0000010       -0.00635295    0.00000000
                                                     2        0.1200000        0.16918955    0.00000000
                                                     2        0.1600000       -0.38862576    0.00000000
                                                     2        0.2800000        0.25638263    0.00000000
                                                     2        0.5000000        0.29628419    0.00000000
                                                     2        0.9000000       -0.28791512    0.00000000
                                      P - G
                                                     0        0.0000010       -0.04756931    0.00000000
                                                     2        0.1200000        0.28430375    0.00000000
                                                     2        0.1600000       -0.69640032    0.00000000
                                                     2        0.2600000        1.13005668    0.00000000
                                                     2        0.4000000       -1.31433324    0.00000000
                                                     2        0.7000000        0.91526469    0.00000000
                                      D - G
                                                     0        0.0000010       -0.11496411    0.00000000
                                                     2        0.1200000        0.16620776    0.00000000
                                                     2        0.1800000       -0.30959819    0.00000000
                                                     2        0.3000000        0.16621458    0.00000000
                                                     2        0.6000000        0.27350556    0.00000000
                                      F - G
                                                     0        0.0000010        0.12037550    0.00000000
                                                     2        0.1200000       -0.48737077    0.00000000
                                                     2        0.1400000        0.58315350    0.00000000
                                                     2        0.3000000        0.00005188    0.00000000
                                                     2        0.5000000       -1.16063549    0.00000000
                                                     2        0.8000000        2.09053308    0.00000000
    6          6            6
                                      G and up 
                                                     0        0.0000010       -0.00007288    0.00000000
                                                     2        0.1200000        0.10466671    0.00000000
                                                     2        0.1400000       -0.65716157    0.00000000
                                                     2        0.1600000        1.18890794    0.00000000
                                                     2        0.2000000       -1.25772850    0.00000000
                                                     2        0.2600000        1.01188378    0.00000000
                                                     2        0.4000000       -1.09380874    0.00000000
                                                     2        0.5000000        0.96944888    0.00000000
                                                     2        1.0000000       -0.79256938    0.00000000
                                                     2        3.0000000        1.06443276    0.00000000
                                      S - G
                                                     0        0.0000010       -0.00635295    0.00000000
                                                     2        0.1200000        0.16918955    0.00000000
                                                     2        0.1600000       -0.38862576    0.00000000
                                                     2        0.2800000        0.25638263    0.00000000
                                                     2        0.5000000        0.29628419    0.00000000
                                                     2        0.9000000       -0.28791512    0.00000000
                                      P - G
                                                     0        0.0000010       -0.04756931    0.00000000
                                                     2        0.1200000        0.28430375    0.00000000
                                                     2        0.1600000       -0.69640032    0.00000000
                                                     2        0.2600000        1.13005668    0.00000000
                                                     2        0.4000000       -1.31433324    0.00000000
                                                     2        0.7000000        0.91526469    0.00000000
                                      D - G
                                                     0        0.0000010       -0.11496411    0.00000000
                                                     2        0.1200000        0.16620776    0.00000000
                                                     2        0.1800000       -0.30959819    0.00000000
                                                     2        0.3000000        0.16621458    0.00000000
                                                     2        0.6000000        0.27350556    0.00000000
                                      F - G
                                                     0        0.0000010        0.12037550    0.00000000
                                                     2        0.1200000       -0.48737077    0.00000000
                                                     2        0.1400000        0.58315350    0.00000000
                                                     2        0.3000000        0.00005188    0.00000000
                                                     2        0.5000000       -1.16063549    0.00000000
                                                     2        0.8000000        2.09053308    0.00000000
    7          1            1
                                      F and up 
                                                     0        0.0000010       -0.00007675    0.00000000
                                                     2        0.1200000        0.05352699    0.00000000
                                                     2        0.1400000       -0.25123645    0.00000000
                                                     2        0.1600000        0.32188106    0.00000000
                                                     2        0.2200000       -0.25206857    0.00000000
                                                     2        0.3000000        0.19290477    0.00000000
                                                     2        0.5000000       -0.10129770    0.00000000
                                                     2        0.9000000        0.00314995    0.00000000
                                                     2        1.5000000        0.18401192    0.00000000
                                      S - F
                                                     0        0.0000010        0.08065976    0.00000000
                                                     2        0.1200000       -0.09231673    0.00000000
                                                     2        0.1600000       -0.03278082    0.00000000
                                                     2        0.2800000        0.38423402    0.00000000
                                                     2        0.6000000       -1.09357590    0.00000000
                                                     2        1.1000000        1.53099489    0.00000000
                                                     2        3.0000000       -2.63300202    0.00000000
                                      P - F
                                                     0        0.0000010       -0.11638665    0.00000000
                                                     2        0.1200000        0.35468655    0.00000000
                                                     2        0.1600000       -0.59160923    0.00000000
                                                     2        0.3000000        0.49390547    0.00000000
                                                     2        0.6000000       -0.37949835    0.00000000
                                                     2        1.6000000        0.89304688    0.00000000
                                      D - F
                                                     0        0.0000010        0.05443663    0.00000000
                                                     2        0.1200000       -0.29679479    0.00000000
                                                     2        0.1400000        0.36849872    0.00000000
                                                     2        0.2400000        0.02793449    0.00000000
                                                     2        0.4000000       -0.46312857    0.00000000
                                                     2        0.7000000        0.97587598    0.00000000
                                                     2        1.5000000       -2.43431102    0.00000000
    8          9            9
                                      G and up 
                                                     0        0.0000010        0.00055569    0.00000000
                                                     2        0.1200000       -0.17741904    0.00000000
                                                     2        0.1400000        1.01928615    0.00000000
                                                     2        0.1600000       -1.52148367    0.00000000
                                                     2        0.2200000        1.83718211    0.00000000
                                                     2        0.3000000       -2.87348318    0.00000000
                                                     2        0.4000000        2.99646231    0.00000000
                                                     2        0.6000000       -2.11894556    0.00000000
                                                     2        1.3000000        1.79216257    0.00000000
                                      S - G
                                                     0        0.0000010       -0.00623030    0.00000000
                                                     2        0.1200000        0.13717684    0.00000000
                                                     2        0.2200000       -0.32899255    0.00000000
                                      P - G
                                                     0        0.0000010       -0.03918431    0.00000000
                                                     2        0.1200000       -0.03806127    0.00000000
                                                     2        0.3000000        0.26895041    0.00000000
                                                     2        0.8000000       -0.57822379    0.00000000
                                      D - G
                                                     0        0.0000010        0.21590327    0.00000000
                                                     2        0.1200000       -0.34443966    0.00000000
                                                     2        0.1600000        0.69000806    0.00000000
                                                     2        0.2600000       -0.73210453    0.00000000
                                      F - G
                                                     0        0.0000010       -0.14642430    0.00000000
                                                     2        0.1200000        0.06245232    0.00000000
                                                     2        0.2800000       -0.60801466    0.00000000
                                                     2        0.5000000        2.37940491    0.00000000
    9          1            1
                                      F and up 
                                                     0        0.0000010       -0.00007675    0.00000000
                                                     2        0.1200000        0.05352699    0.00000000
                                                     2        0.1400000       -0.25123645    0.00000000
                                                     2        0.1600000        0.32188106    0.00000000
                                                     2        0.2200000       -0.25206857    0.00000000
                                                     2        0.3000000        0.19290477    0.00000000
                                                     2        0.5000000       -0.10129770    0.00000000
                                                     2        0.9000000        0.00314995    0.00000000
                                                     2        1.5000000        0.18401192    0.00000000
                                      S - F
                                                     0        0.0000010        0.08065976    0.00000000
                                                     2        0.1200000       -0.09231673    0.00000000
                                                     2        0.1600000       -0.03278082    0.00000000
                                                     2        0.2800000        0.38423402    0.00000000
                                                     2        0.6000000       -1.09357590    0.00000000
                                                     2        1.1000000        1.53099489    0.00000000
                                                     2        3.0000000       -2.63300202    0.00000000
                                      P - F
                                                     0        0.0000010       -0.11638665    0.00000000
                                                     2        0.1200000        0.35468655    0.00000000
                                                     2        0.1600000       -0.59160923    0.00000000
                                                     2        0.3000000        0.49390547    0.00000000
                                                     2        0.6000000       -0.37949835    0.00000000
                                                     2        1.6000000        0.89304688    0.00000000
                                      D - F
                                                     0        0.0000010        0.05443663    0.00000000
                                                     2        0.1200000       -0.29679479    0.00000000
                                                     2        0.1400000        0.36849872    0.00000000
                                                     2        0.2400000        0.02793449    0.00000000
                                                     2        0.4000000       -0.46312857    0.00000000
                                                     2        0.7000000        0.97587598    0.00000000
                                                     2        1.5000000       -2.43431102    0.00000000
   10          1            1
                                      F and up 
                                                     0        0.0000010       -0.00007675    0.00000000
                                                     2        0.1200000        0.05352699    0.00000000
                                                     2        0.1400000       -0.25123645    0.00000000
                                                     2        0.1600000        0.32188106    0.00000000
                                                     2        0.2200000       -0.25206857    0.00000000
                                                     2        0.3000000        0.19290477    0.00000000
                                                     2        0.5000000       -0.10129770    0.00000000
                                                     2        0.9000000        0.00314995    0.00000000
                                                     2        1.5000000        0.18401192    0.00000000
                                      S - F
                                                     0        0.0000010        0.08065976    0.00000000
                                                     2        0.1200000       -0.09231673    0.00000000
                                                     2        0.1600000       -0.03278082    0.00000000
                                                     2        0.2800000        0.38423402    0.00000000
                                                     2        0.6000000       -1.09357590    0.00000000
                                                     2        1.1000000        1.53099489    0.00000000
                                                     2        3.0000000       -2.63300202    0.00000000
                                      P - F
                                                     0        0.0000010       -0.11638665    0.00000000
                                                     2        0.1200000        0.35468655    0.00000000
                                                     2        0.1600000       -0.59160923    0.00000000
                                                     2        0.3000000        0.49390547    0.00000000
                                                     2        0.6000000       -0.37949835    0.00000000
                                                     2        1.6000000        0.89304688    0.00000000
                                      D - F
                                                     0        0.0000010        0.05443663    0.00000000
                                                     2        0.1200000       -0.29679479    0.00000000
                                                     2        0.1400000        0.36849872    0.00000000
                                                     2        0.2400000        0.02793449    0.00000000
                                                     2        0.4000000       -0.46312857    0.00000000
                                                     2        0.7000000        0.97587598    0.00000000
                                                     2        1.5000000       -2.43431102    0.00000000
   11          1            1
                                      F and up 
                                                     0        0.0000010       -0.00007675    0.00000000
                                                     2        0.1200000        0.05352699    0.00000000
                                                     2        0.1400000       -0.25123645    0.00000000
                                                     2        0.1600000        0.32188106    0.00000000
                                                     2        0.2200000       -0.25206857    0.00000000
                                                     2        0.3000000        0.19290477    0.00000000
                                                     2        0.5000000       -0.10129770    0.00000000
                                                     2        0.9000000        0.00314995    0.00000000
                                                     2        1.5000000        0.18401192    0.00000000
                                      S - F
                                                     0        0.0000010        0.08065976    0.00000000
                                                     2        0.1200000       -0.09231673    0.00000000
                                                     2        0.1600000       -0.03278082    0.00000000
                                                     2        0.2800000        0.38423402    0.00000000
                                                     2        0.6000000       -1.09357590    0.00000000
                                                     2        1.1000000        1.53099489    0.00000000
                                                     2        3.0000000       -2.63300202    0.00000000
                                      P - F
                                                     0        0.0000010       -0.11638665    0.00000000
                                                     2        0.1200000        0.35468655    0.00000000
                                                     2        0.1600000       -0.59160923    0.00000000
                                                     2        0.3000000        0.49390547    0.00000000
                                                     2        0.6000000       -0.37949835    0.00000000
                                                     2        1.6000000        0.89304688    0.00000000
                                      D - F
                                                     0        0.0000010        0.05443663    0.00000000
                                                     2        0.1200000       -0.29679479    0.00000000
                                                     2        0.1400000        0.36849872    0.00000000
                                                     2        0.2400000        0.02793449    0.00000000
                                                     2        0.4000000       -0.46312857    0.00000000
                                                     2        0.7000000        0.97587598    0.00000000
                                                     2        1.5000000       -2.43431102    0.00000000
   12          8            8
                                      G and up 
                                                     0        0.0000010        0.00049668    0.00000000
                                                     2        0.1200000       -0.01803391    0.00000000
                                                     2        0.1400000        0.04014195    0.00000000
                                                     2        0.2000000       -0.02692147    0.00000000
                                                     2        0.2800000       -0.04241843    0.00000000
                                                     2        0.4000000        0.15412145    0.00000000
                                                     2        0.7000000       -0.40587006    0.00000000
                                                     2        1.1000000        1.75666647    0.00000000
                                      S - G
                                                     0        0.0000010       -0.01088195    0.00000000
                                                     2        0.1200000        0.09867335    0.00000000
                                                     2        0.2400000       -0.08484177    0.00000000
                                                     2        0.6000000       -1.39011554    0.00000000
                                                     2        2.5000000        1.36225910    0.00000000
                                      P - G
                                                     0        0.0000010        0.05874028    0.00000000
                                                     2        0.1200000       -0.11700340    0.00000000
                                                     2        0.1600000        0.08847775    0.00000000
                                                     2        0.3000000        0.04709907    0.00000000
                                                     2        1.2000000       -1.80388338    0.00000000
                                      D - G
                                                     0        0.0000010       -0.00541262    0.00000000
                                                     2        0.1200000       -0.26547906    0.00000000
                                                     2        0.1600000        1.04289661    0.00000000
                                                     2        0.2400000       -1.92800913    0.00000000
                                                     2        0.4000000        2.26691633    0.00000000
                                                     2        0.7000000       -1.97391482    0.00000000
                                      F - G
                                                     0        0.0000010       -0.02604870    0.00000000
                                                     2        0.1200000        0.37362552    0.00000000
                                                     2        0.1600000       -1.43526367    0.00000000
                                                     2        0.2200000        1.76778079    0.00000000
                                                     2        0.5000000       -1.90846303    0.00000000
   13          6            6
                                      G and up 
                                                     0        0.0000010       -0.00007288    0.00000000
                                                     2        0.1200000        0.10466671    0.00000000
                                                     2        0.1400000       -0.65716157    0.00000000
                                                     2        0.1600000        1.18890794    0.00000000
                                                     2        0.2000000       -1.25772850    0.00000000
                                                     2        0.2600000        1.01188378    0.00000000
                                                     2        0.4000000       -1.09380874    0.00000000
                                                     2        0.5000000        0.96944888    0.00000000
                                                     2        1.0000000       -0.79256938    0.00000000
                                                     2        3.0000000        1.06443276    0.00000000
                                      S - G
                                                     0        0.0000010       -0.00635295    0.00000000
                                                     2        0.1200000        0.16918955    0.00000000
                                                     2        0.1600000       -0.38862576    0.00000000
                                                     2        0.2800000        0.25638263    0.00000000
                                                     2        0.5000000        0.29628419    0.00000000
                                                     2        0.9000000       -0.28791512    0.00000000
                                      P - G
                                                     0        0.0000010       -0.04756931    0.00000000
                                                     2        0.1200000        0.28430375    0.00000000
                                                     2        0.1600000       -0.69640032    0.00000000
                                                     2        0.2600000        1.13005668    0.00000000
                                                     2        0.4000000       -1.31433324    0.00000000
                                                     2        0.7000000        0.91526469    0.00000000
                                      D - G
                                                     0        0.0000010       -0.11496411    0.00000000
                                                     2        0.1200000        0.16620776    0.00000000
                                                     2        0.1800000       -0.30959819    0.00000000
                                                     2        0.3000000        0.16621458    0.00000000
                                                     2        0.6000000        0.27350556    0.00000000
                                      F - G
                                                     0        0.0000010        0.12037550    0.00000000
                                                     2        0.1200000       -0.48737077    0.00000000
                                                     2        0.1400000        0.58315350    0.00000000
                                                     2        0.3000000        0.00005188    0.00000000
                                                     2        0.5000000       -1.16063549    0.00000000
                                                     2        0.8000000        2.09053308    0.00000000
   14          1            1
                                      F and up 
                                                     0        0.0000010       -0.00007675    0.00000000
                                                     2        0.1200000        0.05352699    0.00000000
                                                     2        0.1400000       -0.25123645    0.00000000
                                                     2        0.1600000        0.32188106    0.00000000
                                                     2        0.2200000       -0.25206857    0.00000000
                                                     2        0.3000000        0.19290477    0.00000000
                                                     2        0.5000000       -0.10129770    0.00000000
                                                     2        0.9000000        0.00314995    0.00000000
                                                     2        1.5000000        0.18401192    0.00000000
                                      S - F
                                                     0        0.0000010        0.08065976    0.00000000
                                                     2        0.1200000       -0.09231673    0.00000000
                                                     2        0.1600000       -0.03278082    0.00000000
                                                     2        0.2800000        0.38423402    0.00000000
                                                     2        0.6000000       -1.09357590    0.00000000
                                                     2        1.1000000        1.53099489    0.00000000
                                                     2        3.0000000       -2.63300202    0.00000000
                                      P - F
                                                     0        0.0000010       -0.11638665    0.00000000
                                                     2        0.1200000        0.35468655    0.00000000
                                                     2        0.1600000       -0.59160923    0.00000000
                                                     2        0.3000000        0.49390547    0.00000000
                                                     2        0.6000000       -0.37949835    0.00000000
                                                     2        1.6000000        0.89304688    0.00000000
                                      D - F
                                                     0        0.0000010        0.05443663    0.00000000
                                                     2        0.1200000       -0.29679479    0.00000000
                                                     2        0.1400000        0.36849872    0.00000000
                                                     2        0.2400000        0.02793449    0.00000000
                                                     2        0.4000000       -0.46312857    0.00000000
                                                     2        0.7000000        0.97587598    0.00000000
                                                     2        1.5000000       -2.43431102    0.00000000
   15          1            1
                                      F and up 
                                                     0        0.0000010       -0.00007675    0.00000000
                                                     2        0.1200000        0.05352699    0.00000000
                                                     2        0.1400000       -0.25123645    0.00000000
                                                     2        0.1600000        0.32188106    0.00000000
                                                     2        0.2200000       -0.25206857    0.00000000
                                                     2        0.3000000        0.19290477    0.00000000
                                                     2        0.5000000       -0.10129770    0.00000000
                                                     2        0.9000000        0.00314995    0.00000000
                                                     2        1.5000000        0.18401192    0.00000000
                                      S - F
                                                     0        0.0000010        0.08065976    0.00000000
                                                     2        0.1200000       -0.09231673    0.00000000
                                                     2        0.1600000       -0.03278082    0.00000000
                                                     2        0.2800000        0.38423402    0.00000000
                                                     2        0.6000000       -1.09357590    0.00000000
                                                     2        1.1000000        1.53099489    0.00000000
                                                     2        3.0000000       -2.63300202    0.00000000
                                      P - F
                                                     0        0.0000010       -0.11638665    0.00000000
                                                     2        0.1200000        0.35468655    0.00000000
                                                     2        0.1600000       -0.59160923    0.00000000
                                                     2        0.3000000        0.49390547    0.00000000
                                                     2        0.6000000       -0.37949835    0.00000000
                                                     2        1.6000000        0.89304688    0.00000000
                                      D - F
                                                     0        0.0000010        0.05443663    0.00000000
                                                     2        0.1200000       -0.29679479    0.00000000
                                                     2        0.1400000        0.36849872    0.00000000
                                                     2        0.2400000        0.02793449    0.00000000
                                                     2        0.4000000       -0.46312857    0.00000000
                                                     2        0.7000000        0.97587598    0.00000000
                                                     2        1.5000000       -2.43431102    0.00000000
   16          1            1
                                      F and up 
                                                     0        0.0000010       -0.00007675    0.00000000
                                                     2        0.1200000        0.05352699    0.00000000
                                                     2        0.1400000       -0.25123645    0.00000000
                                                     2        0.1600000        0.32188106    0.00000000
                                                     2        0.2200000       -0.25206857    0.00000000
                                                     2        0.3000000        0.19290477    0.00000000
                                                     2        0.5000000       -0.10129770    0.00000000
                                                     2        0.9000000        0.00314995    0.00000000
                                                     2        1.5000000        0.18401192    0.00000000
                                      S - F
                                                     0        0.0000010        0.08065976    0.00000000
                                                     2        0.1200000       -0.09231673    0.00000000
                                                     2        0.1600000       -0.03278082    0.00000000
                                                     2        0.2800000        0.38423402    0.00000000
                                                     2        0.6000000       -1.09357590    0.00000000
                                                     2        1.1000000        1.53099489    0.00000000
                                                     2        3.0000000       -2.63300202    0.00000000
                                      P - F
                                                     0        0.0000010       -0.11638665    0.00000000
                                                     2        0.1200000        0.35468655    0.00000000
                                                     2        0.1600000       -0.59160923    0.00000000
                                                     2        0.3000000        0.49390547    0.00000000
                                                     2        0.6000000       -0.37949835    0.00000000
                                                     2        1.6000000        0.89304688    0.00000000
                                      D - F
                                                     0        0.0000010        0.05443663    0.00000000
                                                     2        0.1200000       -0.29679479    0.00000000
                                                     2        0.1400000        0.36849872    0.00000000
                                                     2        0.2400000        0.02793449    0.00000000
                                                     2        0.4000000       -0.46312857    0.00000000
                                                     2        0.7000000        0.97587598    0.00000000
                                                     2        1.5000000       -2.43431102    0.00000000
 ======================================================================================================
   270 basis functions,   464 primitive gaussians,   288 cartesian basis functions
    33 alpha electrons       33 beta electrons
       nuclear repulsion energy       425.1875219994 Hartrees.
 NAtoms=   16 NActive=   16 NUniq=   15 SFac= 1.14D+00 NAtFMM=   60 NAOKFM=F Big=F
   2 Symmetry operations used in ECPInt.
 ECPInt:  NShTT=    6786 NPrTT=   33322 LenC2=    6753 LenP2D=   24745.
 LDataN:  DoStor=T MaxTD1= 6 Len=  172
 Initial guess from the checkpoint file:  "BDE49_expt_1398_mol1.chk"
 B after Tr=    -0.000000   -0.000000    0.000000
         Rot=    1.000000   -0.000000   -0.000000    0.000000 Ang=   0.00 deg.
 Initial guess orbital symmetries:
       Occupied  (A') (A') (A') (A') (A') (A') (A') (A') (A') (A')
                 (A') (A') (A') (A') (A') (A') (A') (A') (A') (A")
                 (A') (A') (A") (A') (A') (A') (A') (A") (A') (A')
                 (A") (A") (A")
       Virtual   (A') (A') (A') (A') (A") (A') (A') (A') (A") (A')
                 (A") (A") (A') (A") (A') (A') (A') (A") (A') (A')
                 (A") (A') (A') (A') (A') (A") (A") (A") (A') (A')
                 (A') (A') (A') (A') (A') (A") (A') (A") (A') (A')
                 (A') (A') (A") (A') (A') (A") (A') (A') (A') (A')
                 (A") (A") (A') (A') (A') (A') (A') (A") (A') (A")
                 (A") (A') (A') (A') (A") (A') (A') (A") (A') (A')
                 (A') (A") (A") (A') (A') (A') (A') (A") (A') (A')
                 (A") (A') (A') (A') (A") (A') (A') (A') (A') (A")
                 (A') (A") (A') (A') (A') (A") (A') (A") (A') (A")
                 (A') (A') (A') (A") (A') (A") (A') (A") (A") (A")
                 (A') (A") (A') (A") (A') (A') (A") (A') (A') (A')
                 (A") (A') (A') (A") (A") (A') (A') (A') (A') (A")
                 (A') (A") (A') (A') (A") (A') (A') (A") (A") (A')
                 (A') (A') (A") (A') (A') (A") (A') (A') (A') (A')
                 (A") (A') (A") (A") (A') (A') (A") (A") (A') (A')
                 (A') (A") (A') (A') (A") (A") (A') (A") (A') (A')
                 (A") (A') (A') (A") (A') (A') (A") (A') (A') (A")
                 (A') (A") (A') (A') (A") (A') (A") (A') (A') (A")
                 (A') (A') (A') (A") (A") (A') (A') (A') (A') (A')
                 (A') (A") (A") (A') (A") (A') (A') (A') (A') (A')
                 (A') (A") (A') (A') (A') (A') (A') (A') (A') (A')
                 (A') (A') (A') (A') (A') (A") (A') (A') (A") (A')
                 (A') (A') (A') (A") (A") (A') (A')
 >>>>>>>>>> Convergence criterion not met.
 SCF Done:  E(RHF) =  -443.931538354     A.U. after    2 cycles
            NFock=  1  Conv=0.31D-01     -V/T= 2.0043

 **********************************************************************

            Population analysis using the SCF Density.

 **********************************************************************

 Orbital symmetries:
       Occupied  (A') (A') (A') (A') (A') (A') (A') (A') (A') (A')
                 (A') (A') (A') (A') (A') (A') (A') (A') (A') (A')
                 (A") (A') (A") (A') (A') (A') (A') (A") (A') (A')
                 (A") (A") (A")
       Virtual   (A') (A') (A') (A') (A") (A') (A') (A') (A") (A')
                 (A") (A") (A') (A") (A') (A') (A') (A') (A") (A')
                 (A") (A') (A') (A') (A') (A") (A") (A") (A') (A')
                 (A') (A') (A') (A') (A') (A") (A') (A") (A') (A')
                 (A') (A') (A") (A') (A') (A') (A") (A') (A') (A')
                 (A") (A") (A') (A') (A') (A') (A') (A") (A') (A")
                 (A") (A') (A') (A') (A") (A') (A') (A") (A') (A')
                 (A') (A") (A") (A') (A') (A') (A') (A") (A') (A')
                 (A") (A') (A') (A') (A") (A') (A') (A') (A') (A")
                 (A') (A") (A') (A') (A') (A") (A') (A') (A") (A')
                 (A") (A') (A') (A") (A') (A") (A') (A") (A") (A")
                 (A') (A") (A') (A") (A') (A') (A") (A') (A') (A')
                 (A") (A') (A') (A") (A') (A") (A') (A') (A') (A")
                 (A') (A") (A') (A") (A') (A') (A') (A") (A") (A')
                 (A') (A') (A") (A') (A') (A") (A') (A') (A') (A")
                 (A') (A") (A') (A") (A') (A") (A') (A") (A') (A')
                 (A') (A") (A') (A') (A') (A") (A") (A") (A') (A')
                 (A") (A') (A') (A") (A') (A') (A") (A') (A') (A")
                 (A") (A') (A') (A") (A') (A') (A") (A') (A') (A")
                 (A') (A') (A') (A") (A") (A') (A') (A') (A') (A')
                 (A') (A") (A") (A') (A") (A') (A') (A') (A') (A')
                 (A') (A') (A") (A') (A') (A') (A') (A') (A') (A')
                 (A') (A') (A') (A') (A') (A') (A") (A') (A") (A')
                 (A') (A') (A') (A") (A") (A') (A')
 The electronic state is 1-A'.
 Alpha  occ. eigenvalues --  -26.47590 -20.58226 -11.34115 -11.32257 -11.30295
 Alpha  occ. eigenvalues --  -11.26073 -11.24786 -11.24230 -11.23972  -1.60420
 Alpha  occ. eigenvalues --   -1.50708  -1.16264  -1.03413  -1.03074  -0.95730
 Alpha  occ. eigenvalues --   -0.85352  -0.84332  -0.75275  -0.71770  -0.69234
 Alpha  occ. eigenvalues --   -0.67380  -0.67302  -0.66254  -0.63866  -0.61901
 Alpha  occ. eigenvalues --   -0.58300  -0.55727  -0.53931  -0.52948  -0.50855
 Alpha  occ. eigenvalues --   -0.47567  -0.35727  -0.32831
 Alpha virt. eigenvalues --    0.03323   0.03673   0.04181   0.05079   0.05227
 Alpha virt. eigenvalues --    0.05699   0.08258   0.09845   0.10233   0.11424
 Alpha virt. eigenvalues --    0.11444   0.12597   0.13481   0.13510   0.13975
 Alpha virt. eigenvalues --    0.14646   0.15517   0.15788   0.15822   0.16306
 Alpha virt. eigenvalues --    0.17104   0.17241   0.17522   0.17929   0.18705
 Alpha virt. eigenvalues --    0.19100   0.19840   0.20648   0.21161   0.22286
 Alpha virt. eigenvalues --    0.23685   0.25250   0.26033   0.27661   0.29105
 Alpha virt. eigenvalues --    0.29562   0.30311   0.30833   0.31610   0.32538
 Alpha virt. eigenvalues --    0.33246   0.34225   0.34985   0.35217   0.36047
 Alpha virt. eigenvalues --    0.37372   0.37669   0.38822   0.39083   0.39812
 Alpha virt. eigenvalues --    0.40040   0.40788   0.41250   0.42011   0.42303
 Alpha virt. eigenvalues --    0.43077   0.44223   0.45410   0.46206   0.47486
 Alpha virt. eigenvalues --    0.49060   0.49826   0.50451   0.50879   0.53434
 Alpha virt. eigenvalues --    0.53761   0.54156   0.55093   0.56317   0.56392
 Alpha virt. eigenvalues --    0.59443   0.60364   0.60559   0.61229   0.61592
 Alpha virt. eigenvalues --    0.62867   0.62957   0.63438   0.64533   0.65485
 Alpha virt. eigenvalues --    0.66555   0.67501   0.67965   0.68803   0.69049
 Alpha virt. eigenvalues --    0.69497   0.72232   0.73283   0.73680   0.74255
 Alpha virt. eigenvalues --    0.75068   0.75975   0.76179   0.77849   0.78792
 Alpha virt. eigenvalues --    0.80005   0.80265   0.82508   0.82628   0.86496
 Alpha virt. eigenvalues --    0.86890   0.87973   0.88951   0.90553   0.91703
 Alpha virt. eigenvalues --    0.92689   0.93475   0.93590   0.94220   0.96943
 Alpha virt. eigenvalues --    0.97572   0.98618   0.99034   0.99264   1.00427
 Alpha virt. eigenvalues --    1.03015   1.05316   1.05806   1.06395   1.08206
 Alpha virt. eigenvalues --    1.09933   1.15540   1.16998   1.18010   1.18379
 Alpha virt. eigenvalues --    1.19097   1.20931   1.23286   1.28453   1.36041
 Alpha virt. eigenvalues --    1.36419   1.38640   1.41596   1.43960   1.44385
 Alpha virt. eigenvalues --    1.47044   1.49265   1.50466   1.52236   1.54784
 Alpha virt. eigenvalues --    1.56717   1.57902   1.59358   1.59451   1.62752
 Alpha virt. eigenvalues --    1.63366   1.64101   1.64305   1.65836   1.67440
 Alpha virt. eigenvalues --    1.68236   1.69283   1.71080   1.72495   1.74409
 Alpha virt. eigenvalues --    1.74880   1.76111   1.76326   1.76629   1.81336
 Alpha virt. eigenvalues --    1.82560   1.85085   1.86722   1.89451   1.92003
 Alpha virt. eigenvalues --    1.92727   1.94309   1.94724   1.94944   1.95679
 Alpha virt. eigenvalues --    1.98273   1.99526   2.01555   2.03352   2.08239
 Alpha virt. eigenvalues --    2.10207   2.12242   2.13328   2.13796   2.15315
 Alpha virt. eigenvalues --    2.18066   2.19427   2.21453   2.21499   2.22323
 Alpha virt. eigenvalues --    2.24475   2.27529   2.30806   2.31869   2.32223
 Alpha virt. eigenvalues --    2.34050   2.34545   2.36639   2.38993   2.40410
 Alpha virt. eigenvalues --    2.41770   2.43281   2.44549   2.50044   2.54944
 Alpha virt. eigenvalues --    2.58669   2.59708   2.65909   2.68938   2.69339
 Alpha virt. eigenvalues --    2.73713   2.78334   2.83187   2.84583   2.87199
 Alpha virt. eigenvalues --    2.94281   2.99001   3.01747   3.01919   3.05603
 Alpha virt. eigenvalues --    3.12612   3.16108   3.20741   3.22469   3.28502
 Alpha virt. eigenvalues --    3.33721   3.42226   3.47477   3.58916   3.78613
 Alpha virt. eigenvalues --    3.88330   3.89161   3.98171   3.99494   4.23069
 Alpha virt. eigenvalues --    4.28023   4.80491   5.23766   5.25343   5.25795
 Alpha virt. eigenvalues --    5.38657   5.45063
          Condensed to atoms (all electrons):
 Mulliken charges:
               1
     1  C   -0.148155
     2  C    1.376078
     3  C   -0.416819
     4  C    0.726300
     5  C   -0.159601
     6  C    2.041001
     7  H   -0.184384
     8  F   -1.008236
     9  H   -0.365305
    10  H   -0.206122
    11  H   -0.259562
    12  O   -1.850558
    13  C    0.115831
    14  H   -0.040026
    15  H    0.189779
    16  H    0.189779
 Sum of Mulliken charges =  -0.00000
 Mulliken charges with hydrogens summed into heavy atoms:
               1
     1  C   -0.332539
     2  C    1.376078
     3  C   -0.782125
     4  C    0.520178
     5  C   -0.419163
     6  C    2.041001
     8  F   -1.008236
    12  O   -1.850558
    13  C    0.455363
 Electronic spatial extent (au):  <R**2>=           1243.0605
 Charge=              0.0000 electrons
 Dipole moment (field-independent basis, Debye):
    X=              1.4186    Y=             -0.0187    Z=             -0.0000  Tot=              1.4187

 Test job not archived.
 1\1\GINC-SE329\SP\RHF\Aug-CC-pVDZ\C7H7F1O1\OHZDE\08-Apr-2025\0\\#t hf 
 aug-cc-pvdz iop(5/13=1,5/36=2,99/5=2) pseudo=read geom=check guess=(re
 ad,tcheck) scf=(maxcycle=1)\\title\\0,1\C,0,-1.975058,-0.649765,0.\C,0
 ,-1.377669,0.596898,0.\C,0,0.,0.779352,0.\C,0,-1.137536,-1.768155,0.\C
 ,0,0.242359,-1.631982,0.\C,0,0.81798,-0.353619,0.\H,0,-3.053593,-0.734
 657,0.\F,0,-2.158717,1.701883,0.\H,0,0.390838,1.786622,0.\H,0,-1.57469
 2,-2.759854,0.\H,0,0.898285,-2.493074,0.\O,0,2.177408,-0.312547,0.\C,0
 ,2.819005,0.955301,0.\H,0,3.887549,0.747352,0.\H,0,2.56316,1.534437,0.
 894234\H,0,2.56316,1.534437,-0.894234\\Version=ES64L-G16RevC.01\State=
 1-A'\HF=-443.9315384\RMSD=3.076e-02\Dipole=0.5581056,-0.0073675,0.\Qua
 drupole=1.9886419,1.5942862,-3.5829281,6.0000451,0.,0.\PG=CS [SG(C7H5F
 1O1),X(H2)]\\@


 GETTING A SIMPLE ANSWER FROM A PROFESSOR IS LIKE
 GETTING A THIMBLE OF WATER FROM A FIRE HYDRANT.
     -- PROF. LEN SHAPIRO, NDSU
 Job cpu time:       0 days  0 hours  1 minutes 18.6 seconds.
 Elapsed time:       0 days  0 hours  0 minutes  5.9 seconds.
 File lengths (MBytes):  RWF=     14 Int=      0 D2E=      0 Chk=     10 Scr=      1
 Normal termination of Gaussian 16 at Tue Apr  8 22:42:20 2025.
