 Entering Gaussian System, Link 0=g16
 Input=BDE49_nonexpt_543_mol1.gjf
 Output=BDE49_nonexpt_543_mol1.log
 Initial command:
 /arc/software/Gaussian/g16.c01/l1.exe "/tmp/slurm/4854325/Gau-1627723.inp" -scrdir="/tmp/slurm/4854325/"
 Entering Link 1 = /arc/software/Gaussian/g16.c01/l1.exe PID=   1627724.
  
 Copyright (c) 1988-2019, Gaussian, Inc.  All Rights Reserved.
  
 This is part of the Gaussian(R) 16 program.  It is based on
 the Gaussian(R) 09 system (copyright 2009, Gaussian, Inc.),
 the Gaussian(R) 03 system (copyright 2003, Gaussian, Inc.),
 the Gaussian(R) 98 system (copyright 1998, Gaussian, Inc.),
 the Gaussian(R) 94 system (copyright 1995, Gaussian, Inc.),
 the Gaussian 92(TM) system (copyright 1992, Gaussian, Inc.),
 the Gaussian 90(TM) system (copyright 1990, Gaussian, Inc.),
 the Gaussian 88(TM) system (copyright 1988, Gaussian, Inc.),
 the Gaussian 86(TM) system (copyright 1986, Carnegie Mellon
 University), and the Gaussian 82(TM) system (copyright 1983,
 Carnegie Mellon University). Gaussian is a federally registered
 trademark of Gaussian, Inc.
  
 This software contains proprietary and confidential information,
 including trade secrets, belonging to Gaussian, Inc.
  
 This software is provided under written license and may be
 used, copied, transmitted, or stored only in accord with that
 written license.
  
 The following legend is applicable only to US Government
 contracts under FAR:
  
                    RESTRICTED RIGHTS LEGEND
  
 Use, reproduction and disclosure by the US Government is
 subject to restrictions as set forth in subparagraphs (a)
 and (c) of the Commercial Computer Software - Restricted
 Rights clause in FAR 52.227-19.
  
 Gaussian, Inc.
 340 Quinnipiac St., Bldg. 40, Wallingford CT 06492
  
  
 ---------------------------------------------------------------
 Warning -- This program may not be used in any manner that
 competes with the business of Gaussian, Inc. or will provide
 assistance to any competitor of Gaussian, Inc.  The licensee
 of this program is prohibited from giving any competitor of
 Gaussian, Inc. access to this program.  By using this program,
 the user acknowledges that Gaussian, Inc. is engaged in the
 business of creating and licensing software in the field of
 computational chemistry and represents and warrants to the
 licensee that it is not a competitor of Gaussian, Inc. and that
 it will not use this program in any manner prohibited above.
 ---------------------------------------------------------------
  

 Cite this work as:
 Gaussian 16, Revision C.01,
 M. J. Frisch, G. W. Trucks, H. B. Schlegel, G. E. Scuseria, 
 M. A. Robb, J. R. Cheeseman, G. Scalmani, V. Barone, 
 G. A. Petersson, H. Nakatsuji, X. Li, M. Caricato, A. V. Marenich, 
 J. Bloino, B. G. Janesko, R. Gomperts, B. Mennucci, H. P. Hratchian, 
 J. V. Ortiz, A. F. Izmaylov, J. L. Sonnenberg, D. Williams-Young, 
 F. Ding, F. Lipparini, F. Egidi, J. Goings, B. Peng, A. Petrone, 
 T. Henderson, D. Ranasinghe, V. G. Zakrzewski, J. Gao, N. Rega, 
 G. Zheng, W. Liang, M. Hada, M. Ehara, K. Toyota, R. Fukuda, 
 J. Hasegawa, M. Ishida, T. Nakajima, Y. Honda, O. Kitao, H. Nakai, 
 T. Vreven, K. Throssell, J. A. Montgomery, Jr., J. E. Peralta, 
 F. Ogliaro, M. J. Bearpark, J. J. Heyd, E. N. Brothers, K. N. Kudin, 
 V. N. Staroverov, T. A. Keith, R. Kobayashi, J. Normand, 
 K. Raghavachari, A. P. Rendell, J. C. Burant, S. S. Iyengar, 
 J. Tomasi, M. Cossi, J. M. Millam, M. Klene, C. Adamo, R. Cammi, 
 J. W. Ochterski, R. L. Martin, K. Morokuma, O. Farkas, 
 J. B. Foresman, and D. J. Fox, Gaussian, Inc., Wallingford CT, 2019.
 
 ******************************************
 Gaussian 16:  ES64L-G16RevC.01  3-Jul-2019
                 9-Apr-2025 
 ******************************************
 %nprocs=16
 Will use up to   16 processors via shared memory.
 %mem=30GB
 %chk=BDE49_nonexpt_543_mol1.chk
 ----------------------------------------------------------------------
 #t hf aug-cc-pvdz symm=none int=(grid=ultrafine) guess=(read,tcheck) s
 table=(opt,rrhf)
 ----------------------------------------------------------------------
 -----
 title
 -----
 Symbolic Z-matrix:
 Charge =  0 Multiplicity = 1
 H                     2.86241   0.00035   1.04302 
 H                     2.86232  -0.0004   -1.04316 
 N                     0.92106   0.00002   0.00002 
 C                    -1.12785  -1.28717  -0.00005 
 C                    -0.33092   0.        0.00006 
 C                    -1.12789   1.28714   0.00004 
 B                     2.27834   0.00003  -0.00004 
 H                    -0.46604  -2.1519   -0.00011 
 H                    -1.77794  -1.33089  -0.88013 
 H                    -1.77794  -1.33102   0.88003 
 H                    -0.46611   2.1519    0.00006 
 H                    -1.778     1.33091   0.88011 
 H                    -1.77796   1.33091  -0.88005 
 
                    Distance matrix (angstroms):
                    1          2          3          4          5
     1  H    0.000000
     2  H    2.086183   0.000000
     3  N    2.203791   2.203793   0.000000
     4  C    4.320633   4.320334   2.419687   0.000000
     5  C    3.359332   3.359325   1.251978   1.513903   0.000000
     6  C    4.320433   4.320624   2.419687   2.574312   1.513903
     7  B    1.195460   1.195460   1.357279   3.641289   2.609257
     8  H    4.098652   4.098161   2.560242   1.088921   2.156142
     9  H    5.196495   4.829986   3.135376   1.095022   2.154037
    10  H    4.830318   5.196267   3.135392   1.095021   2.154026
    11  H    4.098297   4.098679   2.560244   3.502155   2.156144
    12  H    4.830151   5.196528   3.135404   2.837553   2.154032
    13  H    5.196314   4.830239   3.135367   2.837496   2.154033
                    6          7          8          9         10
     6  C    0.000000
     7  B    3.641302   0.000000
     8  H    3.502154   3.487469   0.000000
     9  H    2.837493   4.358816   1.780326   0.000000
    10  H    2.837555   4.358853   1.780325   1.760156   0.000000
    11  H    1.088922   3.487494   4.303805   3.824322   3.824392
    12  H    1.095022   4.358879   3.824396   3.191177   2.661930
    13  H    1.095022   4.358816   3.824318   2.661799   3.191196
                   11         12         13
    11  H    0.000000
    12  H    1.780326   0.000000
    13  H    1.780326   1.760155   0.000000
 Symmetry turned off by external request.
 Rotational constants (GHZ):           8.2104960           3.7276489           2.7098417
   187 basis functions,   303 primitive gaussians,   197 cartesian basis functions
    19 alpha electrons       19 beta electrons
       nuclear repulsion energy       158.6942941321 Hartrees.
 NAtoms=   13 NActive=   13 NUniq=   13 SFac= 1.00D+00 NAtFMM=   60 NAOKFM=F Big=F
 ExpMin= 2.38D-02 ExpMax= 9.05D+03 ExpMxC= 3.09D+02 IAcc=3 IRadAn=         5 AccDes= 0.00D+00
 Harris functional with IExCor=  205 and IRadAn=       5 diagonalized for initial guess.
 HarFok:  IExCor=  205 AccDes= 0.00D+00 IRadAn=         5 IDoV= 1 UseB2=F ITyADJ=14
 ICtDFT=  3500011 ScaDFX=  1.000000  1.000000  1.000000  1.000000
 FoFCou: FMM=F IPFlag=           0 FMFlag=      100000 FMFlg1=           0
         NFxFlg=           0 DoJE=T BraDBF=F KetDBF=T FulRan=T
         wScrn=  0.000000 ICntrl=       500 IOpCl=  0 I1Cent=   200000004 NGrid=           0
         NMat0=    1 NMatS0=      1 NMatT0=    0 NMatD0=    1 NMtDS0=    0 NMtDT0=    0
 Symmetry not used in FoFCou.
 SCF Done:  E(RHF) =  -197.425445508     A.U. after   13 cycles
            NFock= 13  Conv=0.28D-08     -V/T= 2.0010

 **********************************************************************

            Population analysis using the SCF Density.

 **********************************************************************

 Alpha  occ. eigenvalues --  -15.55871 -11.31428 -11.24264 -11.24261  -7.58602
 Alpha  occ. eigenvalues --   -1.22814  -1.02419  -0.96261  -0.82819  -0.67103
 Alpha  occ. eigenvalues --   -0.61948  -0.61624  -0.57988  -0.55492  -0.54974
 Alpha  occ. eigenvalues --   -0.52803  -0.51781  -0.39151  -0.38548
 Alpha virt. eigenvalues --    0.03174   0.04422   0.04593   0.05163   0.06308
 Alpha virt. eigenvalues --    0.06679   0.06782   0.07594   0.07692   0.09193
 Alpha virt. eigenvalues --    0.11571   0.12646   0.13631   0.14387   0.14759
 Alpha virt. eigenvalues --    0.15554   0.15700   0.15940   0.16610   0.16633
 Alpha virt. eigenvalues --    0.16979   0.17978   0.18685   0.20248   0.21396
 Alpha virt. eigenvalues --    0.23838   0.25237   0.27668   0.27759   0.28617
 Alpha virt. eigenvalues --    0.29838   0.29885   0.30930   0.32225   0.35397
 Alpha virt. eigenvalues --    0.35832   0.36595   0.38061   0.38574   0.38923
 Alpha virt. eigenvalues --    0.40944   0.43099   0.43214   0.43898   0.44275
 Alpha virt. eigenvalues --    0.46604   0.47133   0.47293   0.48914   0.49324
 Alpha virt. eigenvalues --    0.50237   0.50894   0.51777   0.53884   0.53956
 Alpha virt. eigenvalues --    0.54017   0.54036   0.56786   0.57697   0.59928
 Alpha virt. eigenvalues --    0.60115   0.60581   0.61048   0.62031   0.62931
 Alpha virt. eigenvalues --    0.64898   0.65017   0.66140   0.67797   0.68033
 Alpha virt. eigenvalues --    0.68383   0.69578   0.71834   0.73357   0.73805
 Alpha virt. eigenvalues --    0.76736   0.77505   0.78457   0.80332   0.81179
 Alpha virt. eigenvalues --    0.81443   0.82211   0.83391   0.87197   0.88382
 Alpha virt. eigenvalues --    0.88541   0.90544   0.96033   0.96550   1.02936
 Alpha virt. eigenvalues --    1.04222   1.04255   1.08591   1.13366   1.14433
 Alpha virt. eigenvalues --    1.15428   1.17502   1.18815   1.20719   1.20758
 Alpha virt. eigenvalues --    1.22820   1.24087   1.28415   1.29908   1.30312
 Alpha virt. eigenvalues --    1.40206   1.42594   1.46670   1.48216   1.48289
 Alpha virt. eigenvalues --    1.50156   1.59061   1.64530   1.71729   1.74056
 Alpha virt. eigenvalues --    1.75283   1.75732   1.76589   1.77894   1.81492
 Alpha virt. eigenvalues --    1.84664   1.86482   1.89551   1.92078   1.92731
 Alpha virt. eigenvalues --    1.93995   1.94273   2.00261   2.00761   2.07117
 Alpha virt. eigenvalues --    2.08776   2.12350   2.15936   2.19914   2.20978
 Alpha virt. eigenvalues --    2.23224   2.26198   2.29650   2.30010   2.30203
 Alpha virt. eigenvalues --    2.30708   2.32498   2.43435   2.43999   2.44714
 Alpha virt. eigenvalues --    2.53981   2.55903   2.59915   2.59988   2.67798
 Alpha virt. eigenvalues --    2.68927   2.72545   2.73609   2.76097   2.77596
 Alpha virt. eigenvalues --    2.81846   2.82514   2.88049   2.89473   2.94658
 Alpha virt. eigenvalues --    3.02830   3.06613   3.15629   3.20906   3.23284
 Alpha virt. eigenvalues --    3.24341   3.68600   4.12084
          Condensed to atoms (all electrons):
 Mulliken charges:
               1
     1  H    0.305354
     2  H    0.305338
     3  N   -0.476613
     4  C    0.499359
     5  C   -0.092073
     6  C    0.499354
     7  B   -0.843367
     8  H   -0.166215
     9  H    0.033758
    10  H    0.033781
    11  H   -0.166215
    12  H    0.033776
    13  H    0.033763
 Sum of Mulliken charges =  -0.00000
 Mulliken charges with hydrogens summed into heavy atoms:
               1
     3  N   -0.476613
     4  C    0.400683
     5  C   -0.092073
     6  C    0.400679
     7  B   -0.232675
 Electronic spatial extent (au):  <R**2>=            499.2284
 Charge=             -0.0000 electrons
 Dipole moment (field-independent basis, Debye):
    X=             -3.0236    Y=              0.0000    Z=             -0.0000  Tot=              3.0236
 NROrb=    187 NOA=    19 NOB=    19 NVA=   168 NVB=   168

 **** Warning!!: The largest alpha MO coefficient is  0.51385925D+02

    12 initial guesses have been made.
 Iteration     1 Dimension    12 NMult     0 NNew     12
 Iteration     2 Dimension    24 NMult    12 NNew     12
 Iteration     3 Dimension    27 NMult    24 NNew      3
 Iteration     4 Dimension    30 NMult    27 NNew      3
 Iteration     5 Dimension    33 NMult    30 NNew      3
 Iteration     6 Dimension    36 NMult    33 NNew      3
 ***********************************************************************
 Stability analysis using <AA,BB:AA,BB> singles matrix:
 ***********************************************************************
 Ground to excited state transition densities written to RWF  633

 Eigenvectors of the stability matrix:
 
 Excited state symmetry could not be determined.
 Eigenvector   1:      Singlet-?Sym  Eigenvalue= 0.2063535  <S**2>=0.000
      19 -> 25         0.14467
      19 -> 31         0.28243
      19 -> 33         0.46227
      19 -> 41        -0.35825
 The wavefunction is stable under the perturbations considered.
 The wavefunction is already stable.

 **********************************************************************

            Population analysis using the SCF Density.

 **********************************************************************

 Alpha  occ. eigenvalues --  -15.55871 -11.31428 -11.24264 -11.24261  -7.58602
 Alpha  occ. eigenvalues --   -1.22814  -1.02419  -0.96261  -0.82819  -0.67103
 Alpha  occ. eigenvalues --   -0.61948  -0.61624  -0.57988  -0.55492  -0.54974
 Alpha  occ. eigenvalues --   -0.52803  -0.51781  -0.39151  -0.38548
 Alpha virt. eigenvalues --    0.03174   0.04422   0.04593   0.05163   0.06308
 Alpha virt. eigenvalues --    0.06679   0.06782   0.07594   0.07692   0.09193
 Alpha virt. eigenvalues --    0.11571   0.12646   0.13631   0.14387   0.14759
 Alpha virt. eigenvalues --    0.15554   0.15700   0.15940   0.16610   0.16633
 Alpha virt. eigenvalues --    0.16979   0.17978   0.18685   0.20248   0.21396
 Alpha virt. eigenvalues --    0.23838   0.25237   0.27668   0.27759   0.28617
 Alpha virt. eigenvalues --    0.29838   0.29885   0.30930   0.32225   0.35397
 Alpha virt. eigenvalues --    0.35832   0.36595   0.38061   0.38574   0.38923
 Alpha virt. eigenvalues --    0.40944   0.43099   0.43214   0.43898   0.44275
 Alpha virt. eigenvalues --    0.46604   0.47133   0.47293   0.48914   0.49324
 Alpha virt. eigenvalues --    0.50237   0.50894   0.51777   0.53884   0.53956
 Alpha virt. eigenvalues --    0.54017   0.54036   0.56786   0.57697   0.59928
 Alpha virt. eigenvalues --    0.60115   0.60581   0.61048   0.62031   0.62931
 Alpha virt. eigenvalues --    0.64898   0.65017   0.66140   0.67797   0.68033
 Alpha virt. eigenvalues --    0.68383   0.69578   0.71834   0.73357   0.73805
 Alpha virt. eigenvalues --    0.76736   0.77505   0.78457   0.80332   0.81179
 Alpha virt. eigenvalues --    0.81443   0.82211   0.83391   0.87197   0.88382
 Alpha virt. eigenvalues --    0.88541   0.90544   0.96033   0.96550   1.02936
 Alpha virt. eigenvalues --    1.04222   1.04255   1.08591   1.13366   1.14433
 Alpha virt. eigenvalues --    1.15428   1.17502   1.18815   1.20719   1.20758
 Alpha virt. eigenvalues --    1.22820   1.24087   1.28415   1.29908   1.30312
 Alpha virt. eigenvalues --    1.40206   1.42594   1.46670   1.48216   1.48289
 Alpha virt. eigenvalues --    1.50156   1.59061   1.64530   1.71729   1.74056
 Alpha virt. eigenvalues --    1.75283   1.75732   1.76589   1.77894   1.81492
 Alpha virt. eigenvalues --    1.84664   1.86482   1.89551   1.92078   1.92731
 Alpha virt. eigenvalues --    1.93995   1.94273   2.00261   2.00761   2.07117
 Alpha virt. eigenvalues --    2.08776   2.12350   2.15936   2.19914   2.20978
 Alpha virt. eigenvalues --    2.23224   2.26198   2.29650   2.30010   2.30203
 Alpha virt. eigenvalues --    2.30708   2.32498   2.43435   2.43999   2.44714
 Alpha virt. eigenvalues --    2.53981   2.55903   2.59915   2.59988   2.67798
 Alpha virt. eigenvalues --    2.68927   2.72545   2.73609   2.76097   2.77596
 Alpha virt. eigenvalues --    2.81846   2.82514   2.88049   2.89473   2.94658
 Alpha virt. eigenvalues --    3.02830   3.06613   3.15629   3.20906   3.23284
 Alpha virt. eigenvalues --    3.24341   3.68600   4.12084
          Condensed to atoms (all electrons):
 Mulliken charges:
               1
     1  H    0.305354
     2  H    0.305338
     3  N   -0.476613
     4  C    0.499359
     5  C   -0.092073
     6  C    0.499354
     7  B   -0.843367
     8  H   -0.166215
     9  H    0.033758
    10  H    0.033781
    11  H   -0.166215
    12  H    0.033776
    13  H    0.033763
 Sum of Mulliken charges =  -0.00000
 Mulliken charges with hydrogens summed into heavy atoms:
               1
     3  N   -0.476613
     4  C    0.400683
     5  C   -0.092073
     6  C    0.400679
     7  B   -0.232675
 Electronic spatial extent (au):  <R**2>=            499.2284
 Charge=             -0.0000 electrons
 Dipole moment (field-independent basis, Debye):
    X=             -3.0236    Y=              0.0000    Z=             -0.0000  Tot=              3.0236
 Unable to Open any file for archive entry.
 1\1\GINC-SE363\Stability\RHF\Aug-CC-pVDZ\C3H8B1N1\OHZDE\09-Apr-2025\0\
 \#t hf aug-cc-pvdz symm=none int=(grid=ultrafine) guess=(read,tcheck) 
 stable=(opt,rrhf)\\title\\0,1\H,0,2.862413,0.000352,1.043022\H,0,2.862
 32,-0.000397,-1.043161\N,0,0.921063,0.000021,0.000019\C,0,-1.127846,-1
 .287168,-0.000049\C,0,-0.330915,0.000001,0.000061\C,0,-1.127888,1.2871
 44,0.000042\B,0,2.278342,0.000025,-0.000044\H,0,-0.466043,-2.151903,-0
 .000113\H,0,-1.777936,-1.330889,-0.880131\H,0,-1.777937,-1.33102,0.880
 025\H,0,-0.466114,2.151902,0.000056\H,0,-1.778,1.33091,0.880106\H,0,-1
 .777963,1.33091,-0.880049\\Version=ES64L-G16RevC.01\HF=-197.4254455\RM
 SD=2.777e-09\Dipole=-1.1895684,0.0000011,-0.0000075\Quadrupole=-1.7696
 561,1.778703,-0.0090469,0.0000687,0.0000153,-0.0001979\PG=Unknown\\@
 The archive entry for this job was punched.


 LIFE IS SO UNCERTAIN - EAT DESSERT FIRST.
 Job cpu time:       0 days  0 hours  3 minutes 18.3 seconds.
 Elapsed time:       0 days  0 hours  0 minutes 14.5 seconds.
 File lengths (MBytes):  RWF=    157 Int=      0 D2E=      0 Chk=      5 Scr=      1
 Normal termination of Gaussian 16 at Wed Apr  9 00:36:59 2025.
 Initial command:
 /arc/software/Gaussian/g16.c01/l1.exe "/tmp/slurm/4854325/Gau-1627723.inp" -scrdir="/tmp/slurm/4854325/"
 Entering Link 1 = /arc/software/Gaussian/g16.c01/l1.exe PID=   1627935.
  
 Copyright (c) 1988-2019, Gaussian, Inc.  All Rights Reserved.
  
 This is part of the Gaussian(R) 16 program.  It is based on
 the Gaussian(R) 09 system (copyright 2009, Gaussian, Inc.),
 the Gaussian(R) 03 system (copyright 2003, Gaussian, Inc.),
 the Gaussian(R) 98 system (copyright 1998, Gaussian, Inc.),
 the Gaussian(R) 94 system (copyright 1995, Gaussian, Inc.),
 the Gaussian 92(TM) system (copyright 1992, Gaussian, Inc.),
 the Gaussian 90(TM) system (copyright 1990, Gaussian, Inc.),
 the Gaussian 88(TM) system (copyright 1988, Gaussian, Inc.),
 the Gaussian 86(TM) system (copyright 1986, Carnegie Mellon
 University), and the Gaussian 82(TM) system (copyright 1983,
 Carnegie Mellon University). Gaussian is a federally registered
 trademark of Gaussian, Inc.
  
 This software contains proprietary and confidential information,
 including trade secrets, belonging to Gaussian, Inc.
  
 This software is provided under written license and may be
 used, copied, transmitted, or stored only in accord with that
 written license.
  
 The following legend is applicable only to US Government
 contracts under FAR:
  
                    RESTRICTED RIGHTS LEGEND
  
 Use, reproduction and disclosure by the US Government is
 subject to restrictions as set forth in subparagraphs (a)
 and (c) of the Commercial Computer Software - Restricted
 Rights clause in FAR 52.227-19.
  
 Gaussian, Inc.
 340 Quinnipiac St., Bldg. 40, Wallingford CT 06492
  
  
 ---------------------------------------------------------------
 Warning -- This program may not be used in any manner that
 competes with the business of Gaussian, Inc. or will provide
 assistance to any competitor of Gaussian, Inc.  The licensee
 of this program is prohibited from giving any competitor of
 Gaussian, Inc. access to this program.  By using this program,
 the user acknowledges that Gaussian, Inc. is engaged in the
 business of creating and licensing software in the field of
 computational chemistry and represents and warrants to the
 licensee that it is not a competitor of Gaussian, Inc. and that
 it will not use this program in any manner prohibited above.
 ---------------------------------------------------------------
  

 Cite this work as:
 Gaussian 16, Revision C.01,
 M. J. Frisch, G. W. Trucks, H. B. Schlegel, G. E. Scuseria, 
 M. A. Robb, J. R. Cheeseman, G. Scalmani, V. Barone, 
 G. A. Petersson, H. Nakatsuji, X. Li, M. Caricato, A. V. Marenich, 
 J. Bloino, B. G. Janesko, R. Gomperts, B. Mennucci, H. P. Hratchian, 
 J. V. Ortiz, A. F. Izmaylov, J. L. Sonnenberg, D. Williams-Young, 
 F. Ding, F. Lipparini, F. Egidi, J. Goings, B. Peng, A. Petrone, 
 T. Henderson, D. Ranasinghe, V. G. Zakrzewski, J. Gao, N. Rega, 
 G. Zheng, W. Liang, M. Hada, M. Ehara, K. Toyota, R. Fukuda, 
 J. Hasegawa, M. Ishida, T. Nakajima, Y. Honda, O. Kitao, H. Nakai, 
 T. Vreven, K. Throssell, J. A. Montgomery, Jr., J. E. Peralta, 
 F. Ogliaro, M. J. Bearpark, J. J. Heyd, E. N. Brothers, K. N. Kudin, 
 V. N. Staroverov, T. A. Keith, R. Kobayashi, J. Normand, 
 K. Raghavachari, A. P. Rendell, J. C. Burant, S. S. Iyengar, 
 J. Tomasi, M. Cossi, J. M. Millam, M. Klene, C. Adamo, R. Cammi, 
 J. W. Ochterski, R. L. Martin, K. Morokuma, O. Farkas, 
 J. B. Foresman, and D. J. Fox, Gaussian, Inc., Wallingford CT, 2019.
 
 ******************************************
 Gaussian 16:  ES64L-G16RevC.01  3-Jul-2019
                 9-Apr-2025 
 ******************************************
 %nprocs=16
 Will use up to   16 processors via shared memory.
 %mem=30GB
 %chk=BDE49_nonexpt_543_mol1.chk
 ----------------------------------------------------------------------
 #t hf aug-cc-pvdz iop(5/13=1,5/36=2,99/5=2) pseudo=read geom=check gue
 ss=(read,tcheck) scf=(maxcycle=1)
 ----------------------------------------------------------------------
 -----
 title
 -----
 Structure from the checkpoint file:  "BDE49_nonexpt_543_mol1.chk"
 Charge =  0 Multiplicity = 1
 Z-Matrix found in chk file.
 H,0,2.862413,0.000352,1.043022
 H,0,2.86232,-0.000397,-1.043161
 N,0,0.921063,0.000021,0.000019
 C,0,-1.127846,-1.287168,-0.000049
 C,0,-0.330915,0.000001,0.000061
 C,0,-1.127888,1.287144,0.000042
 B,0,2.278342,0.000025,-0.000044
 H,0,-0.466043,-2.151903,-0.000113
 H,0,-1.777936,-1.330889,-0.880131
 H,0,-1.777937,-1.33102,0.880025
 H,0,-0.466114,2.151902,0.000056
 H,0,-1.778,1.33091,0.880106
 H,0,-1.777963,1.33091,-0.880049
 Recover connectivity data from disk.
                    Distance matrix (angstroms):
                    1          2          3          4          5
     1  H    0.000000
     2  H    2.086183   0.000000
     3  N    2.203791   2.203793   0.000000
     4  C    4.320633   4.320334   2.419687   0.000000
     5  C    3.359332   3.359325   1.251978   1.513903   0.000000
     6  C    4.320433   4.320624   2.419687   2.574312   1.513903
     7  B    1.195460   1.195460   1.357279   3.641289   2.609257
     8  H    4.098652   4.098161   2.560242   1.088921   2.156142
     9  H    5.196495   4.829986   3.135376   1.095022   2.154037
    10  H    4.830318   5.196267   3.135392   1.095021   2.154026
    11  H    4.098297   4.098679   2.560244   3.502155   2.156144
    12  H    4.830151   5.196528   3.135404   2.837553   2.154032
    13  H    5.196314   4.830239   3.135367   2.837496   2.154033
                    6          7          8          9         10
     6  C    0.000000
     7  B    3.641302   0.000000
     8  H    3.502154   3.487469   0.000000
     9  H    2.837493   4.358816   1.780326   0.000000
    10  H    2.837555   4.358853   1.780325   1.760156   0.000000
    11  H    1.088922   3.487494   4.303805   3.824322   3.824392
    12  H    1.095022   4.358879   3.824396   3.191177   2.661930
    13  H    1.095022   4.358816   3.824318   2.661799   3.191196
                   11         12         13
    11  H    0.000000
    12  H    1.780326   0.000000
    13  H    1.780326   1.760155   0.000000
 Framework group  C1[X(C3H8BN)]
 Deg. of freedom    33
                         Standard orientation:                         
 ---------------------------------------------------------------------
 Center     Atomic      Atomic             Coordinates (Angstroms)
 Number     Number       Type             X           Y           Z
 ---------------------------------------------------------------------
      1          1           0        2.862413   -0.000351   -1.043022
      2          1           0        2.862320    0.000398    1.043161
      3          7           0        0.921063   -0.000021   -0.000019
      4          6           0       -1.127846    1.287168    0.000049
      5          6           0       -0.330915   -0.000001   -0.000061
      6          6           0       -1.127887   -1.287144   -0.000042
      7          5           0        2.278342   -0.000024    0.000044
      8          1           0       -0.466044    2.151903    0.000113
      9          1           0       -1.777936    1.330888    0.880131
     10          1           0       -1.777937    1.331019   -0.880025
     11          1           0       -0.466113   -2.151902   -0.000056
     12          1           0       -1.777999   -1.330911   -0.880106
     13          1           0       -1.777962   -1.330911    0.880049
 ---------------------------------------------------------------------
 Rotational constants (GHZ):           8.2104960           3.7276489           2.7098417
 ======================================================================================================
                                       Pseudopotential Parameters
 ======================================================================================================
  Center     Atomic      Valence      Angular      Power
  Number     Number     Electrons     Momentum     of R      Exponent        Coefficient   SO-Coeffient
 ======================================================================================================
    1          1            1
                                      F and up 
                                                     0        0.0000010       -0.00007675    0.00000000
                                                     2        0.1200000        0.05352699    0.00000000
                                                     2        0.1400000       -0.25123645    0.00000000
                                                     2        0.1600000        0.32188106    0.00000000
                                                     2        0.2200000       -0.25206857    0.00000000
                                                     2        0.3000000        0.19290477    0.00000000
                                                     2        0.5000000       -0.10129770    0.00000000
                                                     2        0.9000000        0.00314995    0.00000000
                                                     2        1.5000000        0.18401192    0.00000000
                                      S - F
                                                     0        0.0000010        0.08065976    0.00000000
                                                     2        0.1200000       -0.09231673    0.00000000
                                                     2        0.1600000       -0.03278082    0.00000000
                                                     2        0.2800000        0.38423402    0.00000000
                                                     2        0.6000000       -1.09357590    0.00000000
                                                     2        1.1000000        1.53099489    0.00000000
                                                     2        3.0000000       -2.63300202    0.00000000
                                      P - F
                                                     0        0.0000010       -0.11638665    0.00000000
                                                     2        0.1200000        0.35468655    0.00000000
                                                     2        0.1600000       -0.59160923    0.00000000
                                                     2        0.3000000        0.49390547    0.00000000
                                                     2        0.6000000       -0.37949835    0.00000000
                                                     2        1.6000000        0.89304688    0.00000000
                                      D - F
                                                     0        0.0000010        0.05443663    0.00000000
                                                     2        0.1200000       -0.29679479    0.00000000
                                                     2        0.1400000        0.36849872    0.00000000
                                                     2        0.2400000        0.02793449    0.00000000
                                                     2        0.4000000       -0.46312857    0.00000000
                                                     2        0.7000000        0.97587598    0.00000000
                                                     2        1.5000000       -2.43431102    0.00000000
    2          1            1
                                      F and up 
                                                     0        0.0000010       -0.00007675    0.00000000
                                                     2        0.1200000        0.05352699    0.00000000
                                                     2        0.1400000       -0.25123645    0.00000000
                                                     2        0.1600000        0.32188106    0.00000000
                                                     2        0.2200000       -0.25206857    0.00000000
                                                     2        0.3000000        0.19290477    0.00000000
                                                     2        0.5000000       -0.10129770    0.00000000
                                                     2        0.9000000        0.00314995    0.00000000
                                                     2        1.5000000        0.18401192    0.00000000
                                      S - F
                                                     0        0.0000010        0.08065976    0.00000000
                                                     2        0.1200000       -0.09231673    0.00000000
                                                     2        0.1600000       -0.03278082    0.00000000
                                                     2        0.2800000        0.38423402    0.00000000
                                                     2        0.6000000       -1.09357590    0.00000000
                                                     2        1.1000000        1.53099489    0.00000000
                                                     2        3.0000000       -2.63300202    0.00000000
                                      P - F
                                                     0        0.0000010       -0.11638665    0.00000000
                                                     2        0.1200000        0.35468655    0.00000000
                                                     2        0.1600000       -0.59160923    0.00000000
                                                     2        0.3000000        0.49390547    0.00000000
                                                     2        0.6000000       -0.37949835    0.00000000
                                                     2        1.6000000        0.89304688    0.00000000
                                      D - F
                                                     0        0.0000010        0.05443663    0.00000000
                                                     2        0.1200000       -0.29679479    0.00000000
                                                     2        0.1400000        0.36849872    0.00000000
                                                     2        0.2400000        0.02793449    0.00000000
                                                     2        0.4000000       -0.46312857    0.00000000
                                                     2        0.7000000        0.97587598    0.00000000
                                                     2        1.5000000       -2.43431102    0.00000000
    3          7            7
                                      G and up 
                                                     0        0.0000010       -0.00039818    0.00000000
                                                     2        0.1200000       -0.37616123    0.00000000
                                                     2        0.1400000        2.13837358    0.00000000
                                                     2        0.1600000       -3.36562035    0.00000000
                                                     2        0.2000000        2.53463289    0.00000000
                                                     2        0.3000000       -1.98118833    0.00000000
                                                     2        0.5000000        4.06642919    0.00000000
                                                     2        0.7000000       -6.15327959    0.00000000
                                                     2        1.2000000       10.22492851    0.00000000
                                                     2        2.0000000      -14.94707511    0.00000000
                                      S - G
                                                     0        0.0000010        0.02721443    0.00000000
                                                     2        0.1200000       -0.60186009    0.00000000
                                                     2        0.1600000        1.10088134    0.00000000
                                                     2        0.2600000       -0.59857981    0.00000000
                                                     2        0.6000000        0.21288222    0.00000000
                                                     2        3.0000000        5.09059205    0.00000000
                                      P - G
                                                     0        0.0000010        0.40558062    0.00000000
                                                     2        0.1200000        0.81809854    0.00000000
                                                     2        0.1600000       -2.44952728    0.00000000
                                                     2        0.2800000        4.16638749    0.00000000
                                                     2        0.5000000       -6.02944147    0.00000000
                                                     2        1.1000000        5.78262914    0.00000000
                                      D - G
                                                     0        0.0000010       -0.62770267    0.00000000
                                                     2        0.1600000        0.91438653    0.00000000
                                                     2        0.2600000       -2.00568466    0.00000000
                                                     2        0.5000000        3.30798839    0.00000000
                                                     2        1.1000000       -3.91526108    0.00000000
                                      F - G
                                                     0        0.0000010        0.29726344    0.00000000
                                                     2        0.1200000       -0.41591527    0.00000000
                                                     2        0.1600000        0.51444439    0.00000000
                                                     2        0.4000000       -0.69401726    0.00000000
                                                     2        0.7000000        0.51478123    0.00000000
    4          6            6
                                      G and up 
                                                     0        0.0000010       -0.00007288    0.00000000
                                                     2        0.1200000        0.10466671    0.00000000
                                                     2        0.1400000       -0.65716157    0.00000000
                                                     2        0.1600000        1.18890794    0.00000000
                                                     2        0.2000000       -1.25772850    0.00000000
                                                     2        0.2600000        1.01188378    0.00000000
                                                     2        0.4000000       -1.09380874    0.00000000
                                                     2        0.5000000        0.96944888    0.00000000
                                                     2        1.0000000       -0.79256938    0.00000000
                                                     2        3.0000000        1.06443276    0.00000000
                                      S - G
                                                     0        0.0000010       -0.00635295    0.00000000
                                                     2        0.1200000        0.16918955    0.00000000
                                                     2        0.1600000       -0.38862576    0.00000000
                                                     2        0.2800000        0.25638263    0.00000000
                                                     2        0.5000000        0.29628419    0.00000000
                                                     2        0.9000000       -0.28791512    0.00000000
                                      P - G
                                                     0        0.0000010       -0.04756931    0.00000000
                                                     2        0.1200000        0.28430375    0.00000000
                                                     2        0.1600000       -0.69640032    0.00000000
                                                     2        0.2600000        1.13005668    0.00000000
                                                     2        0.4000000       -1.31433324    0.00000000
                                                     2        0.7000000        0.91526469    0.00000000
                                      D - G
                                                     0        0.0000010       -0.11496411    0.00000000
                                                     2        0.1200000        0.16620776    0.00000000
                                                     2        0.1800000       -0.30959819    0.00000000
                                                     2        0.3000000        0.16621458    0.00000000
                                                     2        0.6000000        0.27350556    0.00000000
                                      F - G
                                                     0        0.0000010        0.12037550    0.00000000
                                                     2        0.1200000       -0.48737077    0.00000000
                                                     2        0.1400000        0.58315350    0.00000000
                                                     2        0.3000000        0.00005188    0.00000000
                                                     2        0.5000000       -1.16063549    0.00000000
                                                     2        0.8000000        2.09053308    0.00000000
    5          6            6
                                      G and up 
                                                     0        0.0000010       -0.00007288    0.00000000
                                                     2        0.1200000        0.10466671    0.00000000
                                                     2        0.1400000       -0.65716157    0.00000000
                                                     2        0.1600000        1.18890794    0.00000000
                                                     2        0.2000000       -1.25772850    0.00000000
                                                     2        0.2600000        1.01188378    0.00000000
                                                     2        0.4000000       -1.09380874    0.00000000
                                                     2        0.5000000        0.96944888    0.00000000
                                                     2        1.0000000       -0.79256938    0.00000000
                                                     2        3.0000000        1.06443276    0.00000000
                                      S - G
                                                     0        0.0000010       -0.00635295    0.00000000
                                                     2        0.1200000        0.16918955    0.00000000
                                                     2        0.1600000       -0.38862576    0.00000000
                                                     2        0.2800000        0.25638263    0.00000000
                                                     2        0.5000000        0.29628419    0.00000000
                                                     2        0.9000000       -0.28791512    0.00000000
                                      P - G
                                                     0        0.0000010       -0.04756931    0.00000000
                                                     2        0.1200000        0.28430375    0.00000000
                                                     2        0.1600000       -0.69640032    0.00000000
                                                     2        0.2600000        1.13005668    0.00000000
                                                     2        0.4000000       -1.31433324    0.00000000
                                                     2        0.7000000        0.91526469    0.00000000
                                      D - G
                                                     0        0.0000010       -0.11496411    0.00000000
                                                     2        0.1200000        0.16620776    0.00000000
                                                     2        0.1800000       -0.30959819    0.00000000
                                                     2        0.3000000        0.16621458    0.00000000
                                                     2        0.6000000        0.27350556    0.00000000
                                      F - G
                                                     0        0.0000010        0.12037550    0.00000000
                                                     2        0.1200000       -0.48737077    0.00000000
                                                     2        0.1400000        0.58315350    0.00000000
                                                     2        0.3000000        0.00005188    0.00000000
                                                     2        0.5000000       -1.16063549    0.00000000
                                                     2        0.8000000        2.09053308    0.00000000
    6          6            6
                                      G and up 
                                                     0        0.0000010       -0.00007288    0.00000000
                                                     2        0.1200000        0.10466671    0.00000000
                                                     2        0.1400000       -0.65716157    0.00000000
                                                     2        0.1600000        1.18890794    0.00000000
                                                     2        0.2000000       -1.25772850    0.00000000
                                                     2        0.2600000        1.01188378    0.00000000
                                                     2        0.4000000       -1.09380874    0.00000000
                                                     2        0.5000000        0.96944888    0.00000000
                                                     2        1.0000000       -0.79256938    0.00000000
                                                     2        3.0000000        1.06443276    0.00000000
                                      S - G
                                                     0        0.0000010       -0.00635295    0.00000000
                                                     2        0.1200000        0.16918955    0.00000000
                                                     2        0.1600000       -0.38862576    0.00000000
                                                     2        0.2800000        0.25638263    0.00000000
                                                     2        0.5000000        0.29628419    0.00000000
                                                     2        0.9000000       -0.28791512    0.00000000
                                      P - G
                                                     0        0.0000010       -0.04756931    0.00000000
                                                     2        0.1200000        0.28430375    0.00000000
                                                     2        0.1600000       -0.69640032    0.00000000
                                                     2        0.2600000        1.13005668    0.00000000
                                                     2        0.4000000       -1.31433324    0.00000000
                                                     2        0.7000000        0.91526469    0.00000000
                                      D - G
                                                     0        0.0000010       -0.11496411    0.00000000
                                                     2        0.1200000        0.16620776    0.00000000
                                                     2        0.1800000       -0.30959819    0.00000000
                                                     2        0.3000000        0.16621458    0.00000000
                                                     2        0.6000000        0.27350556    0.00000000
                                      F - G
                                                     0        0.0000010        0.12037550    0.00000000
                                                     2        0.1200000       -0.48737077    0.00000000
                                                     2        0.1400000        0.58315350    0.00000000
                                                     2        0.3000000        0.00005188    0.00000000
                                                     2        0.5000000       -1.16063549    0.00000000
                                                     2        0.8000000        2.09053308    0.00000000
    7          5            5
                                      G and up 
                                                     0        0.0000010        0.00020763    0.00000000
                                                     2        0.1200000        0.03067755    0.00000000
                                                     2        0.1400000       -0.06903562    0.00000000
                                                     2        0.2200000        0.20686977    0.00000000
                                                     2        0.2800000       -0.28012699    0.00000000
                                                     2        0.4000000        0.15289287    0.00000000
                                                     2        0.9000000        0.23777548    0.00000000
                                      S - G
                                                     0        0.0000010       -0.01460145    0.00000000
                                                     2        0.1200000        0.61520407    0.00000000
                                                     2        0.1600000       -1.40324983    0.00000000
                                                     2        0.2600000        1.13743336    0.00000000
                                                     2        0.7000000       -0.82121849    0.00000000
                                                     2        3.0000000        1.14340087    0.00000000
                                      P - G
                                                     0        0.0000010       -0.15206468    0.00000000
                                                     2        0.1200000        0.05342385    0.00000000
                                                     2        0.1800000       -0.02150831    0.00000000
                                                     2        0.4000000       -0.11023892    0.00000000
                                                     2        1.0000000        0.38415171    0.00000000
                                      D - G
                                                     0        0.0000010        0.03877889    0.00000000
                                                     2        0.1200000        0.15497678    0.00000000
                                                     2        0.2000000       -0.61843740    0.00000000
                                                     2        0.4000000        1.25619759    0.00000000
                                                     2        0.8000000       -1.68748014    0.00000000
                                      F - G
                                                     0        0.0000010        0.04196027    0.00000000
                                                     2        0.1200000       -0.20480821    0.00000000
                                                     2        0.1600000        0.27131339    0.00000000
                                                     2        0.2400000        0.24945984    0.00000000
                                                     2        0.5000000       -1.37105438    0.00000000
    8          1            1
                                      F and up 
                                                     0        0.0000010       -0.00007675    0.00000000
                                                     2        0.1200000        0.05352699    0.00000000
                                                     2        0.1400000       -0.25123645    0.00000000
                                                     2        0.1600000        0.32188106    0.00000000
                                                     2        0.2200000       -0.25206857    0.00000000
                                                     2        0.3000000        0.19290477    0.00000000
                                                     2        0.5000000       -0.10129770    0.00000000
                                                     2        0.9000000        0.00314995    0.00000000
                                                     2        1.5000000        0.18401192    0.00000000
                                      S - F
                                                     0        0.0000010        0.08065976    0.00000000
                                                     2        0.1200000       -0.09231673    0.00000000
                                                     2        0.1600000       -0.03278082    0.00000000
                                                     2        0.2800000        0.38423402    0.00000000
                                                     2        0.6000000       -1.09357590    0.00000000
                                                     2        1.1000000        1.53099489    0.00000000
                                                     2        3.0000000       -2.63300202    0.00000000
                                      P - F
                                                     0        0.0000010       -0.11638665    0.00000000
                                                     2        0.1200000        0.35468655    0.00000000
                                                     2        0.1600000       -0.59160923    0.00000000
                                                     2        0.3000000        0.49390547    0.00000000
                                                     2        0.6000000       -0.37949835    0.00000000
                                                     2        1.6000000        0.89304688    0.00000000
                                      D - F
                                                     0        0.0000010        0.05443663    0.00000000
                                                     2        0.1200000       -0.29679479    0.00000000
                                                     2        0.1400000        0.36849872    0.00000000
                                                     2        0.2400000        0.02793449    0.00000000
                                                     2        0.4000000       -0.46312857    0.00000000
                                                     2        0.7000000        0.97587598    0.00000000
                                                     2        1.5000000       -2.43431102    0.00000000
    9          1            1
                                      F and up 
                                                     0        0.0000010       -0.00007675    0.00000000
                                                     2        0.1200000        0.05352699    0.00000000
                                                     2        0.1400000       -0.25123645    0.00000000
                                                     2        0.1600000        0.32188106    0.00000000
                                                     2        0.2200000       -0.25206857    0.00000000
                                                     2        0.3000000        0.19290477    0.00000000
                                                     2        0.5000000       -0.10129770    0.00000000
                                                     2        0.9000000        0.00314995    0.00000000
                                                     2        1.5000000        0.18401192    0.00000000
                                      S - F
                                                     0        0.0000010        0.08065976    0.00000000
                                                     2        0.1200000       -0.09231673    0.00000000
                                                     2        0.1600000       -0.03278082    0.00000000
                                                     2        0.2800000        0.38423402    0.00000000
                                                     2        0.6000000       -1.09357590    0.00000000
                                                     2        1.1000000        1.53099489    0.00000000
                                                     2        3.0000000       -2.63300202    0.00000000
                                      P - F
                                                     0        0.0000010       -0.11638665    0.00000000
                                                     2        0.1200000        0.35468655    0.00000000
                                                     2        0.1600000       -0.59160923    0.00000000
                                                     2        0.3000000        0.49390547    0.00000000
                                                     2        0.6000000       -0.37949835    0.00000000
                                                     2        1.6000000        0.89304688    0.00000000
                                      D - F
                                                     0        0.0000010        0.05443663    0.00000000
                                                     2        0.1200000       -0.29679479    0.00000000
                                                     2        0.1400000        0.36849872    0.00000000
                                                     2        0.2400000        0.02793449    0.00000000
                                                     2        0.4000000       -0.46312857    0.00000000
                                                     2        0.7000000        0.97587598    0.00000000
                                                     2        1.5000000       -2.43431102    0.00000000
   10          1            1
                                      F and up 
                                                     0        0.0000010       -0.00007675    0.00000000
                                                     2        0.1200000        0.05352699    0.00000000
                                                     2        0.1400000       -0.25123645    0.00000000
                                                     2        0.1600000        0.32188106    0.00000000
                                                     2        0.2200000       -0.25206857    0.00000000
                                                     2        0.3000000        0.19290477    0.00000000
                                                     2        0.5000000       -0.10129770    0.00000000
                                                     2        0.9000000        0.00314995    0.00000000
                                                     2        1.5000000        0.18401192    0.00000000
                                      S - F
                                                     0        0.0000010        0.08065976    0.00000000
                                                     2        0.1200000       -0.09231673    0.00000000
                                                     2        0.1600000       -0.03278082    0.00000000
                                                     2        0.2800000        0.38423402    0.00000000
                                                     2        0.6000000       -1.09357590    0.00000000
                                                     2        1.1000000        1.53099489    0.00000000
                                                     2        3.0000000       -2.63300202    0.00000000
                                      P - F
                                                     0        0.0000010       -0.11638665    0.00000000
                                                     2        0.1200000        0.35468655    0.00000000
                                                     2        0.1600000       -0.59160923    0.00000000
                                                     2        0.3000000        0.49390547    0.00000000
                                                     2        0.6000000       -0.37949835    0.00000000
                                                     2        1.6000000        0.89304688    0.00000000
                                      D - F
                                                     0        0.0000010        0.05443663    0.00000000
                                                     2        0.1200000       -0.29679479    0.00000000
                                                     2        0.1400000        0.36849872    0.00000000
                                                     2        0.2400000        0.02793449    0.00000000
                                                     2        0.4000000       -0.46312857    0.00000000
                                                     2        0.7000000        0.97587598    0.00000000
                                                     2        1.5000000       -2.43431102    0.00000000
   11          1            1
                                      F and up 
                                                     0        0.0000010       -0.00007675    0.00000000
                                                     2        0.1200000        0.05352699    0.00000000
                                                     2        0.1400000       -0.25123645    0.00000000
                                                     2        0.1600000        0.32188106    0.00000000
                                                     2        0.2200000       -0.25206857    0.00000000
                                                     2        0.3000000        0.19290477    0.00000000
                                                     2        0.5000000       -0.10129770    0.00000000
                                                     2        0.9000000        0.00314995    0.00000000
                                                     2        1.5000000        0.18401192    0.00000000
                                      S - F
                                                     0        0.0000010        0.08065976    0.00000000
                                                     2        0.1200000       -0.09231673    0.00000000
                                                     2        0.1600000       -0.03278082    0.00000000
                                                     2        0.2800000        0.38423402    0.00000000
                                                     2        0.6000000       -1.09357590    0.00000000
                                                     2        1.1000000        1.53099489    0.00000000
                                                     2        3.0000000       -2.63300202    0.00000000
                                      P - F
                                                     0        0.0000010       -0.11638665    0.00000000
                                                     2        0.1200000        0.35468655    0.00000000
                                                     2        0.1600000       -0.59160923    0.00000000
                                                     2        0.3000000        0.49390547    0.00000000
                                                     2        0.6000000       -0.37949835    0.00000000
                                                     2        1.6000000        0.89304688    0.00000000
                                      D - F
                                                     0        0.0000010        0.05443663    0.00000000
                                                     2        0.1200000       -0.29679479    0.00000000
                                                     2        0.1400000        0.36849872    0.00000000
                                                     2        0.2400000        0.02793449    0.00000000
                                                     2        0.4000000       -0.46312857    0.00000000
                                                     2        0.7000000        0.97587598    0.00000000
                                                     2        1.5000000       -2.43431102    0.00000000
   12          1            1
                                      F and up 
                                                     0        0.0000010       -0.00007675    0.00000000
                                                     2        0.1200000        0.05352699    0.00000000
                                                     2        0.1400000       -0.25123645    0.00000000
                                                     2        0.1600000        0.32188106    0.00000000
                                                     2        0.2200000       -0.25206857    0.00000000
                                                     2        0.3000000        0.19290477    0.00000000
                                                     2        0.5000000       -0.10129770    0.00000000
                                                     2        0.9000000        0.00314995    0.00000000
                                                     2        1.5000000        0.18401192    0.00000000
                                      S - F
                                                     0        0.0000010        0.08065976    0.00000000
                                                     2        0.1200000       -0.09231673    0.00000000
                                                     2        0.1600000       -0.03278082    0.00000000
                                                     2        0.2800000        0.38423402    0.00000000
                                                     2        0.6000000       -1.09357590    0.00000000
                                                     2        1.1000000        1.53099489    0.00000000
                                                     2        3.0000000       -2.63300202    0.00000000
                                      P - F
                                                     0        0.0000010       -0.11638665    0.00000000
                                                     2        0.1200000        0.35468655    0.00000000
                                                     2        0.1600000       -0.59160923    0.00000000
                                                     2        0.3000000        0.49390547    0.00000000
                                                     2        0.6000000       -0.37949835    0.00000000
                                                     2        1.6000000        0.89304688    0.00000000
                                      D - F
                                                     0        0.0000010        0.05443663    0.00000000
                                                     2        0.1200000       -0.29679479    0.00000000
                                                     2        0.1400000        0.36849872    0.00000000
                                                     2        0.2400000        0.02793449    0.00000000
                                                     2        0.4000000       -0.46312857    0.00000000
                                                     2        0.7000000        0.97587598    0.00000000
                                                     2        1.5000000       -2.43431102    0.00000000
   13          1            1
                                      F and up 
                                                     0        0.0000010       -0.00007675    0.00000000
                                                     2        0.1200000        0.05352699    0.00000000
                                                     2        0.1400000       -0.25123645    0.00000000
                                                     2        0.1600000        0.32188106    0.00000000
                                                     2        0.2200000       -0.25206857    0.00000000
                                                     2        0.3000000        0.19290477    0.00000000
                                                     2        0.5000000       -0.10129770    0.00000000
                                                     2        0.9000000        0.00314995    0.00000000
                                                     2        1.5000000        0.18401192    0.00000000
                                      S - F
                                                     0        0.0000010        0.08065976    0.00000000
                                                     2        0.1200000       -0.09231673    0.00000000
                                                     2        0.1600000       -0.03278082    0.00000000
                                                     2        0.2800000        0.38423402    0.00000000
                                                     2        0.6000000       -1.09357590    0.00000000
                                                     2        1.1000000        1.53099489    0.00000000
                                                     2        3.0000000       -2.63300202    0.00000000
                                      P - F
                                                     0        0.0000010       -0.11638665    0.00000000
                                                     2        0.1200000        0.35468655    0.00000000
                                                     2        0.1600000       -0.59160923    0.00000000
                                                     2        0.3000000        0.49390547    0.00000000
                                                     2        0.6000000       -0.37949835    0.00000000
                                                     2        1.6000000        0.89304688    0.00000000
                                      D - F
                                                     0        0.0000010        0.05443663    0.00000000
                                                     2        0.1200000       -0.29679479    0.00000000
                                                     2        0.1400000        0.36849872    0.00000000
                                                     2        0.2400000        0.02793449    0.00000000
                                                     2        0.4000000       -0.46312857    0.00000000
                                                     2        0.7000000        0.97587598    0.00000000
                                                     2        1.5000000       -2.43431102    0.00000000
 ======================================================================================================
   187 basis functions,   303 primitive gaussians,   197 cartesian basis functions
    19 alpha electrons       19 beta electrons
       nuclear repulsion energy       158.6942941321 Hartrees.
 NAtoms=   13 NActive=   13 NUniq=   13 SFac= 1.00D+00 NAtFMM=   60 NAOKFM=F Big=F
   1 Symmetry operations used in ECPInt.
 ECPInt:  NShTT=    3655 NPrTT=   14955 LenC2=    3656 LenP2D=   12459.
 LDataN:  DoStor=T MaxTD1= 6 Len=  172
 Initial guess from the checkpoint file:  "BDE49_nonexpt_543_mol1.chk"
 B after Tr=     0.000000   -0.000000   -0.000000
         Rot=   -0.000000    1.000000    0.000000   -0.000000 Ang= 180.00 deg.
 >>>>>>>>>> Convergence criterion not met.
 SCF Done:  E(RHF) =  -197.634942489     A.U. after    2 cycles
            NFock=  1  Conv=0.18D-01     -V/T= 1.9983

 **********************************************************************

            Population analysis using the SCF Density.

 **********************************************************************

 Orbital symmetries:
       Occupied  (A) (A) (A) (A) (A) (A) (A) (A) (A) (A) (A) (A)
                 (A) (A) (A) (A) (A) (A) (A)
       Virtual   (A) (A) (A) (A) (A) (A) (A) (A) (A) (A) (A) (A)
                 (A) (A) (A) (A) (A) (A) (A) (A) (A) (A) (A) (A)
                 (A) (A) (A) (A) (A) (A) (A) (A) (A) (A) (A) (A)
                 (A) (A) (A) (A) (A) (A) (A) (A) (A) (A) (A) (A)
                 (A) (A) (A) (A) (A) (A) (A) (A) (A) (A) (A) (A)
                 (A) (A) (A) (A) (A) (A) (A) (A) (A) (A) (A) (A)
                 (A) (A) (A) (A) (A) (A) (A) (A) (A) (A) (A) (A)
                 (A) (A) (A) (A) (A) (A) (A) (A) (A) (A) (A) (A)
                 (A) (A) (A) (A) (A) (A) (A) (A) (A) (A) (A) (A)
                 (A) (A) (A) (A) (A) (A) (A) (A) (A) (A) (A) (A)
                 (A) (A) (A) (A) (A) (A) (A) (A) (A) (A) (A) (A)
                 (A) (A) (A) (A) (A) (A) (A) (A) (A) (A) (A) (A)
                 (A) (A) (A) (A) (A) (A) (A) (A) (A) (A) (A) (A)
                 (A) (A) (A) (A) (A) (A) (A) (A) (A) (A) (A) (A)
 The electronic state is 1-A.
 Alpha  occ. eigenvalues --  -15.48962 -11.31302 -11.24572 -11.24560  -7.57654
 Alpha  occ. eigenvalues --   -1.22984  -1.03039  -0.96507  -0.86458  -0.68454
 Alpha  occ. eigenvalues --   -0.63772  -0.62742  -0.59040  -0.56517  -0.56256
 Alpha  occ. eigenvalues --   -0.53837  -0.53678  -0.41872  -0.40988
 Alpha virt. eigenvalues --    0.03264   0.04168   0.04223   0.05027   0.05594
 Alpha virt. eigenvalues --    0.05996   0.06138   0.07088   0.07372   0.09535
 Alpha virt. eigenvalues --    0.11694   0.12168   0.13726   0.13955   0.14733
 Alpha virt. eigenvalues --    0.15175   0.15397   0.16051   0.16414   0.16468
 Alpha virt. eigenvalues --    0.16763   0.17822   0.18119   0.20362   0.20884
 Alpha virt. eigenvalues --    0.23827   0.24869   0.27163   0.27650   0.28504
 Alpha virt. eigenvalues --    0.29562   0.29816   0.31026   0.32081   0.35114
 Alpha virt. eigenvalues --    0.35432   0.36600   0.37648   0.37998   0.38715
 Alpha virt. eigenvalues --    0.40538   0.42871   0.43034   0.43556   0.43930
 Alpha virt. eigenvalues --    0.46548   0.46957   0.47146   0.48670   0.49267
 Alpha virt. eigenvalues --    0.50133   0.50486   0.51703   0.52787   0.53614
 Alpha virt. eigenvalues --    0.53873   0.54040   0.56779   0.57203   0.59653
 Alpha virt. eigenvalues --    0.60159   0.60354   0.60730   0.61987   0.62211
 Alpha virt. eigenvalues --    0.64514   0.65015   0.66110   0.67479   0.68069
 Alpha virt. eigenvalues --    0.68137   0.69553   0.71908   0.72833   0.73984
 Alpha virt. eigenvalues --    0.75862   0.77092   0.77986   0.80499   0.80581
 Alpha virt. eigenvalues --    0.80656   0.81538   0.83140   0.87309   0.88132
 Alpha virt. eigenvalues --    0.88692   0.90388   0.95655   0.95983   1.03306
 Alpha virt. eigenvalues --    1.03319   1.04835   1.09111   1.12701   1.16106
 Alpha virt. eigenvalues --    1.16369   1.16778   1.18660   1.19997   1.21717
 Alpha virt. eigenvalues --    1.23447   1.23956   1.29882   1.30421   1.31044
 Alpha virt. eigenvalues --    1.41230   1.43090   1.47006   1.49126   1.49528
 Alpha virt. eigenvalues --    1.52083   1.57550   1.63398   1.67185   1.73761
 Alpha virt. eigenvalues --    1.74056   1.76269   1.77133   1.79345   1.79504
 Alpha virt. eigenvalues --    1.83047   1.87795   1.90904   1.91465   1.94321
 Alpha virt. eigenvalues --    1.95270   1.96604   1.99529   2.00496   2.07055
 Alpha virt. eigenvalues --    2.07675   2.08298   2.12482   2.17897   2.18069
 Alpha virt. eigenvalues --    2.20094   2.20748   2.24800   2.28323   2.30072
 Alpha virt. eigenvalues --    2.33531   2.35459   2.37458   2.40048   2.45883
 Alpha virt. eigenvalues --    2.46267   2.46729   2.48522   2.54388   2.57181
 Alpha virt. eigenvalues --    2.60981   2.61928   2.67741   2.73993   2.74248
 Alpha virt. eigenvalues --    2.75554   2.82133   2.90686   2.95653   2.97797
 Alpha virt. eigenvalues --    3.01230   3.01650   3.10472   3.13423   3.15499
 Alpha virt. eigenvalues --    3.23850   3.41061   4.01800
          Condensed to atoms (all electrons):
 Mulliken charges:
               1
     1  H    0.217494
     2  H    0.217483
     3  N    1.077575
     4  C   -0.294630
     5  C   -1.275074
     6  C   -0.294640
     7  B   -0.753710
     8  H    0.080607
     9  H    0.236063
    10  H    0.236079
    11  H    0.080608
    12  H    0.236076
    13  H    0.236068
 Sum of Mulliken charges =   0.00000
 Mulliken charges with hydrogens summed into heavy atoms:
               1
     3  N    1.077575
     4  C    0.258120
     5  C   -1.275074
     6  C    0.258113
     7  B   -0.318733
 Electronic spatial extent (au):  <R**2>=            497.1271
 Charge=             -0.0000 electrons
 Dipole moment (field-independent basis, Debye):
    X=             -3.1092    Y=             -0.0000    Z=              0.0000  Tot=              3.1092

 Test job not archived.
 1\1\GINC-SE363\SP\RHF\Aug-CC-pVDZ\C3H8B1N1\OHZDE\09-Apr-2025\0\\#t hf 
 aug-cc-pvdz iop(5/13=1,5/36=2,99/5=2) pseudo=read geom=check guess=(re
 ad,tcheck) scf=(maxcycle=1)\\title\\0,1\H,0,2.862413,0.000352,1.043022
 \H,0,2.86232,-0.000397,-1.043161\N,0,0.921063,0.000021,0.000019\C,0,-1
 .127846,-1.287168,-0.000049\C,0,-0.330915,0.000001,0.000061\C,0,-1.127
 888,1.287144,0.000042\B,0,2.278342,0.000025,-0.000044\H,0,-0.466043,-2
 .151903,-0.000113\H,0,-1.777936,-1.330889,-0.880131\H,0,-1.777937,-1.3
 3102,0.880025\H,0,-0.466114,2.151902,0.000056\H,0,-1.778,1.33091,0.880
 106\H,0,-1.777963,1.33091,-0.880049\\Version=ES64L-G16RevC.01\State=1-
 A\HF=-197.6349425\RMSD=1.827e-02\Dipole=-1.2232689,0.0000006,-0.000006
 7\Quadrupole=-1.3380248,1.630092,-0.2920673,0.0000727,-0.0000091,-0.00
 0208\PG=C01 [X(C3H8B1N1)]\\@


 ...THE PHYSICISTS HAVE MADE THEIR UNIVERSE, AND IF YOU DO NOT LIKE
 IT, YOU MUST MAKE YOUR OWN.
                               -- E. R. HARRISON IN "COSMOLOGY" (1980)
 Job cpu time:       0 days  0 hours  0 minutes 34.8 seconds.
 Elapsed time:       0 days  0 hours  0 minutes  2.9 seconds.
 File lengths (MBytes):  RWF=     10 Int=      0 D2E=      0 Chk=      5 Scr=      1
 Normal termination of Gaussian 16 at Wed Apr  9 00:37:02 2025.
