 Entering Gaussian System, Link 0=g16
 Input=BDE49_nonexpt_2666_mol1.gjf
 Output=BDE49_nonexpt_2666_mol1.log
 Initial command:
 /arc/software/Gaussian/g16.c01/l1.exe "/tmp/slurm/4853135/Gau-1258787.inp" -scrdir="/tmp/slurm/4853135/"
 Entering Link 1 = /arc/software/Gaussian/g16.c01/l1.exe PID=   1258788.
  
 Copyright (c) 1988-2019, Gaussian, Inc.  All Rights Reserved.
  
 This is part of the Gaussian(R) 16 program.  It is based on
 the Gaussian(R) 09 system (copyright 2009, Gaussian, Inc.),
 the Gaussian(R) 03 system (copyright 2003, Gaussian, Inc.),
 the Gaussian(R) 98 system (copyright 1998, Gaussian, Inc.),
 the Gaussian(R) 94 system (copyright 1995, Gaussian, Inc.),
 the Gaussian 92(TM) system (copyright 1992, Gaussian, Inc.),
 the Gaussian 90(TM) system (copyright 1990, Gaussian, Inc.),
 the Gaussian 88(TM) system (copyright 1988, Gaussian, Inc.),
 the Gaussian 86(TM) system (copyright 1986, Carnegie Mellon
 University), and the Gaussian 82(TM) system (copyright 1983,
 Carnegie Mellon University). Gaussian is a federally registered
 trademark of Gaussian, Inc.
  
 This software contains proprietary and confidential information,
 including trade secrets, belonging to Gaussian, Inc.
  
 This software is provided under written license and may be
 used, copied, transmitted, or stored only in accord with that
 written license.
  
 The following legend is applicable only to US Government
 contracts under FAR:
  
                    RESTRICTED RIGHTS LEGEND
  
 Use, reproduction and disclosure by the US Government is
 subject to restrictions as set forth in subparagraphs (a)
 and (c) of the Commercial Computer Software - Restricted
 Rights clause in FAR 52.227-19.
  
 Gaussian, Inc.
 340 Quinnipiac St., Bldg. 40, Wallingford CT 06492
  
  
 ---------------------------------------------------------------
 Warning -- This program may not be used in any manner that
 competes with the business of Gaussian, Inc. or will provide
 assistance to any competitor of Gaussian, Inc.  The licensee
 of this program is prohibited from giving any competitor of
 Gaussian, Inc. access to this program.  By using this program,
 the user acknowledges that Gaussian, Inc. is engaged in the
 business of creating and licensing software in the field of
 computational chemistry and represents and warrants to the
 licensee that it is not a competitor of Gaussian, Inc. and that
 it will not use this program in any manner prohibited above.
 ---------------------------------------------------------------
  

 Cite this work as:
 Gaussian 16, Revision C.01,
 M. J. Frisch, G. W. Trucks, H. B. Schlegel, G. E. Scuseria, 
 M. A. Robb, J. R. Cheeseman, G. Scalmani, V. Barone, 
 G. A. Petersson, H. Nakatsuji, X. Li, M. Caricato, A. V. Marenich, 
 J. Bloino, B. G. Janesko, R. Gomperts, B. Mennucci, H. P. Hratchian, 
 J. V. Ortiz, A. F. Izmaylov, J. L. Sonnenberg, D. Williams-Young, 
 F. Ding, F. Lipparini, F. Egidi, J. Goings, B. Peng, A. Petrone, 
 T. Henderson, D. Ranasinghe, V. G. Zakrzewski, J. Gao, N. Rega, 
 G. Zheng, W. Liang, M. Hada, M. Ehara, K. Toyota, R. Fukuda, 
 J. Hasegawa, M. Ishida, T. Nakajima, Y. Honda, O. Kitao, H. Nakai, 
 T. Vreven, K. Throssell, J. A. Montgomery, Jr., J. E. Peralta, 
 F. Ogliaro, M. J. Bearpark, J. J. Heyd, E. N. Brothers, K. N. Kudin, 
 V. N. Staroverov, T. A. Keith, R. Kobayashi, J. Normand, 
 K. Raghavachari, A. P. Rendell, J. C. Burant, S. S. Iyengar, 
 J. Tomasi, M. Cossi, J. M. Millam, M. Klene, C. Adamo, R. Cammi, 
 J. W. Ochterski, R. L. Martin, K. Morokuma, O. Farkas, 
 J. B. Foresman, and D. J. Fox, Gaussian, Inc., Wallingford CT, 2019.
 
 ******************************************
 Gaussian 16:  ES64L-G16RevC.01  3-Jul-2019
                 9-Apr-2025 
 ******************************************
 %nprocs=16
 Will use up to   16 processors via shared memory.
 %mem=30GB
 %chk=BDE49_nonexpt_2666_mol1.chk
 ----------------------------------------------------------------------
 #t hf aug-cc-pvdz symm=none int=(grid=ultrafine) guess=(read,tcheck) s
 table=(opt,rrhf)
 ----------------------------------------------------------------------
 -----
 title
 -----
 Symbolic Z-matrix:
 Charge =  0 Multiplicity = 1
 F                     2.20706   0.12708   0.00036 
 S                     0.79096  -0.85924  -0.00036 
 C                    -0.40462   0.36848  -0.00032 
 S                    -1.9082   -0.2773    0.00027 
 O                    -0.05939   1.64099   0.00004 
 H                     0.91505   1.70207  -0.00015 
 
                    Distance matrix (angstroms):
                    1          2          3          4          5
     1  F    0.000000
     2  S    1.725732   0.000000
     3  C    2.622804   1.713675   0.000000
     4  S    4.135077   2.761181   1.636396   0.000000
     5  O    2.725560   2.640877   1.318515   2.664200   0.000000
     6  H    2.037123   2.564309   1.876160   3.447988   0.976344
                    6
     6  H    0.000000
 Symmetry turned off by external request.
 Rotational constants (GHZ):           6.8331425           2.1800316           1.6527438
   132 basis functions,   302 primitive gaussians,   142 cartesian basis functions
    28 alpha electrons       28 beta electrons
       nuclear repulsion energy       281.6699479440 Hartrees.
 NAtoms=    6 NActive=    6 NUniq=    6 SFac= 1.00D+00 NAtFMM=   60 NAOKFM=F Big=F
 ExpMin= 2.97D-02 ExpMax= 1.11D+05 ExpMxC= 1.07D+03 IAcc=3 IRadAn=         5 AccDes= 0.00D+00
 Harris functional with IExCor=  205 and IRadAn=       5 diagonalized for initial guess.
 HarFok:  IExCor=  205 AccDes= 0.00D+00 IRadAn=         5 IDoV= 1 UseB2=F ITyADJ=14
 ICtDFT=  3500011 ScaDFX=  1.000000  1.000000  1.000000  1.000000
 FoFCou: FMM=F IPFlag=           0 FMFlag=      100000 FMFlg1=           0
         NFxFlg=           0 DoJE=T BraDBF=F KetDBF=T FulRan=T
         wScrn=  0.000000 ICntrl=       500 IOpCl=  0 I1Cent=   200000004 NGrid=           0
         NMat0=    1 NMatS0=      1 NMatT0=    0 NMatD0=    1 NMtDS0=    0 NMtDT0=    0
 Symmetry not used in FoFCou.
 SCF Done:  E(RHF) =  -1007.79378836     A.U. after   15 cycles
            NFock= 15  Conv=0.28D-08     -V/T= 2.0004

 **********************************************************************

            Population analysis using the SCF Density.

 **********************************************************************

 Alpha  occ. eigenvalues --  -92.10176 -91.95806 -26.34946 -20.68039 -11.44636
 Alpha  occ. eigenvalues --   -9.09460  -8.96155  -6.77609  -6.77368  -6.77094
 Alpha  occ. eigenvalues --   -6.64370  -6.64076  -6.63992  -1.61831  -1.50071
 Alpha  occ. eigenvalues --   -1.13726  -0.99388  -0.85604  -0.78040  -0.70601
 Alpha  occ. eigenvalues --   -0.70222  -0.66712  -0.65521  -0.60081  -0.53148
 Alpha  occ. eigenvalues --   -0.47684  -0.37745  -0.37303
 Alpha virt. eigenvalues --    0.02884   0.05058   0.05152   0.06695   0.08361
 Alpha virt. eigenvalues --    0.11640   0.11731   0.12763   0.12972   0.13614
 Alpha virt. eigenvalues --    0.15052   0.16175   0.16582   0.20997   0.22113
 Alpha virt. eigenvalues --    0.22568   0.25008   0.25712   0.28248   0.29427
 Alpha virt. eigenvalues --    0.29794   0.31827   0.32177   0.33935   0.34930
 Alpha virt. eigenvalues --    0.37640   0.38572   0.42130   0.44040   0.47259
 Alpha virt. eigenvalues --    0.47687   0.50995   0.51471   0.52658   0.53937
 Alpha virt. eigenvalues --    0.56190   0.58513   0.63617   0.64263   0.66352
 Alpha virt. eigenvalues --    0.67970   0.70157   0.71444   0.73626   0.80915
 Alpha virt. eigenvalues --    0.83004   0.88569   0.90941   0.92925   0.93439
 Alpha virt. eigenvalues --    0.96013   0.97349   1.00952   1.04806   1.06889
 Alpha virt. eigenvalues --    1.08446   1.11629   1.15208   1.16108   1.17425
 Alpha virt. eigenvalues --    1.18396   1.20205   1.20934   1.22875   1.25745
 Alpha virt. eigenvalues --    1.29400   1.33168   1.36419   1.41742   1.43867
 Alpha virt. eigenvalues --    1.47049   1.52660   1.54805   1.61696   1.67369
 Alpha virt. eigenvalues --    1.68861   1.70242   1.72721   1.78281   1.80393
 Alpha virt. eigenvalues --    1.83236   1.90730   1.92479   2.05358   2.11927
 Alpha virt. eigenvalues --    2.13954   2.18231   2.24758   2.31167   2.54510
 Alpha virt. eigenvalues --    2.62554   2.91995   2.97387   3.12248   3.65127
 Alpha virt. eigenvalues --    3.68415   3.71412   3.87693   4.22833   4.88422
 Alpha virt. eigenvalues --    4.94555   4.98106   5.03409   5.08321
          Condensed to atoms (all electrons):
 Mulliken charges:
               1
     1  F   -0.657448
     2  S    0.915084
     3  C   -0.092131
     4  S    0.192912
     5  O   -0.617024
     6  H    0.258607
 Sum of Mulliken charges =  -0.00000
 Mulliken charges with hydrogens summed into heavy atoms:
               1
     1  F   -0.657448
     2  S    0.915084
     3  C   -0.092131
     4  S    0.192912
     5  O   -0.358417
 Electronic spatial extent (au):  <R**2>=            642.1242
 Charge=             -0.0000 electrons
 Dipole moment (field-independent basis, Debye):
    X=              1.8399    Y=              0.1308    Z=             -0.0013  Tot=              1.8445
 NROrb=    132 NOA=    28 NOB=    28 NVA=   104 NVB=   104

 **** Warning!!: The largest alpha MO coefficient is  0.17057321D+02

    12 initial guesses have been made.
 Iteration     1 Dimension    12 NMult     0 NNew     12
 New state      1 was old state      4
 Iteration     2 Dimension    24 NMult    12 NNew     12
 Iteration     3 Dimension    27 NMult    24 NNew      3
 Iteration     4 Dimension    30 NMult    27 NNew      3
 Iteration     5 Dimension    33 NMult    30 NNew      3
 Iteration     6 Dimension    36 NMult    33 NNew      3
 ***********************************************************************
 Stability analysis using <AA,BB:AA,BB> singles matrix:
 ***********************************************************************
 Ground to excited state transition densities written to RWF  633

 Eigenvectors of the stability matrix:
 
 Excited state symmetry could not be determined.
 Eigenvector   1:      Singlet-?Sym  Eigenvalue= 0.1431424  <S**2>=0.000
      26 -> 29        -0.12427
      26 -> 30        -0.13728
      27 -> 31         0.43327
      27 -> 34         0.11008
      27 -> 39         0.10558
      28 -> 29         0.31231
      28 -> 30         0.30335
      28 -> 33        -0.13955
 The wavefunction is stable under the perturbations considered.
 The wavefunction is already stable.

 **********************************************************************

            Population analysis using the SCF Density.

 **********************************************************************

 Alpha  occ. eigenvalues --  -92.10176 -91.95806 -26.34946 -20.68039 -11.44636
 Alpha  occ. eigenvalues --   -9.09460  -8.96155  -6.77609  -6.77368  -6.77094
 Alpha  occ. eigenvalues --   -6.64370  -6.64076  -6.63992  -1.61831  -1.50071
 Alpha  occ. eigenvalues --   -1.13726  -0.99388  -0.85604  -0.78040  -0.70601
 Alpha  occ. eigenvalues --   -0.70222  -0.66712  -0.65521  -0.60081  -0.53148
 Alpha  occ. eigenvalues --   -0.47684  -0.37745  -0.37303
 Alpha virt. eigenvalues --    0.02884   0.05058   0.05152   0.06695   0.08361
 Alpha virt. eigenvalues --    0.11640   0.11731   0.12763   0.12972   0.13614
 Alpha virt. eigenvalues --    0.15052   0.16175   0.16582   0.20997   0.22113
 Alpha virt. eigenvalues --    0.22568   0.25008   0.25712   0.28248   0.29427
 Alpha virt. eigenvalues --    0.29794   0.31827   0.32177   0.33935   0.34930
 Alpha virt. eigenvalues --    0.37640   0.38572   0.42130   0.44040   0.47259
 Alpha virt. eigenvalues --    0.47687   0.50995   0.51471   0.52658   0.53937
 Alpha virt. eigenvalues --    0.56190   0.58513   0.63617   0.64263   0.66352
 Alpha virt. eigenvalues --    0.67970   0.70157   0.71444   0.73626   0.80915
 Alpha virt. eigenvalues --    0.83004   0.88569   0.90941   0.92925   0.93439
 Alpha virt. eigenvalues --    0.96013   0.97349   1.00952   1.04806   1.06889
 Alpha virt. eigenvalues --    1.08446   1.11629   1.15208   1.16108   1.17425
 Alpha virt. eigenvalues --    1.18396   1.20205   1.20934   1.22875   1.25745
 Alpha virt. eigenvalues --    1.29400   1.33168   1.36419   1.41742   1.43867
 Alpha virt. eigenvalues --    1.47049   1.52660   1.54805   1.61696   1.67369
 Alpha virt. eigenvalues --    1.68861   1.70242   1.72721   1.78281   1.80393
 Alpha virt. eigenvalues --    1.83236   1.90730   1.92479   2.05358   2.11927
 Alpha virt. eigenvalues --    2.13954   2.18231   2.24758   2.31167   2.54510
 Alpha virt. eigenvalues --    2.62554   2.91995   2.97387   3.12248   3.65127
 Alpha virt. eigenvalues --    3.68415   3.71412   3.87693   4.22833   4.88422
 Alpha virt. eigenvalues --    4.94555   4.98106   5.03409   5.08321
          Condensed to atoms (all electrons):
 Mulliken charges:
               1
     1  F   -0.657448
     2  S    0.915084
     3  C   -0.092131
     4  S    0.192912
     5  O   -0.617024
     6  H    0.258607
 Sum of Mulliken charges =  -0.00000
 Mulliken charges with hydrogens summed into heavy atoms:
               1
     1  F   -0.657448
     2  S    0.915084
     3  C   -0.092131
     4  S    0.192912
     5  O   -0.358417
 Electronic spatial extent (au):  <R**2>=            642.1242
 Charge=             -0.0000 electrons
 Dipole moment (field-independent basis, Debye):
    X=              1.8399    Y=              0.1308    Z=             -0.0013  Tot=              1.8445
 Unable to Open any file for archive entry.
 1\1\GINC-SE249\Stability\RHF\Aug-CC-pVDZ\C1H1F1O1S2\OHZDE\09-Apr-2025\
 0\\#t hf aug-cc-pvdz symm=none int=(grid=ultrafine) guess=(read,tcheck
 ) stable=(opt,rrhf)\\title\\0,1\F,0,2.207057,0.127083,0.00036\S,0,0.79
 0962,-0.859236,-0.000356\C,0,-0.404615,0.368476,-0.000324\S,0,-1.90819
 9,-0.277301,0.000266\O,0,-0.059385,1.640992,0.000036\H,0,0.915047,1.70
 2069,-0.000153\\Version=ES64L-G16RevC.01\HF=-1007.7937884\RMSD=2.781e-
 09\Dipole=0.7238615,0.0514458,-0.0004978\Quadrupole=-2.547606,2.132911
 4,0.4146946,1.2822717,-0.0014615,-0.0007719\PG=Unknown\\@
 The archive entry for this job was punched.


 WE HAVE LEFT UNDONE THOSE THINGS WHICH WE OUGHT TO HAVE DONE,
 AND WE HAVE DONE THOSE THINGS WHICH WE OUGHT NOT TO HAVE DONE.
                   BOOK OF COMMON PRAYER                      
 Job cpu time:       0 days  0 hours  0 minutes 46.8 seconds.
 Elapsed time:       0 days  0 hours  0 minutes  5.0 seconds.
 File lengths (MBytes):  RWF=    144 Int=      0 D2E=      0 Chk=      4 Scr=      1
 Normal termination of Gaussian 16 at Wed Apr  9 00:22:39 2025.
 Initial command:
 /arc/software/Gaussian/g16.c01/l1.exe "/tmp/slurm/4853135/Gau-1258787.inp" -scrdir="/tmp/slurm/4853135/"
 Entering Link 1 = /arc/software/Gaussian/g16.c01/l1.exe PID=   1259001.
  
 Copyright (c) 1988-2019, Gaussian, Inc.  All Rights Reserved.
  
 This is part of the Gaussian(R) 16 program.  It is based on
 the Gaussian(R) 09 system (copyright 2009, Gaussian, Inc.),
 the Gaussian(R) 03 system (copyright 2003, Gaussian, Inc.),
 the Gaussian(R) 98 system (copyright 1998, Gaussian, Inc.),
 the Gaussian(R) 94 system (copyright 1995, Gaussian, Inc.),
 the Gaussian 92(TM) system (copyright 1992, Gaussian, Inc.),
 the Gaussian 90(TM) system (copyright 1990, Gaussian, Inc.),
 the Gaussian 88(TM) system (copyright 1988, Gaussian, Inc.),
 the Gaussian 86(TM) system (copyright 1986, Carnegie Mellon
 University), and the Gaussian 82(TM) system (copyright 1983,
 Carnegie Mellon University). Gaussian is a federally registered
 trademark of Gaussian, Inc.
  
 This software contains proprietary and confidential information,
 including trade secrets, belonging to Gaussian, Inc.
  
 This software is provided under written license and may be
 used, copied, transmitted, or stored only in accord with that
 written license.
  
 The following legend is applicable only to US Government
 contracts under FAR:
  
                    RESTRICTED RIGHTS LEGEND
  
 Use, reproduction and disclosure by the US Government is
 subject to restrictions as set forth in subparagraphs (a)
 and (c) of the Commercial Computer Software - Restricted
 Rights clause in FAR 52.227-19.
  
 Gaussian, Inc.
 340 Quinnipiac St., Bldg. 40, Wallingford CT 06492
  
  
 ---------------------------------------------------------------
 Warning -- This program may not be used in any manner that
 competes with the business of Gaussian, Inc. or will provide
 assistance to any competitor of Gaussian, Inc.  The licensee
 of this program is prohibited from giving any competitor of
 Gaussian, Inc. access to this program.  By using this program,
 the user acknowledges that Gaussian, Inc. is engaged in the
 business of creating and licensing software in the field of
 computational chemistry and represents and warrants to the
 licensee that it is not a competitor of Gaussian, Inc. and that
 it will not use this program in any manner prohibited above.
 ---------------------------------------------------------------
  

 Cite this work as:
 Gaussian 16, Revision C.01,
 M. J. Frisch, G. W. Trucks, H. B. Schlegel, G. E. Scuseria, 
 M. A. Robb, J. R. Cheeseman, G. Scalmani, V. Barone, 
 G. A. Petersson, H. Nakatsuji, X. Li, M. Caricato, A. V. Marenich, 
 J. Bloino, B. G. Janesko, R. Gomperts, B. Mennucci, H. P. Hratchian, 
 J. V. Ortiz, A. F. Izmaylov, J. L. Sonnenberg, D. Williams-Young, 
 F. Ding, F. Lipparini, F. Egidi, J. Goings, B. Peng, A. Petrone, 
 T. Henderson, D. Ranasinghe, V. G. Zakrzewski, J. Gao, N. Rega, 
 G. Zheng, W. Liang, M. Hada, M. Ehara, K. Toyota, R. Fukuda, 
 J. Hasegawa, M. Ishida, T. Nakajima, Y. Honda, O. Kitao, H. Nakai, 
 T. Vreven, K. Throssell, J. A. Montgomery, Jr., J. E. Peralta, 
 F. Ogliaro, M. J. Bearpark, J. J. Heyd, E. N. Brothers, K. N. Kudin, 
 V. N. Staroverov, T. A. Keith, R. Kobayashi, J. Normand, 
 K. Raghavachari, A. P. Rendell, J. C. Burant, S. S. Iyengar, 
 J. Tomasi, M. Cossi, J. M. Millam, M. Klene, C. Adamo, R. Cammi, 
 J. W. Ochterski, R. L. Martin, K. Morokuma, O. Farkas, 
 J. B. Foresman, and D. J. Fox, Gaussian, Inc., Wallingford CT, 2019.
 
 ******************************************
 Gaussian 16:  ES64L-G16RevC.01  3-Jul-2019
                 9-Apr-2025 
 ******************************************
 %nprocs=16
 Will use up to   16 processors via shared memory.
 %mem=30GB
 %chk=BDE49_nonexpt_2666_mol1.chk
 ----------------------------------------------------------------------
 #t hf aug-cc-pvdz iop(5/13=1,5/36=2,99/5=2) pseudo=read geom=check gue
 ss=(read,tcheck) scf=(maxcycle=1)
 ----------------------------------------------------------------------
 -----
 title
 -----
 Structure from the checkpoint file:  "BDE49_nonexpt_2666_mol1.chk"
 Charge =  0 Multiplicity = 1
 Z-Matrix found in chk file.
 F,0,2.207057,0.127083,0.00036
 S,0,0.790962,-0.859236,-0.000356
 C,0,-0.404615,0.368476,-0.000324
 S,0,-1.908199,-0.277301,0.000266
 O,0,-0.059385,1.640992,0.000036
 H,0,0.915047,1.702069,-0.000153
 Recover connectivity data from disk.
                    Distance matrix (angstroms):
                    1          2          3          4          5
     1  F    0.000000
     2  S    1.725732   0.000000
     3  C    2.622804   1.713675   0.000000
     4  S    4.135077   2.761181   1.636396   0.000000
     5  O    2.725560   2.640877   1.318515   2.664200   0.000000
     6  H    2.037123   2.564309   1.876160   3.447988   0.976344
                    6
     6  H    0.000000
 Framework group  C1[X(CHFOS2)]
 Deg. of freedom    12
                         Standard orientation:                         
 ---------------------------------------------------------------------
 Center     Atomic      Atomic             Coordinates (Angstroms)
 Number     Number       Type             X           Y           Z
 ---------------------------------------------------------------------
      1          9           0       -2.207057    0.127083   -0.000360
      2         16           0       -0.790962   -0.859236    0.000356
      3          6           0        0.404615    0.368476    0.000324
      4         16           0        1.908199   -0.277301   -0.000266
      5          8           0        0.059385    1.640992   -0.000036
      6          1           0       -0.915047    1.702069    0.000153
 ---------------------------------------------------------------------
 Rotational constants (GHZ):           6.8331425           2.1800316           1.6527438
 ======================================================================================================
                                       Pseudopotential Parameters
 ======================================================================================================
  Center     Atomic      Valence      Angular      Power
  Number     Number     Electrons     Momentum     of R      Exponent        Coefficient   SO-Coeffient
 ======================================================================================================
    1          9            9
                                      G and up 
                                                     0        0.0000010        0.00055569    0.00000000
                                                     2        0.1200000       -0.17741904    0.00000000
                                                     2        0.1400000        1.01928615    0.00000000
                                                     2        0.1600000       -1.52148367    0.00000000
                                                     2        0.2200000        1.83718211    0.00000000
                                                     2        0.3000000       -2.87348318    0.00000000
                                                     2        0.4000000        2.99646231    0.00000000
                                                     2        0.6000000       -2.11894556    0.00000000
                                                     2        1.3000000        1.79216257    0.00000000
                                      S - G
                                                     0        0.0000010       -0.00623030    0.00000000
                                                     2        0.1200000        0.13717684    0.00000000
                                                     2        0.2200000       -0.32899255    0.00000000
                                      P - G
                                                     0        0.0000010       -0.03918431    0.00000000
                                                     2        0.1200000       -0.03806127    0.00000000
                                                     2        0.3000000        0.26895041    0.00000000
                                                     2        0.8000000       -0.57822379    0.00000000
                                      D - G
                                                     0        0.0000010        0.21590327    0.00000000
                                                     2        0.1200000       -0.34443966    0.00000000
                                                     2        0.1600000        0.69000806    0.00000000
                                                     2        0.2600000       -0.73210453    0.00000000
                                      F - G
                                                     0        0.0000010       -0.14642430    0.00000000
                                                     2        0.1200000        0.06245232    0.00000000
                                                     2        0.2800000       -0.60801466    0.00000000
                                                     2        0.5000000        2.37940491    0.00000000
    2         16           16
                                      G and up 
                                                     0        0.0000010       -0.00031824    0.00000000
                                                     2        0.1200000       -0.02709645    0.00000000
                                                     2        0.1400000        0.07756871    0.00000000
                                                     2        0.1800000       -0.09276244    0.00000000
                                                     2        0.2400000        0.04926396    0.00000000
                                                     2        0.4000000        0.19256092    0.00000000
                                                     2        0.6000000       -0.68044142    0.00000000
                                                     2        1.2000000        2.88179630    0.00000000
                                      S - G
                                                     0        0.0000010       -0.00682297    0.00000000
                                                     2        0.1200000        0.09894847    0.00000000
                                                     2        0.2400000       -0.09649386    0.00000000
                                                     2        0.5000000       -0.86533519    0.00000000
                                      P - G
                                                     0        0.0000010       -0.03724640    0.00000000
                                                     2        0.1200000        0.13565737    0.00000000
                                                     2        0.1600000       -0.58061535    0.00000000
                                                     2        0.2800000        1.15300814    0.00000000
                                                     2        0.6000000       -1.81693648    0.00000000
                                      D - G
                                                     0        0.0000010       -0.04698793    0.00000000
                                                     2        0.1200000        0.09075241    0.00000000
                                                     2        0.2000000       -0.23702631    0.00000000
                                                     2        0.4000000        0.07730186    0.00000000
                                      F - G
                                                     0        0.0000010        0.08145595    0.00000000
                                                     2        0.1200000       -0.08234030    0.00000000
                                                     2        0.2200000        0.18834854    0.00000000
                                                     2        0.4000000       -0.20344406    0.00000000
    3          6            6
                                      G and up 
                                                     0        0.0000010       -0.00007288    0.00000000
                                                     2        0.1200000        0.10466671    0.00000000
                                                     2        0.1400000       -0.65716157    0.00000000
                                                     2        0.1600000        1.18890794    0.00000000
                                                     2        0.2000000       -1.25772850    0.00000000
                                                     2        0.2600000        1.01188378    0.00000000
                                                     2        0.4000000       -1.09380874    0.00000000
                                                     2        0.5000000        0.96944888    0.00000000
                                                     2        1.0000000       -0.79256938    0.00000000
                                                     2        3.0000000        1.06443276    0.00000000
                                      S - G
                                                     0        0.0000010       -0.00635295    0.00000000
                                                     2        0.1200000        0.16918955    0.00000000
                                                     2        0.1600000       -0.38862576    0.00000000
                                                     2        0.2800000        0.25638263    0.00000000
                                                     2        0.5000000        0.29628419    0.00000000
                                                     2        0.9000000       -0.28791512    0.00000000
                                      P - G
                                                     0        0.0000010       -0.04756931    0.00000000
                                                     2        0.1200000        0.28430375    0.00000000
                                                     2        0.1600000       -0.69640032    0.00000000
                                                     2        0.2600000        1.13005668    0.00000000
                                                     2        0.4000000       -1.31433324    0.00000000
                                                     2        0.7000000        0.91526469    0.00000000
                                      D - G
                                                     0        0.0000010       -0.11496411    0.00000000
                                                     2        0.1200000        0.16620776    0.00000000
                                                     2        0.1800000       -0.30959819    0.00000000
                                                     2        0.3000000        0.16621458    0.00000000
                                                     2        0.6000000        0.27350556    0.00000000
                                      F - G
                                                     0        0.0000010        0.12037550    0.00000000
                                                     2        0.1200000       -0.48737077    0.00000000
                                                     2        0.1400000        0.58315350    0.00000000
                                                     2        0.3000000        0.00005188    0.00000000
                                                     2        0.5000000       -1.16063549    0.00000000
                                                     2        0.8000000        2.09053308    0.00000000
    4         16           16
                                      G and up 
                                                     0        0.0000010       -0.00031824    0.00000000
                                                     2        0.1200000       -0.02709645    0.00000000
                                                     2        0.1400000        0.07756871    0.00000000
                                                     2        0.1800000       -0.09276244    0.00000000
                                                     2        0.2400000        0.04926396    0.00000000
                                                     2        0.4000000        0.19256092    0.00000000
                                                     2        0.6000000       -0.68044142    0.00000000
                                                     2        1.2000000        2.88179630    0.00000000
                                      S - G
                                                     0        0.0000010       -0.00682297    0.00000000
                                                     2        0.1200000        0.09894847    0.00000000
                                                     2        0.2400000       -0.09649386    0.00000000
                                                     2        0.5000000       -0.86533519    0.00000000
                                      P - G
                                                     0        0.0000010       -0.03724640    0.00000000
                                                     2        0.1200000        0.13565737    0.00000000
                                                     2        0.1600000       -0.58061535    0.00000000
                                                     2        0.2800000        1.15300814    0.00000000
                                                     2        0.6000000       -1.81693648    0.00000000
                                      D - G
                                                     0        0.0000010       -0.04698793    0.00000000
                                                     2        0.1200000        0.09075241    0.00000000
                                                     2        0.2000000       -0.23702631    0.00000000
                                                     2        0.4000000        0.07730186    0.00000000
                                      F - G
                                                     0        0.0000010        0.08145595    0.00000000
                                                     2        0.1200000       -0.08234030    0.00000000
                                                     2        0.2200000        0.18834854    0.00000000
                                                     2        0.4000000       -0.20344406    0.00000000
    5          8            8
                                      G and up 
                                                     0        0.0000010        0.00049668    0.00000000
                                                     2        0.1200000       -0.01803391    0.00000000
                                                     2        0.1400000        0.04014195    0.00000000
                                                     2        0.2000000       -0.02692147    0.00000000
                                                     2        0.2800000       -0.04241843    0.00000000
                                                     2        0.4000000        0.15412145    0.00000000
                                                     2        0.7000000       -0.40587006    0.00000000
                                                     2        1.1000000        1.75666647    0.00000000
                                      S - G
                                                     0        0.0000010       -0.01088195    0.00000000
                                                     2        0.1200000        0.09867335    0.00000000
                                                     2        0.2400000       -0.08484177    0.00000000
                                                     2        0.6000000       -1.39011554    0.00000000
                                                     2        2.5000000        1.36225910    0.00000000
                                      P - G
                                                     0        0.0000010        0.05874028    0.00000000
                                                     2        0.1200000       -0.11700340    0.00000000
                                                     2        0.1600000        0.08847775    0.00000000
                                                     2        0.3000000        0.04709907    0.00000000
                                                     2        1.2000000       -1.80388338    0.00000000
                                      D - G
                                                     0        0.0000010       -0.00541262    0.00000000
                                                     2        0.1200000       -0.26547906    0.00000000
                                                     2        0.1600000        1.04289661    0.00000000
                                                     2        0.2400000       -1.92800913    0.00000000
                                                     2        0.4000000        2.26691633    0.00000000
                                                     2        0.7000000       -1.97391482    0.00000000
                                      F - G
                                                     0        0.0000010       -0.02604870    0.00000000
                                                     2        0.1200000        0.37362552    0.00000000
                                                     2        0.1600000       -1.43526367    0.00000000
                                                     2        0.2200000        1.76778079    0.00000000
                                                     2        0.5000000       -1.90846303    0.00000000
    6          1            1
                                      F and up 
                                                     0        0.0000010       -0.00007675    0.00000000
                                                     2        0.1200000        0.05352699    0.00000000
                                                     2        0.1400000       -0.25123645    0.00000000
                                                     2        0.1600000        0.32188106    0.00000000
                                                     2        0.2200000       -0.25206857    0.00000000
                                                     2        0.3000000        0.19290477    0.00000000
                                                     2        0.5000000       -0.10129770    0.00000000
                                                     2        0.9000000        0.00314995    0.00000000
                                                     2        1.5000000        0.18401192    0.00000000
                                      S - F
                                                     0        0.0000010        0.08065976    0.00000000
                                                     2        0.1200000       -0.09231673    0.00000000
                                                     2        0.1600000       -0.03278082    0.00000000
                                                     2        0.2800000        0.38423402    0.00000000
                                                     2        0.6000000       -1.09357590    0.00000000
                                                     2        1.1000000        1.53099489    0.00000000
                                                     2        3.0000000       -2.63300202    0.00000000
                                      P - F
                                                     0        0.0000010       -0.11638665    0.00000000
                                                     2        0.1200000        0.35468655    0.00000000
                                                     2        0.1600000       -0.59160923    0.00000000
                                                     2        0.3000000        0.49390547    0.00000000
                                                     2        0.6000000       -0.37949835    0.00000000
                                                     2        1.6000000        0.89304688    0.00000000
                                      D - F
                                                     0        0.0000010        0.05443663    0.00000000
                                                     2        0.1200000       -0.29679479    0.00000000
                                                     2        0.1400000        0.36849872    0.00000000
                                                     2        0.2400000        0.02793449    0.00000000
                                                     2        0.4000000       -0.46312857    0.00000000
                                                     2        0.7000000        0.97587598    0.00000000
                                                     2        1.5000000       -2.43431102    0.00000000
 ======================================================================================================
   132 basis functions,   302 primitive gaussians,   142 cartesian basis functions
    28 alpha electrons       28 beta electrons
       nuclear repulsion energy       281.6699479440 Hartrees.
 NAtoms=    6 NActive=    6 NUniq=    6 SFac= 1.00D+00 NAtFMM=   60 NAOKFM=F Big=F
   1 Symmetry operations used in ECPInt.
 ECPInt:  NShTT=    1485 NPrTT=   13585 LenC2=    1476 LenP2D=    9287.
 LDataN:  DoStor=T MaxTD1= 6 Len=  172
 Initial guess from the checkpoint file:  "BDE49_nonexpt_2666_mol1.chk"
 B after Tr=    -0.000000   -0.000001   -0.000000
         Rot=    0.000000    0.000000    1.000000   -0.000000 Ang= 180.00 deg.
 >>>>>>>>>> Convergence criterion not met.
 SCF Done:  E(RHF) =  -1008.10808441     A.U. after    2 cycles
            NFock=  1  Conv=0.65D-02     -V/T= 2.0033

 **********************************************************************

            Population analysis using the SCF Density.

 **********************************************************************

 Orbital symmetries:
       Occupied  (A) (A) (A) (A) (A) (A) (A) (A) (A) (A) (A) (A)
                 (A) (A) (A) (A) (A) (A) (A) (A) (A) (A) (A) (A)
                 (A) (A) (A) (A)
       Virtual   (A) (A) (A) (A) (A) (A) (A) (A) (A) (A) (A) (A)
                 (A) (A) (A) (A) (A) (A) (A) (A) (A) (A) (A) (A)
                 (A) (A) (A) (A) (A) (A) (A) (A) (A) (A) (A) (A)
                 (A) (A) (A) (A) (A) (A) (A) (A) (A) (A) (A) (A)
                 (A) (A) (A) (A) (A) (A) (A) (A) (A) (A) (A) (A)
                 (A) (A) (A) (A) (A) (A) (A) (A) (A) (A) (A) (A)
                 (A) (A) (A) (A) (A) (A) (A) (A) (A) (A) (A) (A)
                 (A) (A) (A) (A) (A) (A) (A) (A) (A) (A) (A) (A)
                 (A) (A) (A) (A) (A) (A) (A) (A)
 The electronic state is 1-A.
 Alpha  occ. eigenvalues --  -94.09417 -93.95094 -26.50406 -20.65951 -11.44674
 Alpha  occ. eigenvalues --   -8.36713  -8.23390  -6.34451  -6.34171  -6.33861
 Alpha  occ. eigenvalues --   -6.21242  -6.20910  -6.20821  -1.60151  -1.57777
 Alpha  occ. eigenvalues --   -1.16545  -1.02371  -0.86113  -0.78121  -0.69489
 Alpha  occ. eigenvalues --   -0.68921  -0.64973  -0.64748  -0.60313  -0.53857
 Alpha  occ. eigenvalues --   -0.48060  -0.38556  -0.38030
 Alpha virt. eigenvalues --    0.02946   0.04619   0.05139   0.06590   0.08297
 Alpha virt. eigenvalues --    0.11216   0.11671   0.12436   0.12901   0.13503
 Alpha virt. eigenvalues --    0.14724   0.16103   0.16777   0.20985   0.21938
 Alpha virt. eigenvalues --    0.22889   0.24876   0.25809   0.28335   0.29520
 Alpha virt. eigenvalues --    0.29680   0.31496   0.32098   0.33375   0.34792
 Alpha virt. eigenvalues --    0.37574   0.37861   0.41924   0.43560   0.46834
 Alpha virt. eigenvalues --    0.47580   0.50585   0.51535   0.52417   0.53654
 Alpha virt. eigenvalues --    0.56437   0.58313   0.63698   0.64451   0.66399
 Alpha virt. eigenvalues --    0.68087   0.70810   0.71718   0.74190   0.81825
 Alpha virt. eigenvalues --    0.83616   0.89748   0.91856   0.94336   0.94484
 Alpha virt. eigenvalues --    0.96922   0.98498   1.02270   1.06239   1.10203
 Alpha virt. eigenvalues --    1.11272   1.16258   1.18634   1.20422   1.21751
 Alpha virt. eigenvalues --    1.23763   1.24234   1.25772   1.26146   1.29744
 Alpha virt. eigenvalues --    1.32699   1.36268   1.38224   1.38991   1.47726
 Alpha virt. eigenvalues --    1.49196   1.49986   1.52908   1.59748   1.70340
 Alpha virt. eigenvalues --    1.70450   1.71225   1.75246   1.79320   1.81587
 Alpha virt. eigenvalues --    1.85455   1.90665   1.94427   2.06095   2.13860
 Alpha virt. eigenvalues --    2.15434   2.20900   2.26854   2.34165   2.58551
 Alpha virt. eigenvalues --    2.65405   2.98520   3.04408   3.17600   3.75344
 Alpha virt. eigenvalues --    3.78308   3.81187   3.98291   4.33121   5.09309
 Alpha virt. eigenvalues --    5.15678   5.19153   5.24545   5.29710
          Condensed to atoms (all electrons):
 Mulliken charges:
               1
     1  F   -0.681791
     2  S    1.065018
     3  C   -0.082959
     4  S    0.401478
     5  O   -1.153702
     6  H    0.451957
 Sum of Mulliken charges =  -0.00000
 Mulliken charges with hydrogens summed into heavy atoms:
               1
     1  F   -0.681791
     2  S    1.065018
     3  C   -0.082959
     4  S    0.401478
     5  O   -0.701746
 Electronic spatial extent (au):  <R**2>=            642.7480
 Charge=              0.0000 electrons
 Dipole moment (field-independent basis, Debye):
    X=             -2.0971    Y=              0.3729    Z=              0.0011  Tot=              2.1300

 Test job not archived.
 1\1\GINC-SE249\SP\RHF\Aug-CC-pVDZ\C1H1F1O1S2\OHZDE\09-Apr-2025\0\\#t h
 f aug-cc-pvdz iop(5/13=1,5/36=2,99/5=2) pseudo=read geom=check guess=(
 read,tcheck) scf=(maxcycle=1)\\title\\0,1\F,0,2.207057,0.127083,0.0003
 6\S,0,0.790962,-0.859236,-0.000356\C,0,-0.404615,0.368476,-0.000324\S,
 0,-1.908199,-0.277301,0.000266\O,0,-0.059385,1.640992,0.000036\H,0,0.9
 15047,1.702069,-0.000153\\Version=ES64L-G16RevC.01\State=1-A\HF=-1008.
 1080844\RMSD=6.490e-03\Dipole=0.8250501,0.1466936,-0.0004445\Quadrupol
 e=-2.1750231,2.0542833,0.1207398,1.3627898,-0.0013501,-0.0007415\PG=C0
 1 [X(C1H1F1O1S2)]\\@


 GOORD'S AXIOM:  A MEETING IS AN EVENT AT WHICH
 THE MINUTES ARE KEPT AND THE HOURS ARE LOST.
 Job cpu time:       0 days  0 hours  0 minutes 25.0 seconds.
 Elapsed time:       0 days  0 hours  0 minutes  2.5 seconds.
 File lengths (MBytes):  RWF=      6 Int=      0 D2E=      0 Chk=      4 Scr=      1
 Normal termination of Gaussian 16 at Wed Apr  9 00:22:41 2025.
