 Entering Gaussian System, Link 0=g16
 Input=BH10_181_reverse_mol2.gjf
 Output=BH10_181_reverse_mol2.log
 Initial command:
 /arc/software/Gaussian/g16.c01/l1.exe "/tmp/slurm/4855981/Gau-261883.inp" -scrdir="/tmp/slurm/4855981/"
 Entering Link 1 = /arc/software/Gaussian/g16.c01/l1.exe PID=    261884.
  
 Copyright (c) 1988-2019, Gaussian, Inc.  All Rights Reserved.
  
 This is part of the Gaussian(R) 16 program.  It is based on
 the Gaussian(R) 09 system (copyright 2009, Gaussian, Inc.),
 the Gaussian(R) 03 system (copyright 2003, Gaussian, Inc.),
 the Gaussian(R) 98 system (copyright 1998, Gaussian, Inc.),
 the Gaussian(R) 94 system (copyright 1995, Gaussian, Inc.),
 the Gaussian 92(TM) system (copyright 1992, Gaussian, Inc.),
 the Gaussian 90(TM) system (copyright 1990, Gaussian, Inc.),
 the Gaussian 88(TM) system (copyright 1988, Gaussian, Inc.),
 the Gaussian 86(TM) system (copyright 1986, Carnegie Mellon
 University), and the Gaussian 82(TM) system (copyright 1983,
 Carnegie Mellon University). Gaussian is a federally registered
 trademark of Gaussian, Inc.
  
 This software contains proprietary and confidential information,
 including trade secrets, belonging to Gaussian, Inc.
  
 This software is provided under written license and may be
 used, copied, transmitted, or stored only in accord with that
 written license.
  
 The following legend is applicable only to US Government
 contracts under FAR:
  
                    RESTRICTED RIGHTS LEGEND
  
 Use, reproduction and disclosure by the US Government is
 subject to restrictions as set forth in subparagraphs (a)
 and (c) of the Commercial Computer Software - Restricted
 Rights clause in FAR 52.227-19.
  
 Gaussian, Inc.
 340 Quinnipiac St., Bldg. 40, Wallingford CT 06492
  
  
 ---------------------------------------------------------------
 Warning -- This program may not be used in any manner that
 competes with the business of Gaussian, Inc. or will provide
 assistance to any competitor of Gaussian, Inc.  The licensee
 of this program is prohibited from giving any competitor of
 Gaussian, Inc. access to this program.  By using this program,
 the user acknowledges that Gaussian, Inc. is engaged in the
 business of creating and licensing software in the field of
 computational chemistry and represents and warrants to the
 licensee that it is not a competitor of Gaussian, Inc. and that
 it will not use this program in any manner prohibited above.
 ---------------------------------------------------------------
  

 Cite this work as:
 Gaussian 16, Revision C.01,
 M. J. Frisch, G. W. Trucks, H. B. Schlegel, G. E. Scuseria, 
 M. A. Robb, J. R. Cheeseman, G. Scalmani, V. Barone, 
 G. A. Petersson, H. Nakatsuji, X. Li, M. Caricato, A. V. Marenich, 
 J. Bloino, B. G. Janesko, R. Gomperts, B. Mennucci, H. P. Hratchian, 
 J. V. Ortiz, A. F. Izmaylov, J. L. Sonnenberg, D. Williams-Young, 
 F. Ding, F. Lipparini, F. Egidi, J. Goings, B. Peng, A. Petrone, 
 T. Henderson, D. Ranasinghe, V. G. Zakrzewski, J. Gao, N. Rega, 
 G. Zheng, W. Liang, M. Hada, M. Ehara, K. Toyota, R. Fukuda, 
 J. Hasegawa, M. Ishida, T. Nakajima, Y. Honda, O. Kitao, H. Nakai, 
 T. Vreven, K. Throssell, J. A. Montgomery, Jr., J. E. Peralta, 
 F. Ogliaro, M. J. Bearpark, J. J. Heyd, E. N. Brothers, K. N. Kudin, 
 V. N. Staroverov, T. A. Keith, R. Kobayashi, J. Normand, 
 K. Raghavachari, A. P. Rendell, J. C. Burant, S. S. Iyengar, 
 J. Tomasi, M. Cossi, J. M. Millam, M. Klene, C. Adamo, R. Cammi, 
 J. W. Ochterski, R. L. Martin, K. Morokuma, O. Farkas, 
 J. B. Foresman, and D. J. Fox, Gaussian, Inc., Wallingford CT, 2019.
 
 ******************************************
 Gaussian 16:  ES64L-G16RevC.01  3-Jul-2019
                 9-Apr-2025 
 ******************************************
 %nprocs=16
 Will use up to   16 processors via shared memory.
 %mem=30GB
 %chk=BH10_181_reverse_mol2.chk
 ----------------------------------------------------------------------
 #t hf aug-cc-pvdz symm=none int=(grid=ultrafine) guess=(read,tcheck) s
 table=opt
 ----------------------------------------------------------------------
 -----
 title
 -----
 Symbolic Z-matrix:
 Charge =  0 Multiplicity = 2
 N                    -0.93293  -0.20022   0.74258 
 S                    -0.00091  -1.27243  -0.09645 
 O                     1.33463  -0.43034  -0.37996 
 C                     2.14979  -0.04953   0.75026 
 C                     3.34816   0.69648   0.19808 
 H                     2.44928  -0.95254   1.28354 
 H                     1.55036   0.58335   1.40856 
 C                     2.99684   1.93211  -0.54826 
 H                     3.90479   0.00319  -0.4502 
 H                     4.01335   0.92571   1.03604 
 H                     3.68509   2.76546  -0.58916 
 C                    -1.84766   0.78809   0.1095 
 C                    -3.04509   0.09777  -0.547 
 C                    -1.07644   1.62661  -0.90641 
 C                    -2.31782   1.67465   1.26147 
 H                    -2.84676   1.08903   2.01854 
 H                    -3.0073    2.43388   0.88906 
 H                    -1.47226   2.17359   1.73725 
 H                    -2.72436  -0.54804  -1.3629 
 H                    -3.73625   0.84496  -0.94289 
 H                    -3.58665  -0.50922   0.18305 
 H                    -0.7181    1.02012  -1.73796 
 H                    -0.22357   2.11741  -0.43537 
 H                    -1.73723   2.39581  -1.30953 
 O                    -0.5188   -1.5427   -1.41173 
 O                     0.30062  -2.33287   0.83792 
 H                     2.1401    1.93824  -1.20832 
 H                    -1.32381  -0.67036   1.54989 
 
                    Distance matrix (angstroms):
                    1          2          3          4          5
     1  N    0.000000
     2  S    1.649922   0.000000
     3  O    2.540636   1.604101   0.000000
     4  C    3.086411   2.614942   1.444610   0.000000
     5  C    4.407752   3.896101   2.378690   1.515754   0.000000
     6  H    3.506838   2.830212   2.069385   1.090648   2.169212
     7  H    2.687791   2.848752   2.067095   1.092344   2.170289
     8  C    4.653620   4.411312   2.893516   2.516049   1.485672
     9  H    4.986739   4.123929   2.607413   2.126943   1.100339
    10  H    5.081284   4.714715   3.319551   2.122633   1.094159
    11  H    5.647553   5.489430   3.972600   3.474955   2.239185
    12  C    1.488048   2.774639   3.442538   4.134222   5.197383
    13  C    2.492599   3.368603   4.414605   5.356436   6.464308
    14  C    2.465176   3.196442   3.212702   3.995320   4.654262
    15  C    2.387952   3.987137   4.523891   4.815979   5.847302
    16  H    2.636861   4.260113   5.054236   5.279245   6.468793
    17  H    3.356034   4.873017   5.354104   5.725568   6.624791
    18  H    2.629682   4.171610   4.375110   4.362984   5.271370
    19  H    2.786255   3.089625   4.177962   5.335848   6.392258
    20  H    3.433920   4.376360   5.258996   6.189695   7.177237
    21  H    2.729615   3.676704   4.954006   5.782719   7.038861
    22  H    2.772800   2.909408   2.856865   3.944638   4.515250
    23  H    2.694842   3.414005   2.986983   3.425519   3.895842
    24  H    3.405501   4.235841   4.276395   5.033028   5.569727
    25  O    2.571923   1.439174   2.395224   3.745018   4.749611
    26  O    2.465545   1.445171   2.484356   2.939521   4.344406
    27  H    4.221668   4.016031   2.635357   2.790573   2.231439
    28  H    1.012703   2.196130   3.293812   3.618118   5.052027
                    6          7          8          9         10
     6  H    0.000000
     7  H    1.783999   0.000000
     8  C    3.460707   2.782190   0.000000
     9  H    2.457194   3.055308   2.134169   0.000000
    10  H    2.456701   2.514416   2.134504   1.752633   0.000000
    11  H    4.342552   3.648224   1.081587   2.774472   2.476634
    12  C    4.782447   3.643621   5.021017   5.832661   5.935383
    13  C    5.885754   5.017781   6.314251   6.951195   7.281003
    14  C    4.886572   3.653427   4.100395   5.258920   5.492749
    15  C    5.443140   4.021856   5.620234   6.666662   6.379291
    16  H    5.723308   4.467936   6.437935   7.270294   6.932033
    17  H    6.434098   4.946364   6.194138   7.448404   7.182311
    18  H    5.035567   3.431192   5.025410   6.197432   5.669282
    19  H    5.825265   5.218637   6.288632   6.714342   7.302289
    20  H    6.815326   5.791884   6.831703   7.703032   7.998679
    21  H    6.151424   5.392998   7.059553   7.535596   7.781166
    22  H    4.801363   3.903486   4.005987   4.905460   5.485485
    23  H    4.418524   2.983323   3.227716   4.638261   4.640761
    24  H    5.955024   4.634784   4.817265   6.188332   6.382165
    25  O    4.052436   4.093352   5.017929   4.783558   5.711823
    26  O    2.592412   3.223635   5.232699   4.484023   4.943874
    27  H    3.829035   3.005247   1.081537   2.726397   3.093764
    28  H    3.792988   3.138888   5.462885   5.638464   5.594347
                   11         12         13         14         15
    11  H    0.000000
    12  C    5.916873   0.000000
    13  C    7.239726   1.530155   0.000000
    14  C    4.906094   1.526424   2.518357   0.000000
    15  C    6.375702   1.527769   2.507195   2.498607   0.000000
    16  H    7.230188   2.175601   2.757525   3.460983   1.093569
    17  H    6.861710   2.158959   2.742461   2.757462   1.091102
    18  H    5.688649   2.170279   3.464190   2.728517   1.090998
    19  H    7.256647   2.172969   1.088869   2.766430   3.463081
    20  H    7.673961   2.162758   1.092112   2.772526   2.749460
    21  H    8.012367   2.170834   1.093025   3.471293   2.746307
    22  H    4.873811   2.177800   2.771997   1.089822   3.461799
    23  H    3.965000   2.168325   3.471652   1.090937   2.731516
    24  H    5.482438   2.147228   2.751894   1.091245   2.732613
    25  O    6.075321   3.084248   3.133858   3.257434   4.553439
    26  O    6.283641   3.858250   4.361173   4.540542   4.805810
    27  H    1.858665   4.354501   5.541737   3.245671   5.103170
    28  H    6.439678   2.115705   2.819532   3.372044   2.563256
                   16         17         18         19         20
    16  H    0.000000
    17  H    1.763556   0.000000
    18  H    1.773316   1.772998   0.000000
    19  H    3.758875   3.747429   4.311141   0.000000
    20  H    3.101748   2.532209   3.751541   1.772224   0.000000
    21  H    2.543791   3.081548   3.752818   1.770599   1.767459
    22  H    4.318245   3.760364   3.738490   2.573877   3.126022
    23  H    3.736363   3.098935   2.506526   3.770790   3.770360
    24  H    3.743632   2.539346   3.066341   3.105405   2.556489
    25  O    4.910419   5.224887   4.963463   2.419961   4.033944
    26  O    4.796800   5.802312   4.925447   4.144841   5.437479
    27  H    6.000214   5.580351   4.666999   5.465199   5.983074
    28  H    2.373703   3.592646   2.853973   3.234315   3.785492
                   21         22         23         24         25
    21  H    0.000000
    22  H    3.775938   0.000000
    23  H    4.311837   1.773509   0.000000
    24  H    3.753311   1.764857   1.769979   0.000000
    25  O    3.608758   2.591174   3.799585   4.123945   0.000000
    26  O    4.343436   4.349192   4.658438   5.578963   2.521262
    27  H    6.381349   3.048407   2.493287   3.905552   4.384980
    28  H    2.648517   3.746264   3.594918   4.212904   3.190644
                   26         27         28
    26  O    0.000000
    27  H    5.080661   0.000000
    28  H    2.430971   5.139176   0.000000
 Symmetry turned off by external request.
 Rotational constants (GHZ):           1.0909359           0.6206491           0.4888086
   424 basis functions,   730 primitive gaussians,   448 cartesian basis functions
    53 alpha electrons       52 beta electrons
       nuclear repulsion energy       964.4266611763 Hartrees.
 NAtoms=   28 NActive=   28 NUniq=   28 SFac= 1.00D+00 NAtFMM=   60 NAOKFM=F Big=F
 ExpMin= 2.97D-02 ExpMax= 1.11D+05 ExpMxC= 1.07D+03 IAcc=3 IRadAn=         5 AccDes= 0.00D+00
 Harris functional with IExCor=  205 and IRadAn=       5 diagonalized for initial guess.
 HarFok:  IExCor=  205 AccDes= 0.00D+00 IRadAn=         5 IDoV= 1 UseB2=F ITyADJ=14
 ICtDFT=  3500011 ScaDFX=  1.000000  1.000000  1.000000  1.000000
 FoFCou: FMM=F IPFlag=           0 FMFlag=      100000 FMFlg1=           0
         NFxFlg=           0 DoJE=T BraDBF=F KetDBF=T FulRan=T
         wScrn=  0.000000 ICntrl=       500 IOpCl=  0 I1Cent=   200000004 NGrid=           0
         NMat0=    1 NMatS0=      1 NMatT0=    0 NMatD0=    1 NMtDS0=    0 NMtDT0=    0
 Symmetry not used in FoFCou.
 Initial guess <Sx>= 0.0000 <Sy>= 0.0000 <Sz>= 0.5000 <S**2>= 0.7500 S= 0.5000
 SCF Done:  E(UHF) =  -950.901328892     A.U. after   17 cycles
            NFock= 17  Conv=0.47D-08     -V/T= 2.0009
 <Sx>= 0.0000 <Sy>= 0.0000 <Sz>= 0.5000 <S**2>= 0.7626 S= 0.5063
 <L.S>=  0.00000000000    
 Annihilation of the first spin contaminant:
 S**2 before annihilation     0.7626,   after     0.7501

 **********************************************************************

            Population analysis using the SCF Density.

 **********************************************************************

 Alpha  occ. eigenvalues --  -92.25973 -20.62352 -20.56590 -20.56363 -15.60790
 Alpha  occ. eigenvalues --  -11.30727 -11.29934 -11.24765 -11.24485 -11.23998
 Alpha  occ. eigenvalues --  -11.22962 -11.22552  -9.22274  -6.90875  -6.90820
 Alpha  occ. eigenvalues --   -6.90762  -1.51690  -1.39236  -1.36177  -1.25146
 Alpha  occ. eigenvalues --   -1.09112  -1.07965  -0.96373  -0.95520  -0.94963
 Alpha  occ. eigenvalues --   -0.87283  -0.82641  -0.78811  -0.74506  -0.72346
 Alpha  occ. eigenvalues --   -0.68572  -0.67043  -0.65496  -0.63090  -0.62442
 Alpha  occ. eigenvalues --   -0.61128  -0.59815  -0.57485  -0.57160  -0.56015
 Alpha  occ. eigenvalues --   -0.54651  -0.54051  -0.53480  -0.52625  -0.51597
 Alpha  occ. eigenvalues --   -0.50341  -0.50125  -0.49221  -0.48468  -0.47675
 Alpha  occ. eigenvalues --   -0.47538  -0.42216  -0.36270
 Alpha virt. eigenvalues --    0.02909   0.03699   0.04033   0.04765   0.05123
 Alpha virt. eigenvalues --    0.05597   0.05705   0.06681   0.07128   0.07507
 Alpha virt. eigenvalues --    0.07885   0.08296   0.08786   0.10126   0.10144
 Alpha virt. eigenvalues --    0.10813   0.11374   0.13131   0.13488   0.14009
 Alpha virt. eigenvalues --    0.14438   0.15071   0.15103   0.15430   0.15958
 Alpha virt. eigenvalues --    0.16474   0.16742   0.16790   0.17041   0.17456
 Alpha virt. eigenvalues --    0.18151   0.18349   0.18699   0.18956   0.19708
 Alpha virt. eigenvalues --    0.19916   0.20437   0.21028   0.21431   0.21511
 Alpha virt. eigenvalues --    0.22039   0.22886   0.23283   0.23348   0.23858
 Alpha virt. eigenvalues --    0.24425   0.25052   0.26006   0.26781   0.27317
 Alpha virt. eigenvalues --    0.27656   0.28247   0.28723   0.29879   0.30432
 Alpha virt. eigenvalues --    0.31280   0.32035   0.32599   0.32993   0.33689
 Alpha virt. eigenvalues --    0.33774   0.34230   0.34714   0.35106   0.35795
 Alpha virt. eigenvalues --    0.36287   0.36642   0.37121   0.37923   0.38337
 Alpha virt. eigenvalues --    0.38719   0.39253   0.39640   0.40171   0.40667
 Alpha virt. eigenvalues --    0.41008   0.41409   0.42675   0.42964   0.43107
 Alpha virt. eigenvalues --    0.43552   0.44521   0.44839   0.45022   0.45336
 Alpha virt. eigenvalues --    0.45970   0.46821   0.47088   0.48001   0.48198
 Alpha virt. eigenvalues --    0.49016   0.49137   0.49621   0.49957   0.50542
 Alpha virt. eigenvalues --    0.50679   0.51152   0.51621   0.52469   0.53094
 Alpha virt. eigenvalues --    0.54088   0.54390   0.55227   0.55374   0.56099
 Alpha virt. eigenvalues --    0.57102   0.57392   0.58180   0.58579   0.59211
 Alpha virt. eigenvalues --    0.59528   0.59667   0.60541   0.60873   0.61542
 Alpha virt. eigenvalues --    0.61874   0.62514   0.62819   0.63387   0.64025
 Alpha virt. eigenvalues --    0.64377   0.64828   0.64932   0.65626   0.66241
 Alpha virt. eigenvalues --    0.66770   0.67266   0.68843   0.69452   0.69825
 Alpha virt. eigenvalues --    0.69956   0.70829   0.71002   0.72093   0.72480
 Alpha virt. eigenvalues --    0.72926   0.74051   0.74359   0.75307   0.76174
 Alpha virt. eigenvalues --    0.76424   0.76986   0.77172   0.77955   0.78557
 Alpha virt. eigenvalues --    0.79578   0.79689   0.80782   0.81306   0.81724
 Alpha virt. eigenvalues --    0.82294   0.82628   0.83576   0.84663   0.84930
 Alpha virt. eigenvalues --    0.85858   0.86768   0.87142   0.88245   0.88664
 Alpha virt. eigenvalues --    0.89533   0.89651   0.90243   0.91178   0.92072
 Alpha virt. eigenvalues --    0.92467   0.93116   0.94093   0.94810   0.95416
 Alpha virt. eigenvalues --    0.96924   0.97798   0.98583   0.99530   0.99616
 Alpha virt. eigenvalues --    1.00657   1.01541   1.03119   1.04108   1.05471
 Alpha virt. eigenvalues --    1.06033   1.08079   1.08599   1.09923   1.10835
 Alpha virt. eigenvalues --    1.11333   1.12932   1.13294   1.15147   1.16268
 Alpha virt. eigenvalues --    1.17312   1.17792   1.19514   1.21616   1.22488
 Alpha virt. eigenvalues --    1.23451   1.23605   1.25218   1.26961   1.27603
 Alpha virt. eigenvalues --    1.27880   1.28669   1.28941   1.31173   1.31596
 Alpha virt. eigenvalues --    1.32864   1.34165   1.35944   1.36727   1.37367
 Alpha virt. eigenvalues --    1.38312   1.40151   1.41175   1.41833   1.42197
 Alpha virt. eigenvalues --    1.43280   1.45486   1.46251   1.47645   1.48590
 Alpha virt. eigenvalues --    1.51626   1.52355   1.53191   1.53948   1.56064
 Alpha virt. eigenvalues --    1.57182   1.59153   1.59638   1.61333   1.62249
 Alpha virt. eigenvalues --    1.62983   1.64199   1.67341   1.67865   1.68505
 Alpha virt. eigenvalues --    1.70925   1.72439   1.73550   1.74629   1.75947
 Alpha virt. eigenvalues --    1.76446   1.77416   1.80112   1.80168   1.81034
 Alpha virt. eigenvalues --    1.82100   1.82855   1.84996   1.85661   1.86750
 Alpha virt. eigenvalues --    1.87098   1.88632   1.91691   1.92602   1.93202
 Alpha virt. eigenvalues --    1.95444   1.96515   1.97898   1.99451   2.00359
 Alpha virt. eigenvalues --    2.00928   2.01508   2.02966   2.03986   2.06498
 Alpha virt. eigenvalues --    2.06785   2.08295   2.08592   2.09328   2.10490
 Alpha virt. eigenvalues --    2.12306   2.13550   2.14526   2.14824   2.16391
 Alpha virt. eigenvalues --    2.17538   2.18313   2.19427   2.20347   2.23305
 Alpha virt. eigenvalues --    2.23757   2.24336   2.25919   2.26010   2.27291
 Alpha virt. eigenvalues --    2.29152   2.29579   2.30939   2.32261   2.32499
 Alpha virt. eigenvalues --    2.33598   2.34207   2.34804   2.36843   2.37943
 Alpha virt. eigenvalues --    2.38437   2.40498   2.41833   2.42946   2.43750
 Alpha virt. eigenvalues --    2.45841   2.46382   2.48610   2.52937   2.54305
 Alpha virt. eigenvalues --    2.55471   2.57058   2.59024   2.60152   2.61734
 Alpha virt. eigenvalues --    2.62410   2.64187   2.64491   2.65594   2.66883
 Alpha virt. eigenvalues --    2.67514   2.69655   2.70982   2.72654   2.73163
 Alpha virt. eigenvalues --    2.76856   2.78522   2.79607   2.81308   2.82647
 Alpha virt. eigenvalues --    2.83269   2.85776   2.88835   2.90184   2.91740
 Alpha virt. eigenvalues --    2.92570   2.93569   2.96238   2.99257   3.00242
 Alpha virt. eigenvalues --    3.01645   3.04839   3.05587   3.08152   3.08456
 Alpha virt. eigenvalues --    3.10209   3.12372   3.13945   3.23241   3.25480
 Alpha virt. eigenvalues --    3.26333   3.28738   3.31614   3.41165   3.46669
 Alpha virt. eigenvalues --    3.50287   3.58336   3.59222   3.64846   3.67942
 Alpha virt. eigenvalues --    3.73799   3.75220   3.77294   3.78804   3.80879
 Alpha virt. eigenvalues --    3.84022   3.85208   3.87733   3.89626   3.90431
 Alpha virt. eigenvalues --    3.92403   4.00019   4.04715   4.08077   4.13916
 Alpha virt. eigenvalues --    4.19778
  Beta  occ. eigenvalues --  -92.25973 -20.62362 -20.56590 -20.56364 -15.60790
  Beta  occ. eigenvalues --  -11.30636 -11.29935 -11.25077 -11.23998 -11.22959
  Beta  occ. eigenvalues --  -11.22552 -11.22058  -9.22273  -6.90875  -6.90818
  Beta  occ. eigenvalues --   -6.90762  -1.51693  -1.39241  -1.36178  -1.25145
  Beta  occ. eigenvalues --   -1.08663  -1.06737  -0.95815  -0.95053  -0.92736
  Beta  occ. eigenvalues --   -0.86405  -0.80318  -0.77986  -0.74404  -0.72313
  Beta  occ. eigenvalues --   -0.68343  -0.66787  -0.65422  -0.62771  -0.61905
  Beta  occ. eigenvalues --   -0.60800  -0.59552  -0.57186  -0.56556  -0.55365
  Beta  occ. eigenvalues --   -0.54546  -0.53488  -0.52768  -0.52424  -0.51536
  Beta  occ. eigenvalues --   -0.50264  -0.49952  -0.49080  -0.48208  -0.47660
  Beta  occ. eigenvalues --   -0.47519  -0.42197
  Beta virt. eigenvalues --    0.02897   0.03721   0.04051   0.04722   0.05121
  Beta virt. eigenvalues --    0.05600   0.05675   0.06690   0.06896   0.07500
  Beta virt. eigenvalues --    0.07846   0.08157   0.08554   0.09132   0.10143
  Beta virt. eigenvalues --    0.10365   0.11377   0.12431   0.13170   0.13600
  Beta virt. eigenvalues --    0.14200   0.14514   0.15102   0.15336   0.15975
  Beta virt. eigenvalues --    0.16202   0.16533   0.16811   0.17078   0.17191
  Beta virt. eigenvalues --    0.17935   0.18374   0.18645   0.18771   0.19252
  Beta virt. eigenvalues --    0.19931   0.19970   0.20918   0.21336   0.21559
  Beta virt. eigenvalues --    0.21676   0.22626   0.22933   0.23420   0.23558
  Beta virt. eigenvalues --    0.23960   0.24503   0.25228   0.26184   0.27051
  Beta virt. eigenvalues --    0.27471   0.27778   0.28504   0.28941   0.29967
  Beta virt. eigenvalues --    0.30746   0.31365   0.32058   0.32677   0.33136
  Beta virt. eigenvalues --    0.33831   0.34056   0.34433   0.34892   0.35267
  Beta virt. eigenvalues --    0.36008   0.36696   0.36935   0.37370   0.38099
  Beta virt. eigenvalues --    0.38670   0.38821   0.39521   0.39835   0.40472
  Beta virt. eigenvalues --    0.40845   0.41137   0.41925   0.42820   0.43090
  Beta virt. eigenvalues --    0.43229   0.43682   0.44631   0.44975   0.45210
  Beta virt. eigenvalues --    0.45534   0.46157   0.46886   0.47297   0.48226
  Beta virt. eigenvalues --    0.48768   0.49160   0.49435   0.49803   0.50090
  Beta virt. eigenvalues --    0.50780   0.50846   0.51414   0.51798   0.52654
  Beta virt. eigenvalues --    0.53390   0.54244   0.54499   0.55354   0.55679
  Beta virt. eigenvalues --    0.56560   0.57161   0.57838   0.58268   0.58770
  Beta virt. eigenvalues --    0.59507   0.59867   0.60336   0.60986   0.61630
  Beta virt. eigenvalues --    0.62082   0.62594   0.62823   0.63155   0.63739
  Beta virt. eigenvalues --    0.64235   0.64507   0.65011   0.65419   0.65749
  Beta virt. eigenvalues --    0.66680   0.66850   0.67568   0.69087   0.69778
  Beta virt. eigenvalues --    0.69963   0.70335   0.71163   0.71482   0.72435
  Beta virt. eigenvalues --    0.72752   0.73104   0.74376   0.74681   0.75546
  Beta virt. eigenvalues --    0.76344   0.76509   0.77296   0.77476   0.78389
  Beta virt. eigenvalues --    0.78745   0.79775   0.79860   0.80944   0.81526
  Beta virt. eigenvalues --    0.81962   0.82738   0.83145   0.83796   0.84743
  Beta virt. eigenvalues --    0.85005   0.86184   0.86985   0.87331   0.88526
  Beta virt. eigenvalues --    0.88914   0.89688   0.89926   0.90422   0.91260
  Beta virt. eigenvalues --    0.92165   0.92614   0.93404   0.94255   0.95035
  Beta virt. eigenvalues --    0.95609   0.97156   0.97926   0.98805   0.99619
  Beta virt. eigenvalues --    0.99776   1.00700   1.01629   1.03222   1.04433
  Beta virt. eigenvalues --    1.05520   1.06425   1.08297   1.08718   1.10204
  Beta virt. eigenvalues --    1.10979   1.11671   1.13264   1.15163   1.16150
  Beta virt. eigenvalues --    1.16456   1.17465   1.18525   1.19686   1.22016
  Beta virt. eigenvalues --    1.22541   1.23716   1.24342   1.25347   1.27085
  Beta virt. eigenvalues --    1.27703   1.28734   1.28998   1.29321   1.31261
  Beta virt. eigenvalues --    1.31685   1.32892   1.34238   1.36058   1.36837
  Beta virt. eigenvalues --    1.37441   1.38463   1.40307   1.41249   1.41937
  Beta virt. eigenvalues --    1.42352   1.43336   1.45580   1.46344   1.47778
  Beta virt. eigenvalues --    1.48658   1.51739   1.52529   1.53267   1.54287
  Beta virt. eigenvalues --    1.56169   1.58041   1.59368   1.59942   1.61684
  Beta virt. eigenvalues --    1.62350   1.63677   1.64281   1.67453   1.67988
  Beta virt. eigenvalues --    1.68920   1.71322   1.72872   1.74331   1.75193
  Beta virt. eigenvalues --    1.76042   1.77367   1.77718   1.80251   1.80898
  Beta virt. eigenvalues --    1.81946   1.82157   1.83343   1.85148   1.86226
  Beta virt. eigenvalues --    1.87153   1.87392   1.89546   1.91978   1.93016
  Beta virt. eigenvalues --    1.93841   1.96173   1.96571   1.98002   1.99646
  Beta virt. eigenvalues --    2.00673   2.01290   2.01907   2.03033   2.04057
  Beta virt. eigenvalues --    2.06645   2.06885   2.08436   2.08753   2.09436
  Beta virt. eigenvalues --    2.10962   2.12496   2.13972   2.14712   2.15186
  Beta virt. eigenvalues --    2.16611   2.17647   2.18582   2.19646   2.20483
  Beta virt. eigenvalues --    2.23401   2.24107   2.24581   2.25983   2.26508
  Beta virt. eigenvalues --    2.28039   2.29654   2.29931   2.30992   2.32465
  Beta virt. eigenvalues --    2.32706   2.33628   2.34368   2.35020   2.36890
  Beta virt. eigenvalues --    2.38179   2.38612   2.40624   2.42317   2.43078
  Beta virt. eigenvalues --    2.43817   2.46094   2.46487   2.48945   2.53376
  Beta virt. eigenvalues --    2.54322   2.55602   2.57184   2.59228   2.60345
  Beta virt. eigenvalues --    2.61855   2.62597   2.64195   2.64672   2.65685
  Beta virt. eigenvalues --    2.66904   2.67539   2.69799   2.71392   2.72877
  Beta virt. eigenvalues --    2.73566   2.77070   2.78876   2.79734   2.81836
  Beta virt. eigenvalues --    2.82693   2.83348   2.85874   2.88863   2.90210
  Beta virt. eigenvalues --    2.91786   2.92673   2.93670   2.96398   2.99295
  Beta virt. eigenvalues --    3.00299   3.01696   3.04877   3.05628   3.08187
  Beta virt. eigenvalues --    3.08558   3.10295   3.12391   3.14046   3.23681
  Beta virt. eigenvalues --    3.25613   3.26438   3.29091   3.31650   3.41288
  Beta virt. eigenvalues --    3.46741   3.50307   3.58375   3.59232   3.64860
  Beta virt. eigenvalues --    3.67951   3.73801   3.75221   3.77296   3.78805
  Beta virt. eigenvalues --    3.80879   3.84023   3.85209   3.87736   3.89626
  Beta virt. eigenvalues --    3.90433   3.92407   4.00020   4.04720   4.08080
  Beta virt. eigenvalues --    4.13930   4.19776
          Condensed to atoms (all electrons):
          Atomic-Atomic Spin Densities.
 Mulliken charges and spin densities:
               1          2
     1  N   -0.447824   0.000134
     2  S    3.179915  -0.000773
     3  O   -1.174761  -0.004710
     4  C    0.781017   0.007484
     5  C    0.240442  -0.235514
     6  H   -0.162409   0.001603
     7  H   -0.209236   0.004984
     8  C    0.599002   1.418940
     9  H   -0.050486   0.043818
    10  H   -0.075079   0.003686
    11  H   -0.282456  -0.116084
    12  C   -3.878422   0.003803
    13  C    1.269573  -0.000363
    14  C    1.465258   0.002298
    15  C    1.452264  -0.000537
    16  H   -0.051466  -0.000020
    17  H    0.015484   0.000040
    18  H   -0.006721  -0.000470
    19  H    0.006515  -0.000009
    20  H    0.051489  -0.000075
    21  H   -0.034181  -0.000017
    22  H   -0.067662   0.001441
    23  H   -0.035732  -0.001356
    24  H   -0.033918   0.000429
    25  O   -1.108069  -0.000098
    26  O   -1.062347   0.000096
    27  H   -0.279687  -0.128668
    28  H   -0.100505  -0.000063
 Sum of Mulliken charges =   0.00000   1.00000
 Mulliken charges and spin densities with hydrogens summed into heavy atoms:
               1          2
     1  N   -0.548330   0.000071
     2  S    3.179915  -0.000773
     3  O   -1.174761  -0.004710
     4  C    0.409372   0.014071
     5  C    0.114877  -0.188009
     8  C    0.036860   1.174188
    12  C   -3.878422   0.003803
    13  C    1.293397  -0.000463
    14  C    1.327946   0.002811
    15  C    1.409562  -0.000988
    25  O   -1.108069  -0.000098
    26  O   -1.062347   0.000096
 Electronic spatial extent (au):  <R**2>=           2568.0022
 Charge=             -0.0000 electrons
 Dipole moment (field-independent basis, Debye):
    X=             -0.2884    Y=              4.2764    Z=              2.3822  Tot=              4.9036
                          Isotropic Fermi Contact Couplings
        Atom                 a.u.       MegaHertz       Gauss      10(-4) cm-1
     1  N(14)             -0.00003      -0.00895      -0.00319      -0.00298
     2  S(33)              0.00108       0.37132       0.13250       0.12386
     3  O(17)             -0.00266       1.61309       0.57559       0.53807
     4  C(13)              0.02147      24.14195       8.61445       8.05289
     5  C(13)             -0.05855     -65.82333     -23.48740     -21.95630
     6  H(1)              -0.00026      -1.14460      -0.40842      -0.38180
     7  H(1)              -0.00086      -3.84848      -1.37323      -1.28371
     8  C(13)              0.21209     238.43037      85.07789      79.53181
     9  H(1)               0.02561     114.48664      40.85168      38.18863
    10  H(1)               0.00611      27.28921       9.73747       9.10270
    11  H(1)              -0.02547    -113.85197     -40.62521     -37.97693
    12  C(13)             -0.00006      -0.06579      -0.02348      -0.02195
    13  C(13)              0.00005       0.05377       0.01919       0.01793
    14  C(13)              0.00044       0.49813       0.17775       0.16616
    15  C(13)              0.00001       0.00833       0.00297       0.00278
    16  H(1)              -0.00000      -0.00385      -0.00137      -0.00128
    17  H(1)              -0.00000      -0.00320      -0.00114      -0.00107
    18  H(1)              -0.00000      -0.00163      -0.00058      -0.00054
    19  H(1)              -0.00000      -0.00563      -0.00201      -0.00188
    20  H(1)              -0.00000      -0.00601      -0.00215      -0.00201
    21  H(1)               0.00000       0.00711       0.00254       0.00237
    22  H(1)              -0.00002      -0.09255      -0.03303      -0.03087
    23  H(1)              -0.00004      -0.19391      -0.06919      -0.06468
    24  H(1)              -0.00001      -0.02704      -0.00965      -0.00902
    25  O(17)             -0.00003       0.02050       0.00732       0.00684
    26  O(17)             -0.00003       0.01712       0.00611       0.00571
    27  H(1)              -0.02507    -112.05150     -39.98276     -37.37636
    28  H(1)               0.00000       0.00449       0.00160       0.00150
 --------------------------------------------------------
       Center         ----  Spin Dipole Couplings  ----
                      3XX-RR        3YY-RR        3ZZ-RR
 --------------------------------------------------------
     1   Atom        0.001535     -0.000392     -0.001143
     2   Atom        0.001562      0.000780     -0.002343
     3   Atom        0.000201      0.005796     -0.005997
     4   Atom       -0.000674      0.012924     -0.012250
     5   Atom       -0.000027      0.000332     -0.000305
     6   Atom       -0.003340      0.004150     -0.000810
     7   Atom       -0.001446     -0.000004      0.001450
     8   Atom       -0.112645     -0.290152      0.402797
     9   Atom       -0.005331      0.011312     -0.005980
    10   Atom       -0.002034     -0.000492      0.002525
    11   Atom        0.006140      0.029039     -0.035180
    12   Atom        0.002054     -0.000895     -0.001159
    13   Atom        0.001011     -0.000416     -0.000594
    14   Atom        0.004194     -0.002154     -0.002040
    15   Atom        0.001492     -0.000846     -0.000647
    16   Atom        0.000867     -0.000533     -0.000334
    17   Atom        0.001205     -0.000637     -0.000567
    18   Atom        0.001860     -0.001264     -0.000596
    19   Atom        0.000825     -0.000295     -0.000530
    20   Atom        0.000869     -0.000420     -0.000449
    21   Atom        0.000667     -0.000258     -0.000410
    22   Atom        0.002974     -0.001719     -0.001256
    23   Atom        0.009082     -0.004573     -0.004510
    24   Atom        0.002359     -0.001238     -0.001122
    25   Atom        0.000401      0.000450     -0.000851
    26   Atom       -0.000476      0.000965     -0.000489
    27   Atom        0.046995     -0.069374      0.022379
    28   Atom        0.000804     -0.000221     -0.000583
 --------------------------------------------------------
                        XY            XZ            YZ
 --------------------------------------------------------
     1   Atom        0.001727     -0.000841     -0.000411
     2   Atom        0.003450     -0.000234     -0.000188
     3   Atom        0.005034     -0.002645     -0.001854
     4   Atom        0.019776     -0.007345     -0.011428
     5   Atom        0.002844     -0.000435     -0.002123
     6   Atom        0.000916     -0.000969     -0.004795
     7   Atom        0.004574     -0.007863     -0.007185
     8   Atom       -0.314526     -0.621817      0.480486
     9   Atom       -0.006148      0.002882     -0.008365
    10   Atom       -0.008714      0.005531     -0.011431
    11   Atom        0.065459     -0.033606      0.019980
    12   Atom        0.000841     -0.000273     -0.000051
    13   Atom        0.000526      0.000066      0.000036
    14   Atom        0.001142      0.001482      0.000459
    15   Atom        0.000174     -0.000722     -0.000027
    16   Atom        0.000237     -0.000593     -0.000095
    17   Atom       -0.000126     -0.000378      0.000030
    18   Atom       -0.000068     -0.001462      0.000040
    19   Atom        0.000617      0.000235      0.000117
    20   Atom        0.000225      0.000116      0.000022
    21   Atom        0.000414     -0.000095     -0.000033
    22   Atom        0.001275      0.001827      0.000633
    23   Atom        0.000141      0.001309      0.000190
    24   Atom       -0.000320      0.000828     -0.000062
    25   Atom        0.001364      0.000240      0.000355
    26   Atom        0.001019     -0.000284     -0.000633
    27   Atom       -0.016327      0.047782      0.022265
    28   Atom        0.001066     -0.000778     -0.000470
 --------------------------------------------------------


 ---------------------------------------------------------------------------------
              Anisotropic Spin Dipole Couplings in Principal Axis System
 ---------------------------------------------------------------------------------

       Atom             a.u.   MegaHertz   Gauss  10(-4) cm-1        Axes

              Baa    -0.0015    -0.056    -0.020    -0.019 -0.5224  0.6203 -0.5851
     1 N(14)  Bbb    -0.0013    -0.051    -0.018    -0.017 -0.1423  0.6131  0.7771
              Bcc     0.0028     0.107     0.038     0.036  0.8408  0.4892 -0.2320
 
              Baa    -0.0024    -0.097    -0.035    -0.032  0.2010 -0.1630  0.9659
     2 S(33)  Bbb    -0.0023    -0.094    -0.034    -0.031 -0.6358  0.7285  0.2552
              Bcc     0.0047     0.191     0.068     0.064  0.7452  0.6654 -0.0428
 
              Baa    -0.0070     0.504     0.180     0.168  0.3461 -0.0003  0.9382
     3 O(17)  Bbb    -0.0024     0.170     0.061     0.057  0.7836 -0.5498 -0.2892
              Bcc     0.0093    -0.675    -0.241    -0.225  0.5159  0.8353 -0.1901
 
              Baa    -0.0167    -2.240    -0.799    -0.747 -0.0925  0.4117  0.9066
     4 C(13)  Bbb    -0.0146    -1.956    -0.698    -0.653  0.8293 -0.4721  0.2990
              Bcc     0.0313     4.196     1.497     1.400  0.5511  0.7795 -0.2977
 
              Baa    -0.0032    -0.434    -0.155    -0.145 -0.5667  0.7050  0.4264
     5 C(13)  Bbb    -0.0006    -0.084    -0.030    -0.028  0.5989 -0.0029  0.8008
              Bcc     0.0039     0.518     0.185     0.173  0.5659  0.7092 -0.4206
 
              Baa    -0.0040    -2.124    -0.758    -0.708  0.5810  0.3639  0.7280
     6 H(1)   Bbb    -0.0032    -1.731    -0.618    -0.578  0.8049 -0.3898 -0.4475
              Bcc     0.0072     3.855     1.376     1.286  0.1210  0.8459 -0.5194
 
              Baa    -0.0083    -4.425    -1.579    -1.476  0.6458  0.2645  0.7162
     7 H(1)   Bbb    -0.0051    -2.704    -0.965    -0.902 -0.5598  0.8019  0.2087
              Bcc     0.0134     7.129     2.544     2.378 -0.5192 -0.5357  0.6659
 
              Baa    -0.5368   -72.034   -25.703   -24.028 -0.2192  0.8023 -0.5553
     8 C(13)  Bbb    -0.5253   -70.484   -25.151   -23.511  0.8317  0.4512  0.3236
              Bcc     1.0621   142.518    50.854    47.539 -0.5102  0.3909  0.7661
 
              Baa    -0.0094    -5.029    -1.795    -1.678 -0.1646  0.3266  0.9307
     9 H(1)   Bbb    -0.0074    -3.922    -1.399    -1.308  0.9418  0.3326  0.0499
              Bcc     0.0168     8.951     3.194     2.986 -0.2933  0.8847 -0.3623
 
              Baa    -0.0119    -6.372    -2.274    -2.126  0.4347  0.7800  0.4501
    10 H(1)   Bbb    -0.0057    -3.027    -1.080    -1.010  0.7771 -0.0723 -0.6252
              Bcc     0.0176     9.399     3.354     3.135  0.4551 -0.6215  0.6376
 
              Baa    -0.0813   -43.381   -15.479   -14.470  0.6016 -0.4734  0.6434
    11 H(1)   Bbb    -0.0031    -1.657    -0.591    -0.553 -0.4571  0.4565  0.7633
              Bcc     0.0844    45.038    16.071    15.023  0.6550  0.7534 -0.0582
 
              Baa    -0.0012    -0.159    -0.057    -0.053  0.1463 -0.2537  0.9561
    12 C(13)  Bbb    -0.0011    -0.149    -0.053    -0.050 -0.2236  0.9330  0.2818
              Bcc     0.0023     0.308     0.110     0.103  0.9636  0.2550 -0.0798
 
              Baa    -0.0006    -0.082    -0.029    -0.027  0.1571 -0.5825  0.7975
    13 C(13)  Bbb    -0.0006    -0.078    -0.028    -0.026 -0.2733  0.7504  0.6019
              Bcc     0.0012     0.159     0.057     0.053  0.9490  0.3125  0.0413
 
              Baa    -0.0026    -0.344    -0.123    -0.115 -0.0413 -0.6915  0.7212
    14 C(13)  Bbb    -0.0022    -0.292    -0.104    -0.097 -0.2783  0.7012  0.6564
              Bcc     0.0047     0.636     0.227     0.212  0.9596  0.1736  0.2214
 
              Baa    -0.0009    -0.119    -0.043    -0.040  0.2674 -0.6298  0.7293
    15 C(13)  Bbb    -0.0008    -0.112    -0.040    -0.037  0.1342  0.7738  0.6190
              Bcc     0.0017     0.232     0.083     0.077  0.9542  0.0677 -0.2914
 
              Baa    -0.0006    -0.309    -0.110    -0.103  0.4034 -0.2791  0.8714
    16 H(1)   Bbb    -0.0006    -0.304    -0.109    -0.102 -0.0257  0.9485  0.3157
              Bcc     0.0011     0.613     0.219     0.205  0.9147  0.1498 -0.3754
 
              Baa    -0.0006    -0.347    -0.124    -0.116 -0.0831  0.7491 -0.6572
    17 H(1)   Bbb    -0.0006    -0.342    -0.122    -0.114  0.1940  0.6590  0.7267
              Bcc     0.0013     0.689     0.246     0.230  0.9775 -0.0671 -0.2001
 
              Baa    -0.0013    -0.683    -0.244    -0.228  0.3694 -0.4477  0.8143
    18 H(1)   Bbb    -0.0013    -0.673    -0.240    -0.225  0.2058  0.8940  0.3981
              Bcc     0.0025     1.357     0.484     0.453  0.9062 -0.0206 -0.4223
 
              Baa    -0.0006    -0.310    -0.111    -0.103  0.1662 -0.6584  0.7341
    19 H(1)   Bbb    -0.0006    -0.298    -0.106    -0.099 -0.3965  0.6370  0.6611
              Bcc     0.0011     0.608     0.217     0.203  0.9029  0.4009  0.1552
 
              Baa    -0.0005    -0.246    -0.088    -0.082  0.0446 -0.6537  0.7555
    20 H(1)   Bbb    -0.0005    -0.243    -0.087    -0.081 -0.1822  0.7382  0.6495
              Bcc     0.0009     0.490     0.175     0.163  0.9823  0.1666  0.0862
 
              Baa    -0.0004    -0.224    -0.080    -0.075  0.2719 -0.5288  0.8040
    21 H(1)   Bbb    -0.0004    -0.221    -0.079    -0.074 -0.2435  0.7705  0.5891
              Bcc     0.0008     0.445     0.159     0.148  0.9310  0.3560 -0.0808
 
              Baa    -0.0022    -1.153    -0.411    -0.385  0.0013  0.8183 -0.5748
    22 H(1)   Bbb    -0.0018    -0.984    -0.351    -0.328 -0.4197  0.5221  0.7424
              Bcc     0.0040     2.137     0.762     0.713  0.9076  0.2403  0.3442
 
              Baa    -0.0048    -2.552    -0.911    -0.851 -0.0653 -0.6453  0.7611
    23 H(1)   Bbb    -0.0044    -2.362    -0.843    -0.788 -0.0701  0.7639  0.6416
              Bcc     0.0092     4.914     1.753     1.639  0.9954  0.0115  0.0951
 
              Baa    -0.0013    -0.699    -0.250    -0.233 -0.2327 -0.2155  0.9484
    24 H(1)   Bbb    -0.0013    -0.674    -0.240    -0.225  0.0336  0.9728  0.2293
              Bcc     0.0026     1.373     0.490     0.458  0.9720 -0.0853  0.2192
 
              Baa    -0.0010     0.073     0.026     0.024  0.4709 -0.5993  0.6474
    25 O(17)  Bbb    -0.0009     0.062     0.022     0.021 -0.5505  0.3737  0.7465
              Bcc     0.0019    -0.134    -0.048    -0.045  0.6893  0.7079  0.1539
 
              Baa    -0.0010     0.073     0.026     0.024  0.8667 -0.4850 -0.1166
    26 O(17)  Bbb    -0.0007     0.051     0.018     0.017  0.2447  0.2097  0.9466
              Bcc     0.0017    -0.124    -0.044    -0.041  0.4347  0.8490 -0.3004
 
              Baa    -0.0809   -43.154   -15.398   -14.395  0.2324  0.9230 -0.3066
    27 H(1)   Bbb    -0.0032    -1.682    -0.600    -0.561 -0.5680  0.3847  0.7276
              Bcc     0.0840    44.836    15.999    14.956  0.7895  0.0050  0.6137
 
              Baa    -0.0009    -0.498    -0.178    -0.166  0.4669 -0.1213  0.8759
    28 H(1)   Bbb    -0.0009    -0.473    -0.169    -0.158 -0.3916  0.8598  0.3278
              Bcc     0.0018     0.970     0.346     0.324  0.7929  0.4961 -0.3540
 

 ---------------------------------------------------------------------------------

 NROrb=    424 NOA=    53 NOB=    52 NVA=   371 NVB=   372

 **** Warning!!: The largest alpha MO coefficient is  0.92818784D+02


 **** Warning!!: The largest beta MO coefficient is  0.90842452D+02

    12 initial guesses have been made.
 Iteration     1 Dimension    12 NMult     0 NNew     12
 New state      1 was old state      2
 Iteration     2 Dimension    24 NMult    12 NNew     12
 Iteration     3 Dimension    27 NMult    24 NNew      3
 Iteration     4 Dimension    30 NMult    27 NNew      3
 Iteration     5 Dimension    33 NMult    30 NNew      3
 Iteration     6 Dimension    36 NMult    33 NNew      3
 Iteration     7 Dimension    39 NMult    36 NNew      3
 Iteration     8 Dimension    42 NMult    39 NNew      3
 Iteration     9 Dimension    45 NMult    42 NNew      3
 Iteration    10 Dimension    48 NMult    45 NNew      3
 Iteration    11 Dimension    51 NMult    48 NNew      3
 ***********************************************************************
 Stability analysis using <AA,BB:AA,BB> singles matrix:
 ***********************************************************************
 Ground to excited state transition densities written to RWF  633

 Eigenvectors of the stability matrix:
 
 Excited state symmetry could not be determined.
 Eigenvector   1:  2.062-?Sym  Eigenvalue= 0.2318652  <S**2>=0.813
     53A -> 54A       -0.49050
     53A -> 55A        0.52962
     53A -> 56A       -0.28376
     53A -> 57A       -0.10320
     53A -> 58A        0.24026
     53A -> 72A       -0.19148
     53A -> 74A        0.11363
     53A -> 77A       -0.23214
     53A -> 78A       -0.13025
     53A -> 84A       -0.14295
     53A -> 87A        0.12709
 The wavefunction is stable under the perturbations considered.
 The wavefunction is already stable.

 **********************************************************************

            Population analysis using the SCF Density.

 **********************************************************************

 Alpha  occ. eigenvalues --  -92.25973 -20.62352 -20.56590 -20.56363 -15.60790
 Alpha  occ. eigenvalues --  -11.30727 -11.29934 -11.24765 -11.24485 -11.23998
 Alpha  occ. eigenvalues --  -11.22962 -11.22552  -9.22274  -6.90875  -6.90820
 Alpha  occ. eigenvalues --   -6.90762  -1.51690  -1.39236  -1.36177  -1.25146
 Alpha  occ. eigenvalues --   -1.09112  -1.07965  -0.96373  -0.95520  -0.94963
 Alpha  occ. eigenvalues --   -0.87283  -0.82641  -0.78811  -0.74506  -0.72346
 Alpha  occ. eigenvalues --   -0.68572  -0.67043  -0.65496  -0.63090  -0.62442
 Alpha  occ. eigenvalues --   -0.61128  -0.59815  -0.57485  -0.57160  -0.56015
 Alpha  occ. eigenvalues --   -0.54651  -0.54051  -0.53480  -0.52625  -0.51597
 Alpha  occ. eigenvalues --   -0.50341  -0.50125  -0.49221  -0.48468  -0.47675
 Alpha  occ. eigenvalues --   -0.47538  -0.42216  -0.36270
 Alpha virt. eigenvalues --    0.02909   0.03699   0.04033   0.04765   0.05123
 Alpha virt. eigenvalues --    0.05597   0.05705   0.06681   0.07128   0.07507
 Alpha virt. eigenvalues --    0.07885   0.08296   0.08786   0.10126   0.10144
 Alpha virt. eigenvalues --    0.10813   0.11374   0.13131   0.13488   0.14009
 Alpha virt. eigenvalues --    0.14438   0.15071   0.15103   0.15430   0.15958
 Alpha virt. eigenvalues --    0.16474   0.16742   0.16790   0.17041   0.17456
 Alpha virt. eigenvalues --    0.18151   0.18349   0.18699   0.18956   0.19708
 Alpha virt. eigenvalues --    0.19916   0.20437   0.21028   0.21431   0.21511
 Alpha virt. eigenvalues --    0.22039   0.22886   0.23283   0.23348   0.23858
 Alpha virt. eigenvalues --    0.24425   0.25052   0.26006   0.26781   0.27317
 Alpha virt. eigenvalues --    0.27656   0.28247   0.28723   0.29879   0.30432
 Alpha virt. eigenvalues --    0.31280   0.32035   0.32599   0.32993   0.33689
 Alpha virt. eigenvalues --    0.33774   0.34230   0.34714   0.35106   0.35795
 Alpha virt. eigenvalues --    0.36287   0.36642   0.37121   0.37923   0.38337
 Alpha virt. eigenvalues --    0.38719   0.39253   0.39640   0.40171   0.40667
 Alpha virt. eigenvalues --    0.41008   0.41409   0.42675   0.42964   0.43107
 Alpha virt. eigenvalues --    0.43552   0.44521   0.44839   0.45022   0.45336
 Alpha virt. eigenvalues --    0.45970   0.46821   0.47088   0.48001   0.48198
 Alpha virt. eigenvalues --    0.49016   0.49137   0.49621   0.49957   0.50542
 Alpha virt. eigenvalues --    0.50679   0.51152   0.51621   0.52469   0.53094
 Alpha virt. eigenvalues --    0.54088   0.54390   0.55227   0.55374   0.56099
 Alpha virt. eigenvalues --    0.57102   0.57392   0.58180   0.58579   0.59211
 Alpha virt. eigenvalues --    0.59528   0.59667   0.60541   0.60873   0.61542
 Alpha virt. eigenvalues --    0.61874   0.62514   0.62819   0.63387   0.64025
 Alpha virt. eigenvalues --    0.64377   0.64828   0.64932   0.65626   0.66241
 Alpha virt. eigenvalues --    0.66770   0.67266   0.68843   0.69452   0.69825
 Alpha virt. eigenvalues --    0.69956   0.70829   0.71002   0.72093   0.72480
 Alpha virt. eigenvalues --    0.72926   0.74051   0.74359   0.75307   0.76174
 Alpha virt. eigenvalues --    0.76424   0.76986   0.77172   0.77955   0.78557
 Alpha virt. eigenvalues --    0.79578   0.79689   0.80782   0.81306   0.81724
 Alpha virt. eigenvalues --    0.82294   0.82628   0.83576   0.84663   0.84930
 Alpha virt. eigenvalues --    0.85858   0.86768   0.87142   0.88245   0.88664
 Alpha virt. eigenvalues --    0.89533   0.89651   0.90243   0.91178   0.92072
 Alpha virt. eigenvalues --    0.92467   0.93116   0.94093   0.94810   0.95416
 Alpha virt. eigenvalues --    0.96924   0.97798   0.98583   0.99530   0.99616
 Alpha virt. eigenvalues --    1.00657   1.01541   1.03119   1.04108   1.05471
 Alpha virt. eigenvalues --    1.06033   1.08079   1.08599   1.09923   1.10835
 Alpha virt. eigenvalues --    1.11333   1.12932   1.13294   1.15147   1.16268
 Alpha virt. eigenvalues --    1.17312   1.17792   1.19514   1.21616   1.22488
 Alpha virt. eigenvalues --    1.23451   1.23605   1.25218   1.26961   1.27603
 Alpha virt. eigenvalues --    1.27880   1.28669   1.28941   1.31173   1.31596
 Alpha virt. eigenvalues --    1.32864   1.34165   1.35944   1.36727   1.37367
 Alpha virt. eigenvalues --    1.38312   1.40151   1.41175   1.41833   1.42197
 Alpha virt. eigenvalues --    1.43280   1.45486   1.46251   1.47645   1.48590
 Alpha virt. eigenvalues --    1.51626   1.52355   1.53191   1.53948   1.56064
 Alpha virt. eigenvalues --    1.57182   1.59153   1.59638   1.61333   1.62249
 Alpha virt. eigenvalues --    1.62983   1.64199   1.67341   1.67865   1.68505
 Alpha virt. eigenvalues --    1.70925   1.72439   1.73550   1.74629   1.75947
 Alpha virt. eigenvalues --    1.76446   1.77416   1.80112   1.80168   1.81034
 Alpha virt. eigenvalues --    1.82100   1.82855   1.84996   1.85661   1.86750
 Alpha virt. eigenvalues --    1.87098   1.88632   1.91691   1.92602   1.93202
 Alpha virt. eigenvalues --    1.95444   1.96515   1.97898   1.99451   2.00359
 Alpha virt. eigenvalues --    2.00928   2.01508   2.02966   2.03986   2.06498
 Alpha virt. eigenvalues --    2.06785   2.08295   2.08592   2.09328   2.10490
 Alpha virt. eigenvalues --    2.12306   2.13550   2.14526   2.14824   2.16391
 Alpha virt. eigenvalues --    2.17538   2.18313   2.19427   2.20347   2.23305
 Alpha virt. eigenvalues --    2.23757   2.24336   2.25919   2.26010   2.27291
 Alpha virt. eigenvalues --    2.29152   2.29579   2.30939   2.32261   2.32499
 Alpha virt. eigenvalues --    2.33598   2.34207   2.34804   2.36843   2.37943
 Alpha virt. eigenvalues --    2.38437   2.40498   2.41833   2.42946   2.43750
 Alpha virt. eigenvalues --    2.45841   2.46382   2.48610   2.52937   2.54305
 Alpha virt. eigenvalues --    2.55471   2.57058   2.59024   2.60152   2.61734
 Alpha virt. eigenvalues --    2.62410   2.64187   2.64491   2.65594   2.66883
 Alpha virt. eigenvalues --    2.67514   2.69655   2.70982   2.72654   2.73163
 Alpha virt. eigenvalues --    2.76856   2.78522   2.79607   2.81308   2.82647
 Alpha virt. eigenvalues --    2.83269   2.85776   2.88835   2.90184   2.91740
 Alpha virt. eigenvalues --    2.92570   2.93569   2.96238   2.99257   3.00242
 Alpha virt. eigenvalues --    3.01645   3.04839   3.05587   3.08152   3.08456
 Alpha virt. eigenvalues --    3.10209   3.12372   3.13945   3.23241   3.25480
 Alpha virt. eigenvalues --    3.26333   3.28738   3.31614   3.41165   3.46669
 Alpha virt. eigenvalues --    3.50287   3.58336   3.59222   3.64846   3.67942
 Alpha virt. eigenvalues --    3.73799   3.75220   3.77294   3.78804   3.80879
 Alpha virt. eigenvalues --    3.84022   3.85208   3.87733   3.89626   3.90431
 Alpha virt. eigenvalues --    3.92403   4.00019   4.04715   4.08077   4.13916
 Alpha virt. eigenvalues --    4.19778
  Beta  occ. eigenvalues --  -92.25973 -20.62362 -20.56590 -20.56364 -15.60790
  Beta  occ. eigenvalues --  -11.30636 -11.29935 -11.25077 -11.23998 -11.22959
  Beta  occ. eigenvalues --  -11.22552 -11.22058  -9.22273  -6.90875  -6.90818
  Beta  occ. eigenvalues --   -6.90762  -1.51693  -1.39241  -1.36178  -1.25145
  Beta  occ. eigenvalues --   -1.08663  -1.06737  -0.95815  -0.95053  -0.92736
  Beta  occ. eigenvalues --   -0.86405  -0.80318  -0.77986  -0.74404  -0.72313
  Beta  occ. eigenvalues --   -0.68343  -0.66787  -0.65422  -0.62771  -0.61905
  Beta  occ. eigenvalues --   -0.60800  -0.59552  -0.57186  -0.56556  -0.55365
  Beta  occ. eigenvalues --   -0.54546  -0.53488  -0.52768  -0.52424  -0.51536
  Beta  occ. eigenvalues --   -0.50264  -0.49952  -0.49080  -0.48208  -0.47660
  Beta  occ. eigenvalues --   -0.47519  -0.42197
  Beta virt. eigenvalues --    0.02897   0.03721   0.04051   0.04722   0.05121
  Beta virt. eigenvalues --    0.05600   0.05675   0.06690   0.06896   0.07500
  Beta virt. eigenvalues --    0.07846   0.08157   0.08554   0.09132   0.10143
  Beta virt. eigenvalues --    0.10365   0.11377   0.12431   0.13170   0.13600
  Beta virt. eigenvalues --    0.14200   0.14514   0.15102   0.15336   0.15975
  Beta virt. eigenvalues --    0.16202   0.16533   0.16811   0.17078   0.17191
  Beta virt. eigenvalues --    0.17935   0.18374   0.18645   0.18771   0.19252
  Beta virt. eigenvalues --    0.19931   0.19970   0.20918   0.21336   0.21559
  Beta virt. eigenvalues --    0.21676   0.22626   0.22933   0.23420   0.23558
  Beta virt. eigenvalues --    0.23960   0.24503   0.25228   0.26184   0.27051
  Beta virt. eigenvalues --    0.27471   0.27778   0.28504   0.28941   0.29967
  Beta virt. eigenvalues --    0.30746   0.31365   0.32058   0.32677   0.33136
  Beta virt. eigenvalues --    0.33831   0.34056   0.34433   0.34892   0.35267
  Beta virt. eigenvalues --    0.36008   0.36696   0.36935   0.37370   0.38099
  Beta virt. eigenvalues --    0.38670   0.38821   0.39521   0.39835   0.40472
  Beta virt. eigenvalues --    0.40845   0.41137   0.41925   0.42820   0.43090
  Beta virt. eigenvalues --    0.43229   0.43682   0.44631   0.44975   0.45210
  Beta virt. eigenvalues --    0.45534   0.46157   0.46886   0.47297   0.48226
  Beta virt. eigenvalues --    0.48768   0.49160   0.49435   0.49803   0.50090
  Beta virt. eigenvalues --    0.50780   0.50846   0.51414   0.51798   0.52654
  Beta virt. eigenvalues --    0.53390   0.54244   0.54499   0.55354   0.55679
  Beta virt. eigenvalues --    0.56560   0.57161   0.57838   0.58268   0.58770
  Beta virt. eigenvalues --    0.59507   0.59867   0.60336   0.60986   0.61630
  Beta virt. eigenvalues --    0.62082   0.62594   0.62823   0.63155   0.63739
  Beta virt. eigenvalues --    0.64235   0.64507   0.65011   0.65419   0.65749
  Beta virt. eigenvalues --    0.66680   0.66850   0.67568   0.69087   0.69778
  Beta virt. eigenvalues --    0.69963   0.70335   0.71163   0.71482   0.72435
  Beta virt. eigenvalues --    0.72752   0.73104   0.74376   0.74681   0.75546
  Beta virt. eigenvalues --    0.76344   0.76509   0.77296   0.77476   0.78389
  Beta virt. eigenvalues --    0.78745   0.79775   0.79860   0.80944   0.81526
  Beta virt. eigenvalues --    0.81962   0.82738   0.83145   0.83796   0.84743
  Beta virt. eigenvalues --    0.85005   0.86184   0.86985   0.87331   0.88526
  Beta virt. eigenvalues --    0.88914   0.89688   0.89926   0.90422   0.91260
  Beta virt. eigenvalues --    0.92165   0.92614   0.93404   0.94255   0.95035
  Beta virt. eigenvalues --    0.95609   0.97156   0.97926   0.98805   0.99619
  Beta virt. eigenvalues --    0.99776   1.00700   1.01629   1.03222   1.04433
  Beta virt. eigenvalues --    1.05520   1.06425   1.08297   1.08718   1.10204
  Beta virt. eigenvalues --    1.10979   1.11671   1.13264   1.15163   1.16150
  Beta virt. eigenvalues --    1.16456   1.17465   1.18525   1.19686   1.22016
  Beta virt. eigenvalues --    1.22541   1.23716   1.24342   1.25347   1.27085
  Beta virt. eigenvalues --    1.27703   1.28734   1.28998   1.29321   1.31261
  Beta virt. eigenvalues --    1.31685   1.32892   1.34238   1.36058   1.36837
  Beta virt. eigenvalues --    1.37441   1.38463   1.40307   1.41249   1.41937
  Beta virt. eigenvalues --    1.42352   1.43336   1.45580   1.46344   1.47778
  Beta virt. eigenvalues --    1.48658   1.51739   1.52529   1.53267   1.54287
  Beta virt. eigenvalues --    1.56169   1.58041   1.59368   1.59942   1.61684
  Beta virt. eigenvalues --    1.62350   1.63677   1.64281   1.67453   1.67988
  Beta virt. eigenvalues --    1.68920   1.71322   1.72872   1.74331   1.75193
  Beta virt. eigenvalues --    1.76042   1.77367   1.77718   1.80251   1.80898
  Beta virt. eigenvalues --    1.81946   1.82157   1.83343   1.85148   1.86226
  Beta virt. eigenvalues --    1.87153   1.87392   1.89546   1.91978   1.93016
  Beta virt. eigenvalues --    1.93841   1.96173   1.96571   1.98002   1.99646
  Beta virt. eigenvalues --    2.00673   2.01290   2.01907   2.03033   2.04057
  Beta virt. eigenvalues --    2.06645   2.06885   2.08436   2.08753   2.09436
  Beta virt. eigenvalues --    2.10962   2.12496   2.13972   2.14712   2.15186
  Beta virt. eigenvalues --    2.16611   2.17647   2.18582   2.19646   2.20483
  Beta virt. eigenvalues --    2.23401   2.24107   2.24581   2.25983   2.26508
  Beta virt. eigenvalues --    2.28039   2.29654   2.29931   2.30992   2.32465
  Beta virt. eigenvalues --    2.32706   2.33628   2.34368   2.35020   2.36890
  Beta virt. eigenvalues --    2.38179   2.38612   2.40624   2.42317   2.43078
  Beta virt. eigenvalues --    2.43817   2.46094   2.46487   2.48945   2.53376
  Beta virt. eigenvalues --    2.54322   2.55602   2.57184   2.59228   2.60345
  Beta virt. eigenvalues --    2.61855   2.62597   2.64195   2.64672   2.65685
  Beta virt. eigenvalues --    2.66904   2.67539   2.69799   2.71392   2.72877
  Beta virt. eigenvalues --    2.73566   2.77070   2.78876   2.79734   2.81836
  Beta virt. eigenvalues --    2.82693   2.83348   2.85874   2.88863   2.90210
  Beta virt. eigenvalues --    2.91786   2.92673   2.93670   2.96398   2.99295
  Beta virt. eigenvalues --    3.00299   3.01696   3.04877   3.05628   3.08187
  Beta virt. eigenvalues --    3.08558   3.10295   3.12391   3.14046   3.23681
  Beta virt. eigenvalues --    3.25613   3.26438   3.29091   3.31650   3.41288
  Beta virt. eigenvalues --    3.46741   3.50307   3.58375   3.59232   3.64860
  Beta virt. eigenvalues --    3.67951   3.73801   3.75221   3.77296   3.78805
  Beta virt. eigenvalues --    3.80879   3.84023   3.85209   3.87736   3.89626
  Beta virt. eigenvalues --    3.90433   3.92407   4.00020   4.04720   4.08080
  Beta virt. eigenvalues --    4.13930   4.19776
          Condensed to atoms (all electrons):
          Atomic-Atomic Spin Densities.
 Mulliken charges and spin densities:
               1          2
     1  N   -0.447824   0.000134
     2  S    3.179915  -0.000773
     3  O   -1.174761  -0.004710
     4  C    0.781017   0.007484
     5  C    0.240442  -0.235514
     6  H   -0.162409   0.001603
     7  H   -0.209236   0.004984
     8  C    0.599002   1.418940
     9  H   -0.050486   0.043818
    10  H   -0.075079   0.003686
    11  H   -0.282456  -0.116084
    12  C   -3.878422   0.003803
    13  C    1.269573  -0.000363
    14  C    1.465258   0.002298
    15  C    1.452264  -0.000537
    16  H   -0.051466  -0.000020
    17  H    0.015484   0.000040
    18  H   -0.006721  -0.000470
    19  H    0.006515  -0.000009
    20  H    0.051489  -0.000075
    21  H   -0.034181  -0.000017
    22  H   -0.067662   0.001441
    23  H   -0.035732  -0.001356
    24  H   -0.033918   0.000429
    25  O   -1.108069  -0.000098
    26  O   -1.062347   0.000096
    27  H   -0.279687  -0.128668
    28  H   -0.100505  -0.000063
 Sum of Mulliken charges =   0.00000   1.00000
 Mulliken charges and spin densities with hydrogens summed into heavy atoms:
               1          2
     1  N   -0.548330   0.000071
     2  S    3.179915  -0.000773
     3  O   -1.174761  -0.004710
     4  C    0.409372   0.014071
     5  C    0.114877  -0.188009
     8  C    0.036860   1.174188
    12  C   -3.878422   0.003803
    13  C    1.293397  -0.000463
    14  C    1.327946   0.002811
    15  C    1.409562  -0.000988
    25  O   -1.108069  -0.000098
    26  O   -1.062347   0.000096
 Electronic spatial extent (au):  <R**2>=           2568.0022
 Charge=             -0.0000 electrons
 Dipole moment (field-independent basis, Debye):
    X=             -0.2884    Y=              4.2764    Z=              2.3822  Tot=              4.9036
                          Isotropic Fermi Contact Couplings
        Atom                 a.u.       MegaHertz       Gauss      10(-4) cm-1
     1  N(14)             -0.00003      -0.00895      -0.00319      -0.00298
     2  S(33)              0.00108       0.37132       0.13250       0.12386
     3  O(17)             -0.00266       1.61309       0.57559       0.53807
     4  C(13)              0.02147      24.14195       8.61445       8.05289
     5  C(13)             -0.05855     -65.82333     -23.48740     -21.95630
     6  H(1)              -0.00026      -1.14460      -0.40842      -0.38180
     7  H(1)              -0.00086      -3.84848      -1.37323      -1.28371
     8  C(13)              0.21209     238.43037      85.07789      79.53181
     9  H(1)               0.02561     114.48664      40.85168      38.18863
    10  H(1)               0.00611      27.28921       9.73747       9.10270
    11  H(1)              -0.02547    -113.85197     -40.62521     -37.97693
    12  C(13)             -0.00006      -0.06579      -0.02348      -0.02195
    13  C(13)              0.00005       0.05377       0.01919       0.01793
    14  C(13)              0.00044       0.49813       0.17775       0.16616
    15  C(13)              0.00001       0.00833       0.00297       0.00278
    16  H(1)              -0.00000      -0.00385      -0.00137      -0.00128
    17  H(1)              -0.00000      -0.00320      -0.00114      -0.00107
    18  H(1)              -0.00000      -0.00163      -0.00058      -0.00054
    19  H(1)              -0.00000      -0.00563      -0.00201      -0.00188
    20  H(1)              -0.00000      -0.00601      -0.00215      -0.00201
    21  H(1)               0.00000       0.00711       0.00254       0.00237
    22  H(1)              -0.00002      -0.09255      -0.03303      -0.03087
    23  H(1)              -0.00004      -0.19391      -0.06919      -0.06468
    24  H(1)              -0.00001      -0.02704      -0.00965      -0.00902
    25  O(17)             -0.00003       0.02050       0.00732       0.00684
    26  O(17)             -0.00003       0.01712       0.00611       0.00571
    27  H(1)              -0.02507    -112.05150     -39.98276     -37.37636
    28  H(1)               0.00000       0.00449       0.00160       0.00150
 --------------------------------------------------------
       Center         ----  Spin Dipole Couplings  ----
                      3XX-RR        3YY-RR        3ZZ-RR
 --------------------------------------------------------
     1   Atom        0.001535     -0.000392     -0.001143
     2   Atom        0.001562      0.000780     -0.002343
     3   Atom        0.000201      0.005796     -0.005997
     4   Atom       -0.000674      0.012924     -0.012250
     5   Atom       -0.000027      0.000332     -0.000305
     6   Atom       -0.003340      0.004150     -0.000810
     7   Atom       -0.001446     -0.000004      0.001450
     8   Atom       -0.112645     -0.290152      0.402797
     9   Atom       -0.005331      0.011312     -0.005980
    10   Atom       -0.002034     -0.000492      0.002525
    11   Atom        0.006140      0.029039     -0.035180
    12   Atom        0.002054     -0.000895     -0.001159
    13   Atom        0.001011     -0.000416     -0.000594
    14   Atom        0.004194     -0.002154     -0.002040
    15   Atom        0.001492     -0.000846     -0.000647
    16   Atom        0.000867     -0.000533     -0.000334
    17   Atom        0.001205     -0.000637     -0.000567
    18   Atom        0.001860     -0.001264     -0.000596
    19   Atom        0.000825     -0.000295     -0.000530
    20   Atom        0.000869     -0.000420     -0.000449
    21   Atom        0.000667     -0.000258     -0.000410
    22   Atom        0.002974     -0.001719     -0.001256
    23   Atom        0.009082     -0.004573     -0.004510
    24   Atom        0.002359     -0.001238     -0.001122
    25   Atom        0.000401      0.000450     -0.000851
    26   Atom       -0.000476      0.000965     -0.000489
    27   Atom        0.046995     -0.069374      0.022379
    28   Atom        0.000804     -0.000221     -0.000583
 --------------------------------------------------------
                        XY            XZ            YZ
 --------------------------------------------------------
     1   Atom        0.001727     -0.000841     -0.000411
     2   Atom        0.003450     -0.000234     -0.000188
     3   Atom        0.005034     -0.002645     -0.001854
     4   Atom        0.019776     -0.007345     -0.011428
     5   Atom        0.002844     -0.000435     -0.002123
     6   Atom        0.000916     -0.000969     -0.004795
     7   Atom        0.004574     -0.007863     -0.007185
     8   Atom       -0.314526     -0.621817      0.480486
     9   Atom       -0.006148      0.002882     -0.008365
    10   Atom       -0.008714      0.005531     -0.011431
    11   Atom        0.065459     -0.033606      0.019980
    12   Atom        0.000841     -0.000273     -0.000051
    13   Atom        0.000526      0.000066      0.000036
    14   Atom        0.001142      0.001482      0.000459
    15   Atom        0.000174     -0.000722     -0.000027
    16   Atom        0.000237     -0.000593     -0.000095
    17   Atom       -0.000126     -0.000378      0.000030
    18   Atom       -0.000068     -0.001462      0.000040
    19   Atom        0.000617      0.000235      0.000117
    20   Atom        0.000225      0.000116      0.000022
    21   Atom        0.000414     -0.000095     -0.000033
    22   Atom        0.001275      0.001827      0.000633
    23   Atom        0.000141      0.001309      0.000190
    24   Atom       -0.000320      0.000828     -0.000062
    25   Atom        0.001364      0.000240      0.000355
    26   Atom        0.001019     -0.000284     -0.000633
    27   Atom       -0.016327      0.047782      0.022265
    28   Atom        0.001066     -0.000778     -0.000470
 --------------------------------------------------------


 ---------------------------------------------------------------------------------
              Anisotropic Spin Dipole Couplings in Principal Axis System
 ---------------------------------------------------------------------------------

       Atom             a.u.   MegaHertz   Gauss  10(-4) cm-1        Axes

              Baa    -0.0015    -0.056    -0.020    -0.019 -0.5224  0.6203 -0.5851
     1 N(14)  Bbb    -0.0013    -0.051    -0.018    -0.017 -0.1423  0.6131  0.7771
              Bcc     0.0028     0.107     0.038     0.036  0.8408  0.4892 -0.2320
 
              Baa    -0.0024    -0.097    -0.035    -0.032  0.2010 -0.1630  0.9659
     2 S(33)  Bbb    -0.0023    -0.094    -0.034    -0.031 -0.6358  0.7285  0.2552
              Bcc     0.0047     0.191     0.068     0.064  0.7452  0.6654 -0.0428
 
              Baa    -0.0070     0.504     0.180     0.168  0.3461 -0.0003  0.9382
     3 O(17)  Bbb    -0.0024     0.170     0.061     0.057  0.7836 -0.5498 -0.2892
              Bcc     0.0093    -0.675    -0.241    -0.225  0.5159  0.8353 -0.1901
 
              Baa    -0.0167    -2.240    -0.799    -0.747 -0.0925  0.4117  0.9066
     4 C(13)  Bbb    -0.0146    -1.956    -0.698    -0.653  0.8293 -0.4721  0.2990
              Bcc     0.0313     4.196     1.497     1.400  0.5511  0.7795 -0.2977
 
              Baa    -0.0032    -0.434    -0.155    -0.145 -0.5667  0.7050  0.4264
     5 C(13)  Bbb    -0.0006    -0.084    -0.030    -0.028  0.5989 -0.0029  0.8008
              Bcc     0.0039     0.518     0.185     0.173  0.5659  0.7092 -0.4206
 
              Baa    -0.0040    -2.124    -0.758    -0.708  0.5810  0.3639  0.7280
     6 H(1)   Bbb    -0.0032    -1.731    -0.618    -0.578  0.8049 -0.3898 -0.4475
              Bcc     0.0072     3.855     1.376     1.286  0.1210  0.8459 -0.5194
 
              Baa    -0.0083    -4.425    -1.579    -1.476  0.6458  0.2645  0.7162
     7 H(1)   Bbb    -0.0051    -2.704    -0.965    -0.902 -0.5598  0.8019  0.2087
              Bcc     0.0134     7.129     2.544     2.378 -0.5192 -0.5357  0.6659
 
              Baa    -0.5368   -72.034   -25.703   -24.028 -0.2192  0.8023 -0.5553
     8 C(13)  Bbb    -0.5253   -70.484   -25.151   -23.511  0.8317  0.4512  0.3236
              Bcc     1.0621   142.518    50.854    47.539 -0.5102  0.3909  0.7661
 
              Baa    -0.0094    -5.029    -1.795    -1.678 -0.1646  0.3266  0.9307
     9 H(1)   Bbb    -0.0074    -3.922    -1.399    -1.308  0.9418  0.3326  0.0499
              Bcc     0.0168     8.951     3.194     2.986 -0.2933  0.8847 -0.3623
 
              Baa    -0.0119    -6.372    -2.274    -2.126  0.4347  0.7800  0.4501
    10 H(1)   Bbb    -0.0057    -3.027    -1.080    -1.010  0.7771 -0.0723 -0.6252
              Bcc     0.0176     9.399     3.354     3.135  0.4551 -0.6215  0.6376
 
              Baa    -0.0813   -43.381   -15.479   -14.470  0.6016 -0.4734  0.6434
    11 H(1)   Bbb    -0.0031    -1.657    -0.591    -0.553 -0.4571  0.4565  0.7633
              Bcc     0.0844    45.038    16.071    15.023  0.6550  0.7534 -0.0582
 
              Baa    -0.0012    -0.159    -0.057    -0.053  0.1463 -0.2537  0.9561
    12 C(13)  Bbb    -0.0011    -0.149    -0.053    -0.050 -0.2236  0.9330  0.2818
              Bcc     0.0023     0.308     0.110     0.103  0.9636  0.2550 -0.0798
 
              Baa    -0.0006    -0.082    -0.029    -0.027  0.1571 -0.5825  0.7975
    13 C(13)  Bbb    -0.0006    -0.078    -0.028    -0.026 -0.2733  0.7504  0.6019
              Bcc     0.0012     0.159     0.057     0.053  0.9490  0.3125  0.0413
 
              Baa    -0.0026    -0.344    -0.123    -0.115 -0.0413 -0.6915  0.7212
    14 C(13)  Bbb    -0.0022    -0.292    -0.104    -0.097 -0.2783  0.7012  0.6564
              Bcc     0.0047     0.636     0.227     0.212  0.9596  0.1736  0.2214
 
              Baa    -0.0009    -0.119    -0.043    -0.040  0.2674 -0.6298  0.7293
    15 C(13)  Bbb    -0.0008    -0.112    -0.040    -0.037  0.1342  0.7738  0.6190
              Bcc     0.0017     0.232     0.083     0.077  0.9542  0.0677 -0.2914
 
              Baa    -0.0006    -0.309    -0.110    -0.103  0.4034 -0.2791  0.8714
    16 H(1)   Bbb    -0.0006    -0.304    -0.109    -0.102 -0.0257  0.9485  0.3157
              Bcc     0.0011     0.613     0.219     0.205  0.9147  0.1498 -0.3754
 
              Baa    -0.0006    -0.347    -0.124    -0.116 -0.0831  0.7491 -0.6572
    17 H(1)   Bbb    -0.0006    -0.342    -0.122    -0.114  0.1940  0.6590  0.7267
              Bcc     0.0013     0.689     0.246     0.230  0.9775 -0.0671 -0.2001
 
              Baa    -0.0013    -0.683    -0.244    -0.228  0.3694 -0.4477  0.8143
    18 H(1)   Bbb    -0.0013    -0.673    -0.240    -0.225  0.2058  0.8940  0.3981
              Bcc     0.0025     1.357     0.484     0.453  0.9062 -0.0206 -0.4223
 
              Baa    -0.0006    -0.310    -0.111    -0.103  0.1662 -0.6584  0.7341
    19 H(1)   Bbb    -0.0006    -0.298    -0.106    -0.099 -0.3965  0.6370  0.6611
              Bcc     0.0011     0.608     0.217     0.203  0.9029  0.4009  0.1552
 
              Baa    -0.0005    -0.246    -0.088    -0.082  0.0446 -0.6537  0.7555
    20 H(1)   Bbb    -0.0005    -0.243    -0.087    -0.081 -0.1822  0.7382  0.6495
              Bcc     0.0009     0.490     0.175     0.163  0.9823  0.1666  0.0862
 
              Baa    -0.0004    -0.224    -0.080    -0.075  0.2719 -0.5288  0.8040
    21 H(1)   Bbb    -0.0004    -0.221    -0.079    -0.074 -0.2435  0.7705  0.5891
              Bcc     0.0008     0.445     0.159     0.148  0.9310  0.3560 -0.0808
 
              Baa    -0.0022    -1.153    -0.411    -0.385  0.0013  0.8183 -0.5748
    22 H(1)   Bbb    -0.0018    -0.984    -0.351    -0.328 -0.4197  0.5221  0.7424
              Bcc     0.0040     2.137     0.762     0.713  0.9076  0.2403  0.3442
 
              Baa    -0.0048    -2.552    -0.911    -0.851 -0.0653 -0.6453  0.7611
    23 H(1)   Bbb    -0.0044    -2.362    -0.843    -0.788 -0.0701  0.7639  0.6416
              Bcc     0.0092     4.914     1.753     1.639  0.9954  0.0115  0.0951
 
              Baa    -0.0013    -0.699    -0.250    -0.233 -0.2327 -0.2155  0.9484
    24 H(1)   Bbb    -0.0013    -0.674    -0.240    -0.225  0.0336  0.9728  0.2293
              Bcc     0.0026     1.373     0.490     0.458  0.9720 -0.0853  0.2192
 
              Baa    -0.0010     0.073     0.026     0.024  0.4709 -0.5993  0.6474
    25 O(17)  Bbb    -0.0009     0.062     0.022     0.021 -0.5505  0.3737  0.7465
              Bcc     0.0019    -0.134    -0.048    -0.045  0.6893  0.7079  0.1539
 
              Baa    -0.0010     0.073     0.026     0.024  0.8667 -0.4850 -0.1166
    26 O(17)  Bbb    -0.0007     0.051     0.018     0.017  0.2447  0.2097  0.9466
              Bcc     0.0017    -0.124    -0.044    -0.041  0.4347  0.8490 -0.3004
 
              Baa    -0.0809   -43.154   -15.398   -14.395  0.2324  0.9230 -0.3066
    27 H(1)   Bbb    -0.0032    -1.682    -0.600    -0.561 -0.5680  0.3847  0.7276
              Bcc     0.0840    44.836    15.999    14.956  0.7895  0.0050  0.6137
 
              Baa    -0.0009    -0.498    -0.178    -0.166  0.4669 -0.1213  0.8759
    28 H(1)   Bbb    -0.0009    -0.473    -0.169    -0.158 -0.3916  0.8598  0.3278
              Bcc     0.0018     0.970     0.346     0.324  0.7929  0.4961 -0.3540
 

 ---------------------------------------------------------------------------------

 Unable to Open any file for archive entry.
 1\1\GINC-SE220\Stability\UHF\Aug-CC-pVDZ\C7H16N1O3S1\OHZDE\09-Apr-2025
 \0\\#t hf aug-cc-pvdz symm=none int=(grid=ultrafine) guess=(read,tchec
 k) stable=opt\\title\\0,2\N,0,-0.932927,-0.200224,0.742575\S,0,-0.0009
 08,-1.272426,-0.096452\O,0,1.334627,-0.430338,-0.379956\C,0,2.149793,-
 0.049525,0.750258\C,0,3.348162,0.696479,0.19808\H,0,2.449275,-0.952539
 ,1.28354\H,0,1.550356,0.583354,1.408555\C,0,2.996844,1.932106,-0.54825
 9\H,0,3.904786,0.003193,-0.450203\H,0,4.013345,0.925706,1.036036\H,0,3
 .685087,2.76546,-0.589162\C,0,-1.847658,0.788089,0.109495\C,0,-3.04509
 1,0.097772,-0.547003\C,0,-1.07644,1.626614,-0.906413\C,0,-2.317818,1.6
 74647,1.261468\H,0,-2.846764,1.089029,2.018542\H,0,-3.007296,2.433879,
 0.889057\H,0,-1.472259,2.173585,1.73725\H,0,-2.724355,-0.548043,-1.362
 9\H,0,-3.736248,0.844955,-0.942891\H,0,-3.586651,-0.509221,0.183049\H,
 0,-0.718102,1.020116,-1.737957\H,0,-0.223571,2.117409,-0.435374\H,0,-1
 .737234,2.395812,-1.309527\O,0,-0.518798,-1.542702,-1.411732\O,0,0.300
 621,-2.33287,0.837923\H,0,2.1401,1.938236,-1.208315\H,0,-1.323813,-0.6
 70359,1.549885\\Version=ES64L-G16RevC.01\HF=-950.9013289\S2=0.762624\S
 2-1=0.\S2A=0.750105\RMSD=4.695e-09\Dipole=-0.1134825,1.6824712,0.93721
 19\Quadrupole=8.3339736,-6.5944255,-1.739548,-0.1929701,-0.2785621,-1.
 2418094\PG=Unknown\\@
 The archive entry for this job was punched.


 CHARLIE BROWN.."I CAN'T GET THAT STUPID KITE IN THE
 AIR... I CAN'T... I C A N N O T..."
 LUCY.."OH COME NOW CHARLIE BROWN...THAT'S NO WAY TO TALK...
 THE TROUBLE WITH YOU IS YOU DON'T BELIEVE IN YOURSELF... YOU
 DON'T BELIEVE IN YOUR OWN ABILITIES...  YOU'VE GOT TO SAY TO
 YOURSELF...'I BELIEVE I CAN FLY THIS KITE.'... GO AHEAD SAY
 IT...."
 CHARLIE BROWN.."I BELIEVE THAT I CAN FLY THIS STUPID
 KITE.....I BELIEVE THAT I CAN FLY THIS KITE........
 I  A C T U A L L Y  B E L I E V E  T H A T  I  C A N ******"
 LUCY.."I'LL BET YOU TEN-TO-ONE YOU'RE WRONG......."    SCHULZ
 Job cpu time:       0 days  2 hours 36 minutes 50.6 seconds.
 Elapsed time:       0 days  0 hours 10 minutes 13.0 seconds.
 File lengths (MBytes):  RWF=    804 Int=      0 D2E=      0 Chk=     28 Scr=      1
 Normal termination of Gaussian 16 at Wed Apr  9 01:09:43 2025.
 Initial command:
 /arc/software/Gaussian/g16.c01/l1.exe "/tmp/slurm/4855981/Gau-261883.inp" -scrdir="/tmp/slurm/4855981/"
 Entering Link 1 = /arc/software/Gaussian/g16.c01/l1.exe PID=    262324.
  
 Copyright (c) 1988-2019, Gaussian, Inc.  All Rights Reserved.
  
 This is part of the Gaussian(R) 16 program.  It is based on
 the Gaussian(R) 09 system (copyright 2009, Gaussian, Inc.),
 the Gaussian(R) 03 system (copyright 2003, Gaussian, Inc.),
 the Gaussian(R) 98 system (copyright 1998, Gaussian, Inc.),
 the Gaussian(R) 94 system (copyright 1995, Gaussian, Inc.),
 the Gaussian 92(TM) system (copyright 1992, Gaussian, Inc.),
 the Gaussian 90(TM) system (copyright 1990, Gaussian, Inc.),
 the Gaussian 88(TM) system (copyright 1988, Gaussian, Inc.),
 the Gaussian 86(TM) system (copyright 1986, Carnegie Mellon
 University), and the Gaussian 82(TM) system (copyright 1983,
 Carnegie Mellon University). Gaussian is a federally registered
 trademark of Gaussian, Inc.
  
 This software contains proprietary and confidential information,
 including trade secrets, belonging to Gaussian, Inc.
  
 This software is provided under written license and may be
 used, copied, transmitted, or stored only in accord with that
 written license.
  
 The following legend is applicable only to US Government
 contracts under FAR:
  
                    RESTRICTED RIGHTS LEGEND
  
 Use, reproduction and disclosure by the US Government is
 subject to restrictions as set forth in subparagraphs (a)
 and (c) of the Commercial Computer Software - Restricted
 Rights clause in FAR 52.227-19.
  
 Gaussian, Inc.
 340 Quinnipiac St., Bldg. 40, Wallingford CT 06492
  
  
 ---------------------------------------------------------------
 Warning -- This program may not be used in any manner that
 competes with the business of Gaussian, Inc. or will provide
 assistance to any competitor of Gaussian, Inc.  The licensee
 of this program is prohibited from giving any competitor of
 Gaussian, Inc. access to this program.  By using this program,
 the user acknowledges that Gaussian, Inc. is engaged in the
 business of creating and licensing software in the field of
 computational chemistry and represents and warrants to the
 licensee that it is not a competitor of Gaussian, Inc. and that
 it will not use this program in any manner prohibited above.
 ---------------------------------------------------------------
  

 Cite this work as:
 Gaussian 16, Revision C.01,
 M. J. Frisch, G. W. Trucks, H. B. Schlegel, G. E. Scuseria, 
 M. A. Robb, J. R. Cheeseman, G. Scalmani, V. Barone, 
 G. A. Petersson, H. Nakatsuji, X. Li, M. Caricato, A. V. Marenich, 
 J. Bloino, B. G. Janesko, R. Gomperts, B. Mennucci, H. P. Hratchian, 
 J. V. Ortiz, A. F. Izmaylov, J. L. Sonnenberg, D. Williams-Young, 
 F. Ding, F. Lipparini, F. Egidi, J. Goings, B. Peng, A. Petrone, 
 T. Henderson, D. Ranasinghe, V. G. Zakrzewski, J. Gao, N. Rega, 
 G. Zheng, W. Liang, M. Hada, M. Ehara, K. Toyota, R. Fukuda, 
 J. Hasegawa, M. Ishida, T. Nakajima, Y. Honda, O. Kitao, H. Nakai, 
 T. Vreven, K. Throssell, J. A. Montgomery, Jr., J. E. Peralta, 
 F. Ogliaro, M. J. Bearpark, J. J. Heyd, E. N. Brothers, K. N. Kudin, 
 V. N. Staroverov, T. A. Keith, R. Kobayashi, J. Normand, 
 K. Raghavachari, A. P. Rendell, J. C. Burant, S. S. Iyengar, 
 J. Tomasi, M. Cossi, J. M. Millam, M. Klene, C. Adamo, R. Cammi, 
 J. W. Ochterski, R. L. Martin, K. Morokuma, O. Farkas, 
 J. B. Foresman, and D. J. Fox, Gaussian, Inc., Wallingford CT, 2019.
 
 ******************************************
 Gaussian 16:  ES64L-G16RevC.01  3-Jul-2019
                 9-Apr-2025 
 ******************************************
 %nprocs=16
 Will use up to   16 processors via shared memory.
 %mem=30GB
 %chk=BH10_181_reverse_mol2.chk
 ----------------------------------------------------------------------
 #t hf aug-cc-pvdz iop(5/13=1,5/36=2,99/5=2) pseudo=read geom=check gue
 ss=(read,tcheck) scf=(maxcycle=1)
 ----------------------------------------------------------------------
 -----
 title
 -----
 Structure from the checkpoint file:  "BH10_181_reverse_mol2.chk"
 Charge =  0 Multiplicity = 2
 Z-Matrix found in chk file.
 N,0,-0.932927,-0.200224,0.742575
 S,0,-0.000908,-1.272426,-0.096452
 O,0,1.334627,-0.430338,-0.379956
 C,0,2.149793,-0.049525,0.750258
 C,0,3.348162,0.696479,0.19808
 H,0,2.449275,-0.952539,1.28354
 H,0,1.550356,0.583354,1.408555
 C,0,2.996844,1.932106,-0.548259
 H,0,3.904786,0.003193,-0.450203
 H,0,4.013345,0.925706,1.036036
 H,0,3.685087,2.76546,-0.589162
 C,0,-1.847658,0.788089,0.109495
 C,0,-3.045091,0.097772,-0.547003
 C,0,-1.07644,1.626614,-0.906413
 C,0,-2.317818,1.674647,1.261468
 H,0,-2.846764,1.089029,2.018542
 H,0,-3.007296,2.433879,0.889057
 H,0,-1.472259,2.173585,1.73725
 H,0,-2.724355,-0.548043,-1.3629
 H,0,-3.736248,0.844955,-0.942891
 H,0,-3.586651,-0.509221,0.183049
 H,0,-0.718102,1.020116,-1.737957
 H,0,-0.223571,2.117409,-0.435374
 H,0,-1.737234,2.395812,-1.309527
[...]
  Beta virt. eigenvalues --    1.17561   1.18471   1.19468   1.19757   1.23252
  Beta virt. eigenvalues --    1.24010   1.24762   1.25567   1.26563   1.28480
  Beta virt. eigenvalues --    1.29058   1.30121   1.30301   1.30706   1.32280
  Beta virt. eigenvalues --    1.32725   1.34692   1.35831   1.36823   1.38803
  Beta virt. eigenvalues --    1.38813   1.39323   1.41456   1.43002   1.43354
  Beta virt. eigenvalues --    1.44038   1.45366   1.47403   1.48160   1.49619
  Beta virt. eigenvalues --    1.51111   1.53588   1.54685   1.56120   1.56731
  Beta virt. eigenvalues --    1.57429   1.59641   1.61484   1.61779   1.63458
  Beta virt. eigenvalues --    1.64020   1.64779   1.66028   1.69095   1.69538
  Beta virt. eigenvalues --    1.70864   1.73821   1.74634   1.75647   1.76722
  Beta virt. eigenvalues --    1.78250   1.78970   1.81094   1.81316   1.82185
  Beta virt. eigenvalues --    1.83163   1.83948   1.85283   1.86975   1.88136
  Beta virt. eigenvalues --    1.88826   1.89473   1.91478   1.93460   1.94760
  Beta virt. eigenvalues --    1.95807   1.97229   1.98427   1.99735   2.01492
  Beta virt. eigenvalues --    2.02004   2.02334   2.03014   2.04304   2.05699
  Beta virt. eigenvalues --    2.06769   2.08786   2.09609   2.10600   2.11140
  Beta virt. eigenvalues --    2.12020   2.12748   2.14533   2.15286   2.16641
  Beta virt. eigenvalues --    2.17411   2.18170   2.18407   2.19505   2.20894
  Beta virt. eigenvalues --    2.24276   2.25412   2.25635   2.27483   2.28149
  Beta virt. eigenvalues --    2.28537   2.30399   2.31797   2.32157   2.33200
  Beta virt. eigenvalues --    2.34307   2.36421   2.37118   2.37878   2.38231
  Beta virt. eigenvalues --    2.39553   2.39977   2.41878   2.42289   2.44719
  Beta virt. eigenvalues --    2.46345   2.47247   2.48069   2.49766   2.52000
  Beta virt. eigenvalues --    2.54015   2.55289   2.57275   2.57884   2.59459
  Beta virt. eigenvalues --    2.61130   2.61727   2.63113   2.64273   2.66029
  Beta virt. eigenvalues --    2.66746   2.67568   2.68087   2.70776   2.72376
  Beta virt. eigenvalues --    2.73123   2.74581   2.76241   2.76819   2.77349
  Beta virt. eigenvalues --    2.80177   2.83014   2.85405   2.86074   2.87519
  Beta virt. eigenvalues --    2.89369   2.90563   2.95945   2.98318   3.00051
  Beta virt. eigenvalues --    3.01297   3.04412   3.05957   3.08769   3.08872
  Beta virt. eigenvalues --    3.14796   3.15803   3.18553   3.20764   3.26720
  Beta virt. eigenvalues --    3.28410   3.30648   3.32452   3.34058   3.38004
  Beta virt. eigenvalues --    3.44198   3.48544   3.54873   3.61294   3.65119
  Beta virt. eigenvalues --    3.69487   3.76469   3.85401   3.87101   3.88990
  Beta virt. eigenvalues --    3.90891   3.92969   3.95267   3.97870   3.98872
  Beta virt. eigenvalues --    4.00502   4.02633   4.09772   4.14063   4.18362
  Beta virt. eigenvalues --    4.24178   4.29005
          Condensed to atoms (all electrons):
          Atomic-Atomic Spin Densities.
 Mulliken charges and spin densities:
               1          2
     1  N    0.482621   0.001153
     2  S    4.470114  -0.003630
     3  O   -1.765798  -0.006838
     4  C    0.264551   0.003238
     5  C   -0.462484  -0.237317
     6  H    0.110166   0.001812
     7  H    0.221003   0.005365
     8  C    0.155355   1.407579
     9  H    0.220566   0.037121
    10  H    0.148309   0.001079
    11  H   -0.065533  -0.099913
    12  C   -3.787349   0.002115
    13  C    0.225357  -0.000416
    14  C    0.430745   0.004009
    15  C    0.369151  -0.001241
    16  H    0.167436  -0.000101
    17  H    0.227200   0.000059
    18  H    0.226340  -0.001147
    19  H    0.233442  -0.000031
    20  H    0.269013  -0.000044
    21  H    0.165687  -0.000072
    22  H    0.171806   0.001092
    23  H    0.230736   0.002150
    24  H    0.169797   0.000307
    25  O   -1.597964  -0.000081
    26  O   -1.477504   0.000292
    27  H    0.003344  -0.116220
    28  H    0.193893  -0.000322
 Sum of Mulliken charges =  -0.00000   1.00000
 Mulliken charges and spin densities with hydrogens summed into heavy atoms:
               1          2
     1  N    0.676514   0.000831
     2  S    4.470114  -0.003630
     3  O   -1.765798  -0.006838
     4  C    0.595720   0.010415
     5  C   -0.093609  -0.199117
     8  C    0.093166   1.191446
    12  C   -3.787349   0.002115
    13  C    0.893499  -0.000563
    14  C    1.003084   0.007559
    15  C    0.990127  -0.002430
    25  O   -1.597964  -0.000081
    26  O   -1.477504   0.000292
 Electronic spatial extent (au):  <R**2>=           2566.7790
 Charge=             -0.0000 electrons
 Dipole moment (field-independent basis, Debye):
    X=             -0.2231    Y=              4.1186    Z=              2.1570  Tot=              4.6546
                          Isotropic Fermi Contact Couplings
        Atom                 a.u.       MegaHertz       Gauss      10(-4) cm-1
     1  N(14)             -0.00003      -0.00983      -0.00351      -0.00328
     2  S(33)              0.00105       0.36049       0.12863       0.12025
     3  O(17)             -0.00234       1.41763       0.50584       0.47287
     4  C(13)              0.02162      24.29971       8.67074       8.10551
     5  C(13)             -0.05755     -64.69909     -23.08625     -21.58129
     6  H(1)              -0.00023      -1.01554      -0.36237      -0.33875
     7  H(1)              -0.00081      -3.61801      -1.29100      -1.20684
     8  C(13)              0.20920     235.18101      83.91843      78.44794
     9  H(1)               0.02423     108.32010      38.65130      36.13170
    10  H(1)               0.00576      25.75127       9.18869       8.58970
    11  H(1)              -0.02405    -107.48373     -38.35287     -35.85271
    12  C(13)             -0.00006      -0.06458      -0.02304      -0.02154
    13  C(13)              0.00006       0.06243       0.02228       0.02082
    14  C(13)              0.00047       0.52367       0.18686       0.17468
    15  C(13)              0.00001       0.00743       0.00265       0.00248
    16  H(1)              -0.00000      -0.00383      -0.00137      -0.00128
    17  H(1)              -0.00000      -0.00310      -0.00111      -0.00103
    18  H(1)              -0.00000      -0.00100      -0.00036      -0.00033
    19  H(1)              -0.00000      -0.00530      -0.00189      -0.00177
    20  H(1)              -0.00000      -0.00561      -0.00200      -0.00187
    21  H(1)               0.00000       0.00347       0.00124       0.00116
    22  H(1)              -0.00002      -0.08671      -0.03094      -0.02892
    23  H(1)              -0.00004      -0.19797      -0.07064      -0.06604
    24  H(1)              -0.00001      -0.02959      -0.01056      -0.00987
    25  O(17)             -0.00003       0.01622       0.00579       0.00541
    26  O(17)             -0.00002       0.01353       0.00483       0.00451
    27  H(1)              -0.02363    -105.64054     -37.69517     -35.23789
    28  H(1)               0.00000       0.00474       0.00169       0.00158
 --------------------------------------------------------
       Center         ----  Spin Dipole Couplings  ----
                      3XX-RR        3YY-RR        3ZZ-RR
 --------------------------------------------------------
     1   Atom        0.001534     -0.000396     -0.001138
     2   Atom        0.001500      0.000818     -0.002319
     3   Atom        0.000246      0.005708     -0.005954
     4   Atom       -0.000792      0.012786     -0.011995
     5   Atom       -0.000648      0.001133     -0.000486
     6   Atom       -0.003329      0.004148     -0.000819
     7   Atom       -0.001435     -0.000008      0.001443
     8   Atom       -0.112052     -0.288548      0.400600
     9   Atom       -0.005352      0.011297     -0.005945
    10   Atom       -0.002012     -0.000542      0.002554
    11   Atom        0.006100      0.028790     -0.034889
    12   Atom        0.002056     -0.000898     -0.001158
    13   Atom        0.001008     -0.000420     -0.000589
    14   Atom        0.004163     -0.002135     -0.002028
    15   Atom        0.001494     -0.000846     -0.000647
    16   Atom        0.000867     -0.000533     -0.000335
    17   Atom        0.001205     -0.000637     -0.000567
    18   Atom        0.001860     -0.001264     -0.000596
    19   Atom        0.000825     -0.000296     -0.000530
    20   Atom        0.000869     -0.000420     -0.000449
    21   Atom        0.000668     -0.000257     -0.000411
    22   Atom        0.002976     -0.001720     -0.001256
    23   Atom        0.009085     -0.004573     -0.004512
    24   Atom        0.002360     -0.001240     -0.001120
    25   Atom        0.000412      0.000440     -0.000852
    26   Atom       -0.000486      0.000943     -0.000457
    27   Atom        0.046738     -0.068986      0.022248
    28   Atom        0.000805     -0.000222     -0.000583
 --------------------------------------------------------
                        XY            XZ            YZ
 --------------------------------------------------------
     1   Atom        0.001736     -0.000830     -0.000398
     2   Atom        0.003432     -0.000214     -0.000179
     3   Atom        0.005100     -0.002557     -0.001813
     4   Atom        0.019383     -0.007147     -0.011256
     5   Atom        0.002326     -0.000463     -0.002585
     6   Atom        0.000945     -0.000983     -0.004786
     7   Atom        0.004592     -0.007859     -0.007205
     8   Atom       -0.312456     -0.618008      0.477473
     9   Atom       -0.006217      0.002743     -0.008226
    10   Atom       -0.008668      0.005630     -0.011384
    11   Atom        0.065040     -0.033439      0.019929
    12   Atom        0.000839     -0.000273     -0.000052
    13   Atom        0.000521      0.000069      0.000037
    14   Atom        0.001119      0.001455      0.000451
    15   Atom        0.000174     -0.000721     -0.000028
    16   Atom        0.000236     -0.000593     -0.000094
    17   Atom       -0.000126     -0.000378      0.000030
    18   Atom       -0.000069     -0.001462      0.000040
    19   Atom        0.000617      0.000235      0.000117
    20   Atom        0.000225      0.000116      0.000022
    21   Atom        0.000415     -0.000095     -0.000033
    22   Atom        0.001275      0.001830      0.000631
    23   Atom        0.000130      0.001304      0.000186
    24   Atom       -0.000320      0.000828     -0.000061
    25   Atom        0.001353      0.000229      0.000352
    26   Atom        0.001031     -0.000274     -0.000606
    27   Atom       -0.016237      0.047365      0.022209
    28   Atom        0.001067     -0.000779     -0.000471
 --------------------------------------------------------


 ---------------------------------------------------------------------------------
              Anisotropic Spin Dipole Couplings in Principal Axis System
 ---------------------------------------------------------------------------------

       Atom             a.u.   MegaHertz   Gauss  10(-4) cm-1        Axes

              Baa    -0.0015    -0.057    -0.020    -0.019 -0.5281  0.6547 -0.5409
     1 N(14)  Bbb    -0.0013    -0.050    -0.018    -0.017 -0.1154  0.5757  0.8095
              Bcc     0.0028     0.107     0.038     0.036  0.8413  0.4899 -0.2285
 
              Baa    -0.0023    -0.096    -0.034    -0.032  0.1964 -0.1590  0.9676
     2 S(33)  Bbb    -0.0023    -0.094    -0.033    -0.031 -0.6425  0.7245  0.2495
              Bcc     0.0046     0.189     0.068     0.063  0.7407  0.6707 -0.0401
 
              Baa    -0.0069     0.497     0.177     0.166  0.3393 -0.0020  0.9407
     3 O(17)  Bbb    -0.0024     0.176     0.063     0.059  0.7830 -0.5536 -0.2836
              Bcc     0.0093    -0.673    -0.240    -0.225  0.5214  0.8328 -0.1863
 
              Baa    -0.0164    -2.198    -0.784    -0.733 -0.1111  0.4212  0.9001
     4 C(13)  Bbb    -0.0143    -1.920    -0.685    -0.641  0.8287 -0.4607  0.3178
              Bcc     0.0307     4.118     1.470     1.374  0.5486  0.7812 -0.2979
 
              Baa    -0.0030    -0.404    -0.144    -0.135 -0.5216  0.6424  0.5615
     5 C(13)  Bbb    -0.0010    -0.139    -0.050    -0.046  0.7388  0.0110  0.6738
              Bcc     0.0040     0.543     0.194     0.181  0.4267  0.7663 -0.4804
 
              Baa    -0.0040    -2.122    -0.757    -0.708  0.5793  0.3627  0.7300
     6 H(1)   Bbb    -0.0032    -1.731    -0.618    -0.577  0.8056 -0.3911 -0.4450
              Bcc     0.0072     3.853     1.375     1.285  0.1241  0.8459 -0.5187
 
              Baa    -0.0083    -4.423    -1.578    -1.475  0.6433  0.2675  0.7174
     7 H(1)   Bbb    -0.0051    -2.716    -0.969    -0.906 -0.5627  0.8006  0.2060
              Bcc     0.0134     7.139     2.547     2.381 -0.5192 -0.5362  0.6655
 
              Baa    -0.5335   -71.595   -25.547   -23.882 -0.2183  0.8028 -0.5548
     8 C(13)  Bbb    -0.5220   -70.051   -24.996   -23.366  0.8319  0.4503  0.3242
              Bcc     1.0556   141.646    50.543    47.248 -0.5101  0.3908  0.7662
 
              Baa    -0.0093    -4.945    -1.764    -1.649 -0.1173  0.3381  0.9338
     9 H(1)   Bbb    -0.0074    -3.957    -1.412    -1.320  0.9484  0.3170  0.0044
              Bcc     0.0167     8.902     3.177     2.969 -0.2945  0.8861 -0.3578
 
              Baa    -0.0119    -6.329    -2.258    -2.111  0.4316  0.7823  0.4492
    10 H(1)   Bbb    -0.0057    -3.066    -1.094    -1.023  0.7778 -0.0706 -0.6245
              Bcc     0.0176     9.395     3.352     3.134  0.4568 -0.6189  0.6389
 
              Baa    -0.0809   -43.142   -15.394   -14.391  0.6017 -0.4738  0.6431
    11 H(1)   Bbb    -0.0030    -1.587    -0.566    -0.529 -0.4568  0.4563  0.7636
              Bcc     0.0838    44.729    15.960    14.920  0.6552  0.7532 -0.0581
 
              Baa    -0.0012    -0.159    -0.057    -0.053  0.1453 -0.2499  0.9573
    12 C(13)  Bbb    -0.0011    -0.149    -0.053    -0.050 -0.2233  0.9343  0.2778
              Bcc     0.0023     0.309     0.110     0.103  0.9639  0.2541 -0.0799
 
              Baa    -0.0006    -0.081    -0.029    -0.027  0.1769 -0.6459  0.7426
    13 C(13)  Bbb    -0.0006    -0.077    -0.028    -0.026 -0.2582  0.6976  0.6683
              Bcc     0.0012     0.159     0.057     0.053  0.9498  0.3100  0.0434
 
              Baa    -0.0025    -0.341    -0.122    -0.114 -0.0423 -0.6881  0.7244
    14 C(13)  Bbb    -0.0022    -0.289    -0.103    -0.096 -0.2754  0.7050  0.6536
              Bcc     0.0047     0.630     0.225     0.210  0.9604  0.1718  0.2193
 
              Baa    -0.0009    -0.119    -0.042    -0.040  0.2671 -0.6293  0.7298
    15 C(13)  Bbb    -0.0008    -0.113    -0.040    -0.038  0.1336  0.7742  0.6187
              Bcc     0.0017     0.232     0.083     0.077  0.9544  0.0678 -0.2909
 
              Baa    -0.0006    -0.309    -0.110    -0.103  0.4031 -0.2773  0.8721
    16 H(1)   Bbb    -0.0006    -0.304    -0.109    -0.102 -0.0263  0.9491  0.3139
              Bcc     0.0011     0.613     0.219     0.205  0.9148  0.1495 -0.3753
 
              Baa    -0.0006    -0.347    -0.124    -0.116 -0.0820  0.7521 -0.6539
    17 H(1)   Bbb    -0.0006    -0.342    -0.122    -0.114  0.1944  0.6556  0.7297
              Bcc     0.0013     0.689     0.246     0.230  0.9775 -0.0673 -0.2000
 
              Baa    -0.0013    -0.683    -0.244    -0.228  0.3721 -0.4349  0.8200
    18 H(1)   Bbb    -0.0013    -0.673    -0.240    -0.225  0.2008  0.9002  0.3863
              Bcc     0.0025     1.357     0.484     0.453  0.9062 -0.0209 -0.4223
 
              Baa    -0.0006    -0.310    -0.111    -0.103  0.1692 -0.6638  0.7286
    19 H(1)   Bbb    -0.0006    -0.298    -0.106    -0.099 -0.3951  0.6315  0.6671
              Bcc     0.0011     0.608     0.217     0.203  0.9029  0.4008  0.1554
 
              Baa    -0.0005    -0.246    -0.088    -0.082  0.0501 -0.6767  0.7345
    20 H(1)   Bbb    -0.0005    -0.243    -0.087    -0.081 -0.1807  0.7172  0.6731
              Bcc     0.0009     0.489     0.175     0.163  0.9823  0.1664  0.0863
 
              Baa    -0.0004    -0.224    -0.080    -0.075  0.2564 -0.4811  0.8383
    21 H(1)   Bbb    -0.0004    -0.221    -0.079    -0.074 -0.2599  0.8011  0.5392
              Bcc     0.0008     0.445     0.159     0.149  0.9310  0.3561 -0.0804
 
              Baa    -0.0022    -1.153    -0.411    -0.385  0.0009  0.8192 -0.5735
    22 H(1)   Bbb    -0.0018    -0.986    -0.352    -0.329 -0.4197  0.5209  0.7433
              Bcc     0.0040     2.138     0.763     0.713  0.9077  0.2400  0.3443
 
              Baa    -0.0048    -2.551    -0.910    -0.851 -0.0658 -0.6423  0.7637
    23 H(1)   Bbb    -0.0044    -2.363    -0.843    -0.788 -0.0690  0.7664  0.6386
              Bcc     0.0092     4.914     1.754     1.639  0.9954  0.0107  0.0947
 
              Baa    -0.0013    -0.699    -0.249    -0.233 -0.2337 -0.2475  0.9403
    24 H(1)   Bbb    -0.0013    -0.675    -0.241    -0.225  0.0256  0.9652  0.2604
              Bcc     0.0026     1.374     0.490     0.458  0.9720 -0.0849  0.2192
 
              Baa    -0.0010     0.073     0.026     0.024  0.4515 -0.5865  0.6724
    25 O(17)  Bbb    -0.0008     0.061     0.022     0.020 -0.5633  0.3971  0.7246
              Bcc     0.0018    -0.133    -0.048    -0.044  0.6920  0.7059  0.1511
 
              Baa    -0.0010     0.075     0.027     0.025  0.8695 -0.4843 -0.0968
    26 O(17)  Bbb    -0.0007     0.048     0.017     0.016  0.2254  0.2145  0.9504
              Bcc     0.0017    -0.122    -0.044    -0.041  0.4395  0.8482 -0.2957
 
              Baa    -0.0804   -42.922   -15.316   -14.317  0.2320  0.9231 -0.3067
    27 H(1)   Bbb    -0.0030    -1.586    -0.566    -0.529 -0.5678  0.3845  0.7278
              Bcc     0.0834    44.508    15.882    14.846  0.7898  0.0052  0.6134
 
              Baa    -0.0009    -0.498    -0.178    -0.166  0.4647 -0.1161  0.8778
    28 H(1)   Bbb    -0.0009    -0.473    -0.169    -0.158 -0.3943  0.8605  0.3225
              Bcc     0.0018     0.971     0.347     0.324  0.7928  0.4960 -0.3541
 

 ---------------------------------------------------------------------------------


 Test job not archived.
 1\1\GINC-SE220\SP\UHF\Aug-CC-pVDZ\C7H16N1O3S1(2)\OHZDE\09-Apr-2025\0\\
 #t hf aug-cc-pvdz iop(5/13=1,5/36=2,99/5=2) pseudo=read geom=check gue
 ss=(read,tcheck) scf=(maxcycle=1)\\title\\0,2\N,0,-0.932927,-0.200224,
 0.742575\S,0,-0.000908,-1.272426,-0.096452\O,0,1.334627,-0.430338,-0.3
 79956\C,0,2.149793,-0.049525,0.750258\C,0,3.348162,0.696479,0.19808\H,
 0,2.449275,-0.952539,1.28354\H,0,1.550356,0.583354,1.408555\C,0,2.9968
 44,1.932106,-0.548259\H,0,3.904786,0.003193,-0.450203\H,0,4.013345,0.9
 25706,1.036036\H,0,3.685087,2.76546,-0.589162\C,0,-1.847658,0.788089,0
 .109495\C,0,-3.045091,0.097772,-0.547003\C,0,-1.07644,1.626614,-0.9064
 13\C,0,-2.317818,1.674647,1.261468\H,0,-2.846764,1.089029,2.018542\H,0
 ,-3.007296,2.433879,0.889057\H,0,-1.472259,2.173585,1.73725\H,0,-2.724
 355,-0.548043,-1.3629\H,0,-3.736248,0.844955,-0.942891\H,0,-3.586651,-
 0.509221,0.183049\H,0,-0.718102,1.020116,-1.737957\H,0,-0.223571,2.117
 409,-0.435374\H,0,-1.737234,2.395812,-1.309527\O,0,-0.518798,-1.542702
 ,-1.411732\O,0,0.300621,-2.33287,0.837923\H,0,2.1401,1.938236,-1.20831
 5\H,0,-1.323813,-0.670359,1.549885\\Version=ES64L-G16RevC.01\State=2-A
 \HF=-951.5407123\S2=0.762516\S2-1=0.\S2A=0.750102\RMSD=1.314e-02\Dipol
 e=-0.0877825,1.6203841,0.8486344\Quadrupole=8.2246767,-6.3732037,-1.85
 1473,-0.3641966,-0.2157171,-1.2687997\PG=C01 [X(C7H16N1O3S1)]\\@


 We find comfort among those who agree with us -- growth among those who don't.
 -- Frank A. Clark
 Job cpu time:       0 days  0 hours  7 minutes 19.4 seconds.
 Elapsed time:       0 days  0 hours  0 minutes 31.1 seconds.
 File lengths (MBytes):  RWF=     33 Int=      0 D2E=      0 Chk=     28 Scr=      1
 Normal termination of Gaussian 16 at Wed Apr  9 01:10:15 2025.
