 Entering Gaussian System, Link 0=g16
 Input=BH10_46_forward_mol3.gjf
 Output=BH10_46_forward_mol3.log
 Initial command:
 /arc/software/Gaussian/g16.c01/l1.exe "/tmp/slurm/4856515/Gau-406687.inp" -scrdir="/tmp/slurm/4856515/"
 Entering Link 1 = /arc/software/Gaussian/g16.c01/l1.exe PID=    406688.
  
 Copyright (c) 1988-2019, Gaussian, Inc.  All Rights Reserved.
  
 This is part of the Gaussian(R) 16 program.  It is based on
 the Gaussian(R) 09 system (copyright 2009, Gaussian, Inc.),
 the Gaussian(R) 03 system (copyright 2003, Gaussian, Inc.),
 the Gaussian(R) 98 system (copyright 1998, Gaussian, Inc.),
 the Gaussian(R) 94 system (copyright 1995, Gaussian, Inc.),
 the Gaussian 92(TM) system (copyright 1992, Gaussian, Inc.),
 the Gaussian 90(TM) system (copyright 1990, Gaussian, Inc.),
 the Gaussian 88(TM) system (copyright 1988, Gaussian, Inc.),
 the Gaussian 86(TM) system (copyright 1986, Carnegie Mellon
 University), and the Gaussian 82(TM) system (copyright 1983,
 Carnegie Mellon University). Gaussian is a federally registered
 trademark of Gaussian, Inc.
  
 This software contains proprietary and confidential information,
 including trade secrets, belonging to Gaussian, Inc.
  
 This software is provided under written license and may be
 used, copied, transmitted, or stored only in accord with that
 written license.
  
 The following legend is applicable only to US Government
 contracts under FAR:
  
                    RESTRICTED RIGHTS LEGEND
  
 Use, reproduction and disclosure by the US Government is
 subject to restrictions as set forth in subparagraphs (a)
 and (c) of the Commercial Computer Software - Restricted
 Rights clause in FAR 52.227-19.
  
 Gaussian, Inc.
 340 Quinnipiac St., Bldg. 40, Wallingford CT 06492
  
  
 ---------------------------------------------------------------
 Warning -- This program may not be used in any manner that
 competes with the business of Gaussian, Inc. or will provide
 assistance to any competitor of Gaussian, Inc.  The licensee
 of this program is prohibited from giving any competitor of
 Gaussian, Inc. access to this program.  By using this program,
 the user acknowledges that Gaussian, Inc. is engaged in the
 business of creating and licensing software in the field of
 computational chemistry and represents and warrants to the
 licensee that it is not a competitor of Gaussian, Inc. and that
 it will not use this program in any manner prohibited above.
 ---------------------------------------------------------------
  

 Cite this work as:
 Gaussian 16, Revision C.01,
 M. J. Frisch, G. W. Trucks, H. B. Schlegel, G. E. Scuseria, 
 M. A. Robb, J. R. Cheeseman, G. Scalmani, V. Barone, 
 G. A. Petersson, H. Nakatsuji, X. Li, M. Caricato, A. V. Marenich, 
 J. Bloino, B. G. Janesko, R. Gomperts, B. Mennucci, H. P. Hratchian, 
 J. V. Ortiz, A. F. Izmaylov, J. L. Sonnenberg, D. Williams-Young, 
 F. Ding, F. Lipparini, F. Egidi, J. Goings, B. Peng, A. Petrone, 
 T. Henderson, D. Ranasinghe, V. G. Zakrzewski, J. Gao, N. Rega, 
 G. Zheng, W. Liang, M. Hada, M. Ehara, K. Toyota, R. Fukuda, 
 J. Hasegawa, M. Ishida, T. Nakajima, Y. Honda, O. Kitao, H. Nakai, 
 T. Vreven, K. Throssell, J. A. Montgomery, Jr., J. E. Peralta, 
 F. Ogliaro, M. J. Bearpark, J. J. Heyd, E. N. Brothers, K. N. Kudin, 
 V. N. Staroverov, T. A. Keith, R. Kobayashi, J. Normand, 
 K. Raghavachari, A. P. Rendell, J. C. Burant, S. S. Iyengar, 
 J. Tomasi, M. Cossi, J. M. Millam, M. Klene, C. Adamo, R. Cammi, 
 J. W. Ochterski, R. L. Martin, K. Morokuma, O. Farkas, 
 J. B. Foresman, and D. J. Fox, Gaussian, Inc., Wallingford CT, 2019.
 
 ******************************************
 Gaussian 16:  ES64L-G16RevC.01  3-Jul-2019
                 9-Apr-2025 
 ******************************************
 %nprocs=16
 Will use up to   16 processors via shared memory.
 %mem=30GB
 %chk=BH10_46_forward_mol3.chk
 ----------------------------------------------------------------------
 #t hf aug-cc-pvdz symm=none int=(grid=ultrafine) guess=(read,tcheck) s
 table=(opt,rrhf)
 ----------------------------------------------------------------------
 -----
 title
 -----
 Symbolic Z-matrix:
 Charge =  0 Multiplicity = 1
 C                     3.72143  -0.35642  -0.14119 
 H                     4.46834  -0.5016    0.63437 
 H                     3.44205   0.69429  -0.21697 
 H                     4.09556  -0.69901  -1.10541 
 O                     2.59122  -1.13604   0.26237 
 C                     1.53728  -1.08992  -0.55732 
 O                     1.52506  -0.4595   -1.58436 
 C                     0.37825  -1.89231  -0.0708 
 C                     0.48238  -2.7209    0.96233 
 C                    -0.90112  -1.67271  -0.81269 
 H                    -1.5259   -2.56518  -0.84251 
 H                    -0.72934  -1.30373  -1.8215 
 S                    -1.97106  -0.44883  -0.0004 
 C                    -0.91961   0.9798    0.17283 
 C                    -0.81914   1.87368  -0.88231 
 C                    -0.18301   1.13375   1.33817 
 C                     0.05569   2.94226  -0.77019 
 H                    -1.4212    1.72925  -1.76992 
 C                     0.69076   2.2066    1.43761 
 H                    -0.30676   0.42629   2.14729 
 C                     0.81123   3.1041    0.38448 
 H                     0.1483    3.64942  -1.58468 
 H                     1.2718    2.34515   2.34089 
 H                     1.49416   3.94117   0.46667 
 O                    -3.04058  -0.13522  -0.93961 
 O                    -2.27204  -0.95147   1.33612 
 H                    -0.37324  -3.28831   1.30662 
 H                     1.41896  -2.8364    1.49004 
 
                    Distance matrix (angstroms):
                    1          2          3          4          5
     1  C    0.000000
     2  H    1.086479   0.000000
     3  H    1.089854   1.791144   0.000000
     4  H    1.089519   1.790186   1.776980   0.000000
     5  O    1.431101   2.016055   2.074554   2.079625   0.000000
     6  C    2.341309   3.218285   2.631997   2.645375   1.335964
     7  O    2.630100   3.686112   2.622181   2.625684   2.237138
     8  C    3.679784   4.377233   4.012326   4.038908   2.362241
     9  C    4.159324   4.573913   4.670535   4.628026   2.729271
    10  C    4.852991   5.683003   4.982036   5.099073   3.693259
    11  H    5.736285   6.509254   5.974608   5.928952   4.495980
    12  H    4.850798   5.804357   4.895622   4.915091   3.923865
    13  S    5.694979   6.470817   5.536726   6.171500   4.621214
    14  C    4.839767   5.606917   4.388340   5.440970   4.100082
    15  C    5.112673   5.991637   4.471176   5.551825   4.690333
    16  C    4.433254   4.980430   3.968958   5.257010   3.742403
    17  C    4.971373   5.770993   4.102052   5.449007   4.911978
    18  H    5.783551   6.741213   5.209033   6.064044   5.332872
    19  C    4.271608   4.716949   3.548846   5.148019   4.020714
    20  H    4.698519   5.094253   4.440171   5.588085   3.793684
    21  C    4.552013   5.141787   3.618034   5.241204   4.600222
    22  H    5.558569   6.388887   4.631655   5.892313   5.681550
    23  H    4.411337   4.608041   3.738715   5.396060   4.263776
    24  H    4.878474   5.349024   3.847582   5.547066   5.198393
    25  O    6.812576   7.680849   6.575315   7.160290   5.844953
    26  O    6.201471   6.791722   6.145849   6.824301   4.983800
    27  H    5.240082   5.626588   5.721786   5.700217   3.809295
    28  H    3.756675   3.934736   4.412772   4.297555   2.402626
                    6          7          8          9         10
     6  C    0.000000
     7  O    1.205152   0.000000
     8  C    1.491268   2.378863   0.000000
     9  C    2.466216   3.561843   1.328440   0.000000
    10  C    2.520045   2.820230   1.495125   2.482629   0.000000
    11  H    3.411856   3.780550   2.161958   2.704604   1.089832
    12  H    2.604116   2.418943   2.153630   3.350569   1.087819
    13  S    3.609647   3.838210   2.758229   3.479725   1.817270
    14  C    3.294412   3.337017   3.161142   4.035349   2.829736
    15  C    3.800166   3.381106   4.034227   5.119256   3.548021
    16  C    3.390716   3.741268   3.384854   3.929665   3.608058
    17  C    4.301032   3.793924   4.895534   5.937592   4.713305
    18  H    4.262710   3.674982   4.386422   5.558107   3.572125
    19  C    3.945045   4.115387   4.378819   4.954750   4.758884
    20  H    3.607529   4.250338   3.281015   3.454218   3.677028
    21  C    4.359355   4.133417   5.035764   5.862820   5.213761
    22  H    5.044410   4.333436   5.749391   6.868754   5.479262
    23  H    4.502202   4.830919   4.956892   5.309279   5.550662
    24  H    5.134422   4.855260   5.963525   6.756662   6.236165
    25  O    4.691945   4.622325   3.940884   4.765954   2.637664
    26  O    4.256193   4.815516   3.144619   3.295056   2.648960
    27  H    3.457924   4.468047   2.100195   1.082853   2.716666
    28  H    2.693676   3.887529   2.100150   1.081210   3.469803
                   11         12         13         14         15
    11  H    0.000000
    12  H    1.784421   0.000000
    13  S    2.320830   2.364132   0.000000
    14  C    3.737026   3.037773   1.782281   0.000000
    15  C    4.494945   3.314528   2.738376   1.386516   0.000000
    16  C    4.498974   4.027815   2.737412   1.387192   2.425427
    17  C    5.730489   4.444096   4.024891   2.385734   1.385559
    18  H    4.394665   3.111316   2.859637   2.141850   1.082214
    19  C    5.734317   4.996089   4.025473   2.387048   2.787949
    20  H    4.401600   4.350039   2.854520   2.140204   3.396464
    21  C    6.253671   5.164177   4.529078   2.748318   2.403500
    22  H    6.478807   5.035876   4.878240   3.369884   2.140682
    23  H    6.486331   5.885950   4.878941   3.371490   3.870833
    24  H    7.291586   6.139110   5.612300   3.831750   3.383138
    25  O    2.865023   2.735865   1.457514   2.641838   2.995619
    26  O    2.811975   3.531935   1.459292   2.629096   3.874769
    27  H    2.543681   3.721621   3.510553   4.449806   5.624622
    28  H    3.766510   4.234454   4.406150   4.665552   5.729053
                   16         17         18         19         20
    16  C    0.000000
    17  C    2.787984   0.000000
    18  H    3.398228   2.156872   0.000000
    19  C    1.387219   2.412229   3.869946   0.000000
    20  H    1.081893   3.869517   4.276005   2.160607   0.000000
    21  C    2.404231   1.389346   3.393439   1.388918   3.395305
    22  H    3.870584   1.082614   2.486911   3.392669   4.952098
    23  H    2.142291   3.393265   4.952813   1.082923   2.492261
    24  H    3.384377   2.144018   4.288855   2.144033   4.292106
    25  O    3.868369   4.368808   2.605380   5.005816   4.161495
    26  O    2.951645   5.001602   4.190185   4.331505   2.533486
    27  H    4.426259   6.581571   5.978223   5.598510   3.809117
    28  H    4.283859   6.352956   6.288006   5.095577   3.749028
                   21         22         23         24         25
    21  C    0.000000
    22  H    2.148126   0.000000
    23  H    2.148411   4.286429   0.000000
    24  H    1.083432   2.470729   2.471722   0.000000
    25  O    5.204119   4.990846   5.959072   6.257668   0.000000
    26  O    5.182650   5.962997   4.943288   6.235233   2.536905
    27  H    6.566296   7.534168   5.959174   7.513856   4.701300
    28  H    6.072989   7.289333   5.253006   6.854808   5.752139
                   26         27         28
    26  O    0.000000
    27  H    3.011166   0.000000
    28  H    4.147305   1.857377   0.000000
 Symmetry turned off by external request.
 Rotational constants (GHZ):           0.6037148           0.5065742           0.3510295
   480 basis functions,   858 primitive gaussians,   512 cartesian basis functions
    63 alpha electrons       63 beta electrons
       nuclear repulsion energy      1304.4944798824 Hartrees.
 NAtoms=   28 NActive=   28 NUniq=   28 SFac= 1.00D+00 NAtFMM=   60 NAOKFM=F Big=F
 ExpMin= 2.97D-02 ExpMax= 1.11D+05 ExpMxC= 1.07D+03 IAcc=3 IRadAn=         5 AccDes= 0.00D+00
 Harris functional with IExCor=  205 and IRadAn=       5 diagonalized for initial guess.
 HarFok:  IExCor=  205 AccDes= 0.00D+00 IRadAn=         5 IDoV= 1 UseB2=F ITyADJ=14
 ICtDFT=  3500011 ScaDFX=  1.000000  1.000000  1.000000  1.000000
 FoFCou: FMM=F IPFlag=           0 FMFlag=      100000 FMFlg1=           0
         NFxFlg=           0 DoJE=T BraDBF=F KetDBF=T FulRan=T
         wScrn=  0.000000 ICntrl=       500 IOpCl=  0 I1Cent=   200000004 NGrid=           0
         NMat0=    1 NMatS0=      1 NMatT0=    0 NMatD0=    1 NMtDS0=    0 NMtDT0=    0
 Symmetry not used in FoFCou.
 SCF Done:  E(RHF) =  -1120.52298764     A.U. after   16 cycles
            NFock= 16  Conv=0.53D-08     -V/T= 2.0007

 **********************************************************************

            Population analysis using the SCF Density.

 **********************************************************************

 Alpha  occ. eigenvalues --  -92.19479 -20.62536 -20.56804 -20.55032 -20.54966
 Alpha  occ. eigenvalues --  -11.40317 -11.30327 -11.28555 -11.27966 -11.27864
 Alpha  occ. eigenvalues --  -11.27639 -11.26856 -11.26729 -11.26651 -11.26009
 Alpha  occ. eigenvalues --  -11.25847  -9.16789  -6.85325  -6.85192  -6.85148
 Alpha  occ. eigenvalues --   -1.48447  -1.44873  -1.38043  -1.33561  -1.18696
 Alpha  occ. eigenvalues --   -1.13806  -1.06335  -1.04476  -1.01642  -0.98249
 Alpha  occ. eigenvalues --   -0.89968  -0.86733  -0.85528  -0.80743  -0.77519
 Alpha  occ. eigenvalues --   -0.73428  -0.71936  -0.69796  -0.69005  -0.67883
 Alpha  occ. eigenvalues --   -0.66584  -0.66070  -0.64053  -0.63296  -0.62443
 Alpha  occ. eigenvalues --   -0.61854  -0.61362  -0.57387  -0.57174  -0.56066
 Alpha  occ. eigenvalues --   -0.54237  -0.53923  -0.52890  -0.51931  -0.49228
 Alpha  occ. eigenvalues --   -0.48765  -0.47582  -0.46895  -0.46335  -0.44516
 Alpha  occ. eigenvalues --   -0.39177  -0.36789  -0.35763
 Alpha virt. eigenvalues --    0.02563   0.03496   0.03891   0.04194   0.04860
 Alpha virt. eigenvalues --    0.05219   0.05890   0.06198   0.06638   0.07317
 Alpha virt. eigenvalues --    0.07433   0.07538   0.08379   0.08864   0.09778
 Alpha virt. eigenvalues --    0.10341   0.11207   0.11350   0.12374   0.13045
 Alpha virt. eigenvalues --    0.13350   0.13662   0.13870   0.14257   0.14459
 Alpha virt. eigenvalues --    0.14714   0.14812   0.15157   0.16197   0.16411
 Alpha virt. eigenvalues --    0.16665   0.16882   0.17031   0.17532   0.17800
 Alpha virt. eigenvalues --    0.18098   0.18599   0.18925   0.19097   0.19411
 Alpha virt. eigenvalues --    0.19732   0.19842   0.20737   0.21071   0.21566
 Alpha virt. eigenvalues --    0.22169   0.22875   0.23473   0.23985   0.24343
 Alpha virt. eigenvalues --    0.24604   0.24775   0.25235   0.26027   0.27088
 Alpha virt. eigenvalues --    0.27647   0.27934   0.28112   0.28877   0.29481
 Alpha virt. eigenvalues --    0.29722   0.30633   0.30751   0.31348   0.31536
 Alpha virt. eigenvalues --    0.32028   0.32207   0.32830   0.33533   0.33585
 Alpha virt. eigenvalues --    0.34353   0.34565   0.35071   0.35324   0.35384
 Alpha virt. eigenvalues --    0.35870   0.36241   0.36437   0.36734   0.37297
 Alpha virt. eigenvalues --    0.37926   0.38799   0.38879   0.39237   0.39517
 Alpha virt. eigenvalues --    0.40058   0.40795   0.41075   0.41558   0.42045
 Alpha virt. eigenvalues --    0.42507   0.43210   0.43532   0.43698   0.44171
 Alpha virt. eigenvalues --    0.44740   0.45188   0.45447   0.46109   0.46686
 Alpha virt. eigenvalues --    0.47108   0.47330   0.47951   0.48213   0.48592
 Alpha virt. eigenvalues --    0.49388   0.49517   0.51621   0.52153   0.52841
 Alpha virt. eigenvalues --    0.53072   0.53915   0.53979   0.54448   0.55208
 Alpha virt. eigenvalues --    0.55317   0.55890   0.56905   0.57569   0.57936
 Alpha virt. eigenvalues --    0.58058   0.58416   0.59005   0.59497   0.60099
 Alpha virt. eigenvalues --    0.60208   0.60813   0.61428   0.61954   0.62418
 Alpha virt. eigenvalues --    0.62758   0.63267   0.63673   0.63940   0.64528
 Alpha virt. eigenvalues --    0.65048   0.65593   0.66584   0.67134   0.67335
 Alpha virt. eigenvalues --    0.68124   0.68232   0.68848   0.69005   0.69690
 Alpha virt. eigenvalues --    0.70031   0.70451   0.71014   0.71951   0.72379
 Alpha virt. eigenvalues --    0.72798   0.73178   0.73853   0.74544   0.74816
 Alpha virt. eigenvalues --    0.76034   0.76253   0.76362   0.77288   0.77535
 Alpha virt. eigenvalues --    0.78307   0.79518   0.80032   0.80373   0.80713
 Alpha virt. eigenvalues --    0.81283   0.81873   0.82467   0.82747   0.84000
 Alpha virt. eigenvalues --    0.84559   0.85203   0.85472   0.86010   0.86431
 Alpha virt. eigenvalues --    0.87346   0.88135   0.89216   0.89869   0.90123
 Alpha virt. eigenvalues --    0.90669   0.91319   0.92412   0.92787   0.93392
 Alpha virt. eigenvalues --    0.93860   0.94072   0.95447   0.95903   0.97262
 Alpha virt. eigenvalues --    0.97595   0.99199   0.99996   1.00300   1.01046
 Alpha virt. eigenvalues --    1.01515   1.02795   1.03638   1.04025   1.04538
 Alpha virt. eigenvalues --    1.05681   1.06239   1.06880   1.07774   1.08284
 Alpha virt. eigenvalues --    1.09590   1.10706   1.10965   1.12217   1.13047
 Alpha virt. eigenvalues --    1.14421   1.14915   1.16248   1.17422   1.18346
 Alpha virt. eigenvalues --    1.18741   1.20207   1.21255   1.22609   1.23145
 Alpha virt. eigenvalues --    1.24304   1.24732   1.26258   1.27258   1.27800
 Alpha virt. eigenvalues --    1.28415   1.29441   1.30375   1.31163   1.32672
 Alpha virt. eigenvalues --    1.33158   1.34404   1.35265   1.36365   1.37722
 Alpha virt. eigenvalues --    1.38831   1.39464   1.40645   1.41413   1.43123
 Alpha virt. eigenvalues --    1.44998   1.46073   1.47035   1.47719   1.48890
 Alpha virt. eigenvalues --    1.49826   1.50942   1.51192   1.51667   1.52533
 Alpha virt. eigenvalues --    1.53572   1.54333   1.56187   1.56651   1.57055
 Alpha virt. eigenvalues --    1.57715   1.60873   1.61475   1.62265   1.62621
 Alpha virt. eigenvalues --    1.63779   1.64121   1.64647   1.65458   1.65964
 Alpha virt. eigenvalues --    1.67890   1.68355   1.69526   1.70721   1.71685
 Alpha virt. eigenvalues --    1.72249   1.73076   1.73788   1.75161   1.75708
 Alpha virt. eigenvalues --    1.76305   1.77295   1.78048   1.78587   1.79908
 Alpha virt. eigenvalues --    1.81139   1.82034   1.82754   1.83915   1.84985
 Alpha virt. eigenvalues --    1.86753   1.87801   1.87968   1.89184   1.89770
 Alpha virt. eigenvalues --    1.91250   1.92391   1.93429   1.94393   1.94587
 Alpha virt. eigenvalues --    1.94851   1.96410   1.96925   1.97527   1.98907
 Alpha virt. eigenvalues --    1.99663   2.00833   2.02277   2.02432   2.04010
 Alpha virt. eigenvalues --    2.05013   2.05787   2.07206   2.07306   2.08066
 Alpha virt. eigenvalues --    2.09021   2.10616   2.11380   2.12773   2.14283
 Alpha virt. eigenvalues --    2.14685   2.16636   2.17436   2.18706   2.19053
 Alpha virt. eigenvalues --    2.20690   2.21252   2.22456   2.22832   2.24044
 Alpha virt. eigenvalues --    2.24500   2.26034   2.26879   2.28101   2.29405
 Alpha virt. eigenvalues --    2.29703   2.30618   2.31597   2.32401   2.33425
 Alpha virt. eigenvalues --    2.35076   2.36014   2.36589   2.37410   2.38513
 Alpha virt. eigenvalues --    2.39981   2.40750   2.41639   2.43053   2.43975
 Alpha virt. eigenvalues --    2.44854   2.45721   2.47246   2.48373   2.50001
 Alpha virt. eigenvalues --    2.50950   2.53130   2.53895   2.55784   2.60279
 Alpha virt. eigenvalues --    2.60664   2.62970   2.65164   2.65589   2.66624
 Alpha virt. eigenvalues --    2.69419   2.71292   2.72388   2.75388   2.75802
 Alpha virt. eigenvalues --    2.77394   2.81230   2.83135   2.83898   2.85286
 Alpha virt. eigenvalues --    2.88245   2.92864   2.94516   2.97590   2.98845
 Alpha virt. eigenvalues --    2.99070   3.01292   3.03262   3.06330   3.11235
 Alpha virt. eigenvalues --    3.12816   3.17836   3.22828   3.25025   3.27677
 Alpha virt. eigenvalues --    3.30941   3.34711   3.36285   3.38919   3.42870
 Alpha virt. eigenvalues --    3.49119   3.55805   3.67949   3.69918   3.75532
 Alpha virt. eigenvalues --    3.77947   3.78518   3.80632   3.82693   3.83035
 Alpha virt. eigenvalues --    3.83712   3.85187   3.85987   3.86382   3.86676
 Alpha virt. eigenvalues --    3.88817   3.90679   3.92597   3.94867   3.95941
 Alpha virt. eigenvalues --    3.99130   4.06356   4.07018   4.14926   4.19181
 Alpha virt. eigenvalues --    4.36696   4.81351
          Condensed to atoms (all electrons):
 Mulliken charges:
               1
     1  C    0.824926
     2  H   -0.272220
     3  H   -0.062017
     4  H   -0.059987
     5  O   -1.003623
     6  C    0.808842
     7  O   -0.790451
     8  C    0.468392
     9  C    1.267036
    10  C   -0.074071
    11  H   -0.156143
    12  H   -0.203644
    13  S    2.950749
    14  C    0.551802
    15  C    0.173204
    16  C    0.455481
    17  C    0.399086
    18  H   -0.626636
    19  C    0.451249
    20  H   -0.655001
    21  C    0.547956
    22  H   -0.469698
    23  H   -0.535115
    24  H   -0.499043
    25  O   -1.273361
    26  O   -1.343953
    27  H   -0.462661
    28  H   -0.411098
 Sum of Mulliken charges =  -0.00000
 Mulliken charges with hydrogens summed into heavy atoms:
               1
     1  C    0.430702
     5  O   -1.003623
     6  C    0.808842
     7  O   -0.790451
     8  C    0.468392
     9  C    0.393277
    10  C   -0.433858
    13  S    2.950749
    14  C    0.551802
    15  C   -0.453432
    16  C   -0.199520
    17  C   -0.070612
    19  C   -0.083867
    21  C    0.048913
    25  O   -1.273361
    26  O   -1.343953
 Electronic spatial extent (au):  <R**2>=           3416.7478
 Charge=             -0.0000 electrons
 Dipole moment (field-independent basis, Debye):
    X=              6.2639    Y=              0.2693    Z=              0.7886  Tot=              6.3191
 NROrb=    480 NOA=    63 NOB=    63 NVA=   417 NVB=   417

 **** Warning!!: The largest alpha MO coefficient is  0.12838792D+03

    12 initial guesses have been made.
 Iteration     1 Dimension    12 NMult     0 NNew     12
 New state      1 was old state      9
 Iteration     2 Dimension    24 NMult    12 NNew     12
 Iteration     3 Dimension    27 NMult    24 NNew      3
 Iteration     4 Dimension    30 NMult    27 NNew      3
 Iteration     5 Dimension    33 NMult    30 NNew      3
 Iteration     6 Dimension    36 NMult    33 NNew      3
 ***********************************************************************
 Stability analysis using <AA,BB:AA,BB> singles matrix:
 ***********************************************************************
 Ground to excited state transition densities written to RWF  633

 Eigenvectors of the stability matrix:
 
 Excited state symmetry could not be determined.
 Eigenvector   1:      Singlet-?Sym  Eigenvalue= 0.1692831  <S**2>=0.000
      62 -> 78        -0.39926
      63 -> 72        -0.17094
      63 -> 75        -0.33088
      63 -> 76         0.26307
      63 -> 77         0.16505
 The wavefunction is stable under the perturbations considered.
 The wavefunction is already stable.

 **********************************************************************

            Population analysis using the SCF Density.

 **********************************************************************

 Alpha  occ. eigenvalues --  -92.19479 -20.62536 -20.56804 -20.55032 -20.54966
 Alpha  occ. eigenvalues --  -11.40317 -11.30327 -11.28555 -11.27966 -11.27864
 Alpha  occ. eigenvalues --  -11.27639 -11.26856 -11.26729 -11.26651 -11.26009
 Alpha  occ. eigenvalues --  -11.25847  -9.16789  -6.85325  -6.85192  -6.85148
 Alpha  occ. eigenvalues --   -1.48447  -1.44873  -1.38043  -1.33561  -1.18696
 Alpha  occ. eigenvalues --   -1.13806  -1.06335  -1.04476  -1.01642  -0.98249
 Alpha  occ. eigenvalues --   -0.89968  -0.86733  -0.85528  -0.80743  -0.77519
 Alpha  occ. eigenvalues --   -0.73428  -0.71936  -0.69796  -0.69005  -0.67883
 Alpha  occ. eigenvalues --   -0.66584  -0.66070  -0.64053  -0.63296  -0.62443
 Alpha  occ. eigenvalues --   -0.61854  -0.61362  -0.57387  -0.57174  -0.56066
 Alpha  occ. eigenvalues --   -0.54237  -0.53923  -0.52890  -0.51931  -0.49228
 Alpha  occ. eigenvalues --   -0.48765  -0.47582  -0.46895  -0.46335  -0.44516
 Alpha  occ. eigenvalues --   -0.39177  -0.36789  -0.35763
 Alpha virt. eigenvalues --    0.02563   0.03496   0.03891   0.04194   0.04860
 Alpha virt. eigenvalues --    0.05219   0.05890   0.06198   0.06638   0.07317
 Alpha virt. eigenvalues --    0.07433   0.07538   0.08379   0.08864   0.09778
 Alpha virt. eigenvalues --    0.10341   0.11207   0.11350   0.12374   0.13045
 Alpha virt. eigenvalues --    0.13350   0.13662   0.13870   0.14257   0.14459
 Alpha virt. eigenvalues --    0.14714   0.14812   0.15157   0.16197   0.16411
 Alpha virt. eigenvalues --    0.16665   0.16882   0.17031   0.17532   0.17800
 Alpha virt. eigenvalues --    0.18098   0.18599   0.18925   0.19097   0.19411
 Alpha virt. eigenvalues --    0.19732   0.19842   0.20737   0.21071   0.21566
 Alpha virt. eigenvalues --    0.22169   0.22875   0.23473   0.23985   0.24343
 Alpha virt. eigenvalues --    0.24604   0.24775   0.25235   0.26027   0.27088
 Alpha virt. eigenvalues --    0.27647   0.27934   0.28112   0.28877   0.29481
 Alpha virt. eigenvalues --    0.29722   0.30633   0.30751   0.31348   0.31536
 Alpha virt. eigenvalues --    0.32028   0.32207   0.32830   0.33533   0.33585
 Alpha virt. eigenvalues --    0.34353   0.34565   0.35071   0.35324   0.35384
 Alpha virt. eigenvalues --    0.35870   0.36241   0.36437   0.36734   0.37297
 Alpha virt. eigenvalues --    0.37926   0.38799   0.38879   0.39237   0.39517
 Alpha virt. eigenvalues --    0.40058   0.40795   0.41075   0.41558   0.42045
 Alpha virt. eigenvalues --    0.42507   0.43210   0.43532   0.43698   0.44171
 Alpha virt. eigenvalues --    0.44740   0.45188   0.45447   0.46109   0.46686
 Alpha virt. eigenvalues --    0.47108   0.47330   0.47951   0.48213   0.48592
 Alpha virt. eigenvalues --    0.49388   0.49517   0.51621   0.52153   0.52841
 Alpha virt. eigenvalues --    0.53072   0.53915   0.53979   0.54448   0.55208
 Alpha virt. eigenvalues --    0.55317   0.55890   0.56905   0.57569   0.57936
 Alpha virt. eigenvalues --    0.58058   0.58416   0.59005   0.59497   0.60099
 Alpha virt. eigenvalues --    0.60208   0.60813   0.61428   0.61954   0.62418
 Alpha virt. eigenvalues --    0.62758   0.63267   0.63673   0.63940   0.64528
 Alpha virt. eigenvalues --    0.65048   0.65593   0.66584   0.67134   0.67335
 Alpha virt. eigenvalues --    0.68124   0.68232   0.68848   0.69005   0.69690
 Alpha virt. eigenvalues --    0.70031   0.70451   0.71014   0.71951   0.72379
 Alpha virt. eigenvalues --    0.72798   0.73178   0.73853   0.74544   0.74816
 Alpha virt. eigenvalues --    0.76034   0.76253   0.76362   0.77288   0.77535
 Alpha virt. eigenvalues --    0.78307   0.79518   0.80032   0.80373   0.80713
 Alpha virt. eigenvalues --    0.81283   0.81873   0.82467   0.82747   0.84000
 Alpha virt. eigenvalues --    0.84559   0.85203   0.85472   0.86010   0.86431
 Alpha virt. eigenvalues --    0.87346   0.88135   0.89216   0.89869   0.90123
 Alpha virt. eigenvalues --    0.90669   0.91319   0.92412   0.92787   0.93392
 Alpha virt. eigenvalues --    0.93860   0.94072   0.95447   0.95903   0.97262
 Alpha virt. eigenvalues --    0.97595   0.99199   0.99996   1.00300   1.01046
 Alpha virt. eigenvalues --    1.01515   1.02795   1.03638   1.04025   1.04538
 Alpha virt. eigenvalues --    1.05681   1.06239   1.06880   1.07774   1.08284
 Alpha virt. eigenvalues --    1.09590   1.10706   1.10965   1.12217   1.13047
 Alpha virt. eigenvalues --    1.14421   1.14915   1.16248   1.17422   1.18346
 Alpha virt. eigenvalues --    1.18741   1.20207   1.21255   1.22609   1.23145
 Alpha virt. eigenvalues --    1.24304   1.24732   1.26258   1.27258   1.27800
 Alpha virt. eigenvalues --    1.28415   1.29441   1.30375   1.31163   1.32672
 Alpha virt. eigenvalues --    1.33158   1.34404   1.35265   1.36365   1.37722
 Alpha virt. eigenvalues --    1.38831   1.39464   1.40645   1.41413   1.43123
 Alpha virt. eigenvalues --    1.44998   1.46073   1.47035   1.47719   1.48890
 Alpha virt. eigenvalues --    1.49826   1.50942   1.51192   1.51667   1.52533
 Alpha virt. eigenvalues --    1.53572   1.54333   1.56187   1.56651   1.57055
 Alpha virt. eigenvalues --    1.57715   1.60873   1.61475   1.62265   1.62621
 Alpha virt. eigenvalues --    1.63779   1.64121   1.64647   1.65458   1.65964
 Alpha virt. eigenvalues --    1.67890   1.68355   1.69526   1.70721   1.71685
 Alpha virt. eigenvalues --    1.72249   1.73076   1.73788   1.75161   1.75708
 Alpha virt. eigenvalues --    1.76305   1.77295   1.78048   1.78587   1.79908
 Alpha virt. eigenvalues --    1.81139   1.82034   1.82754   1.83915   1.84985
 Alpha virt. eigenvalues --    1.86753   1.87801   1.87968   1.89184   1.89770
 Alpha virt. eigenvalues --    1.91250   1.92391   1.93429   1.94393   1.94587
 Alpha virt. eigenvalues --    1.94851   1.96410   1.96925   1.97527   1.98907
 Alpha virt. eigenvalues --    1.99663   2.00833   2.02277   2.02432   2.04010
 Alpha virt. eigenvalues --    2.05013   2.05787   2.07206   2.07306   2.08066
 Alpha virt. eigenvalues --    2.09021   2.10616   2.11380   2.12773   2.14283
 Alpha virt. eigenvalues --    2.14685   2.16636   2.17436   2.18706   2.19053
 Alpha virt. eigenvalues --    2.20690   2.21252   2.22456   2.22832   2.24044
 Alpha virt. eigenvalues --    2.24500   2.26034   2.26879   2.28101   2.29405
 Alpha virt. eigenvalues --    2.29703   2.30618   2.31597   2.32401   2.33425
 Alpha virt. eigenvalues --    2.35076   2.36014   2.36589   2.37410   2.38513
 Alpha virt. eigenvalues --    2.39981   2.40750   2.41639   2.43053   2.43975
 Alpha virt. eigenvalues --    2.44854   2.45721   2.47246   2.48373   2.50001
 Alpha virt. eigenvalues --    2.50950   2.53130   2.53895   2.55784   2.60279
 Alpha virt. eigenvalues --    2.60664   2.62970   2.65164   2.65589   2.66624
 Alpha virt. eigenvalues --    2.69419   2.71292   2.72388   2.75388   2.75802
 Alpha virt. eigenvalues --    2.77394   2.81230   2.83135   2.83898   2.85286
 Alpha virt. eigenvalues --    2.88245   2.92864   2.94516   2.97590   2.98845
 Alpha virt. eigenvalues --    2.99070   3.01292   3.03262   3.06330   3.11235
 Alpha virt. eigenvalues --    3.12816   3.17836   3.22828   3.25025   3.27677
 Alpha virt. eigenvalues --    3.30941   3.34711   3.36285   3.38919   3.42870
 Alpha virt. eigenvalues --    3.49119   3.55805   3.67949   3.69918   3.75532
 Alpha virt. eigenvalues --    3.77947   3.78518   3.80632   3.82693   3.83035
 Alpha virt. eigenvalues --    3.83712   3.85187   3.85987   3.86382   3.86676
 Alpha virt. eigenvalues --    3.88817   3.90679   3.92597   3.94867   3.95941
 Alpha virt. eigenvalues --    3.99130   4.06356   4.07018   4.14926   4.19181
 Alpha virt. eigenvalues --    4.36696   4.81351
          Condensed to atoms (all electrons):
 Mulliken charges:
               1
     1  C    0.824926
     2  H   -0.272220
     3  H   -0.062017
     4  H   -0.059987
     5  O   -1.003623
     6  C    0.808842
     7  O   -0.790451
     8  C    0.468392
     9  C    1.267036
    10  C   -0.074071
    11  H   -0.156143
    12  H   -0.203644
    13  S    2.950749
    14  C    0.551802
    15  C    0.173204
    16  C    0.455481
    17  C    0.399086
    18  H   -0.626636
    19  C    0.451249
    20  H   -0.655001
    21  C    0.547956
    22  H   -0.469698
    23  H   -0.535115
    24  H   -0.499043
    25  O   -1.273361
    26  O   -1.343953
    27  H   -0.462661
    28  H   -0.411098
 Sum of Mulliken charges =  -0.00000
 Mulliken charges with hydrogens summed into heavy atoms:
               1
     1  C    0.430702
     5  O   -1.003623
     6  C    0.808842
     7  O   -0.790451
     8  C    0.468392
     9  C    0.393277
    10  C   -0.433858
    13  S    2.950749
    14  C    0.551802
    15  C   -0.453432
    16  C   -0.199520
    17  C   -0.070612
    19  C   -0.083867
    21  C    0.048913
    25  O   -1.273361
    26  O   -1.343953
 Electronic spatial extent (au):  <R**2>=           3416.7478
 Charge=             -0.0000 electrons
 Dipole moment (field-independent basis, Debye):
    X=              6.2639    Y=              0.2693    Z=              0.7886  Tot=              6.3191
 Unable to Open any file for archive entry.
 1\1\GINC-SE454\Stability\RHF\Aug-CC-pVDZ\C11H12O4S1\OHZDE\09-Apr-2025\
 0\\#t hf aug-cc-pvdz symm=none int=(grid=ultrafine) guess=(read,tcheck
 ) stable=(opt,rrhf)\\title\\0,1\C,0,3.721433,-0.356417,-0.14119\H,0,4.
 468336,-0.501599,0.634371\H,0,3.442051,0.69429,-0.216972\H,0,4.095557,
 -0.699005,-1.105408\O,0,2.591216,-1.136035,0.262365\C,0,1.537277,-1.08
 992,-0.557321\O,0,1.525059,-0.459497,-1.58436\C,0,0.378248,-1.892311,-
 0.070802\C,0,0.482379,-2.720895,0.962328\C,0,-0.901118,-1.67271,-0.812
 69\H,0,-1.525899,-2.565175,-0.842514\H,0,-0.729341,-1.303732,-1.8215\S
 ,0,-1.971055,-0.448826,-0.000401\C,0,-0.919608,0.979802,0.172826\C,0,-
 0.819143,1.873681,-0.882311\C,0,-0.183007,1.133748,1.338168\C,0,0.0556
 94,2.94226,-0.770187\H,0,-1.421204,1.729245,-1.769919\C,0,0.690762,2.2
 06603,1.437605\H,0,-0.306757,0.426287,2.14729\C,0,0.811229,3.104104,0.
 38448\H,0,0.148299,3.64942,-1.584682\H,0,1.2718,2.345152,2.340889\H,0,
 1.494157,3.94117,0.466671\O,0,-3.040577,-0.13522,-0.939614\O,0,-2.2720
 39,-0.951473,1.33612\H,0,-0.373237,-3.288309,1.306616\H,0,1.418963,-2.
 8364,1.490043\\Version=ES64L-G16RevC.01\HF=-1120.5229876\RMSD=5.339e-0
 9\Dipole=2.4644048,0.1059543,0.3102506\Quadrupole=-7.9361652,10.058899
 8,-2.1227346,1.6560325,4.5936408,-0.4409559\PG=Unknown\\@
 The archive entry for this job was punched.


 We make a living by what we get,
 we make a life by what we give.
                   -- Sir Winston Churchill
 Job cpu time:       0 days  2 hours 21 minutes 12.2 seconds.
 Elapsed time:       0 days  0 hours  9 minutes  3.7 seconds.
 File lengths (MBytes):  RWF=   1037 Int=      0 D2E=      0 Chk=     30 Scr=      1
 Normal termination of Gaussian 16 at Wed Apr  9 02:06:06 2025.
 Initial command:
 /arc/software/Gaussian/g16.c01/l1.exe "/tmp/slurm/4856515/Gau-406687.inp" -scrdir="/tmp/slurm/4856515/"
 Entering Link 1 = /arc/software/Gaussian/g16.c01/l1.exe PID=    407102.
  
 Copyright (c) 1988-2019, Gaussian, Inc.  All Rights Reserved.
  
 This is part of the Gaussian(R) 16 program.  It is based on
 the Gaussian(R) 09 system (copyright 2009, Gaussian, Inc.),
 the Gaussian(R) 03 system (copyright 2003, Gaussian, Inc.),
 the Gaussian(R) 98 system (copyright 1998, Gaussian, Inc.),
 the Gaussian(R) 94 system (copyright 1995, Gaussian, Inc.),
 the Gaussian 92(TM) system (copyright 1992, Gaussian, Inc.),
 the Gaussian 90(TM) system (copyright 1990, Gaussian, Inc.),
 the Gaussian 88(TM) system (copyright 1988, Gaussian, Inc.),
 the Gaussian 86(TM) system (copyright 1986, Carnegie Mellon
 University), and the Gaussian 82(TM) system (copyright 1983,
 Carnegie Mellon University). Gaussian is a federally registered
 trademark of Gaussian, Inc.
  
 This software contains proprietary and confidential information,
 including trade secrets, belonging to Gaussian, Inc.
  
 This software is provided under written license and may be
 used, copied, transmitted, or stored only in accord with that
 written license.
  
 The following legend is applicable only to US Government
 contracts under FAR:
  
                    RESTRICTED RIGHTS LEGEND
  
 Use, reproduction and disclosure by the US Government is
 subject to restrictions as set forth in subparagraphs (a)
 and (c) of the Commercial Computer Software - Restricted
 Rights clause in FAR 52.227-19.
  
 Gaussian, Inc.
 340 Quinnipiac St., Bldg. 40, Wallingford CT 06492
  
  
 ---------------------------------------------------------------
 Warning -- This program may not be used in any manner that
 competes with the business of Gaussian, Inc. or will provide
 assistance to any competitor of Gaussian, Inc.  The licensee
 of this program is prohibited from giving any competitor of
 Gaussian, Inc. access to this program.  By using this program,
 the user acknowledges that Gaussian, Inc. is engaged in the
 business of creating and licensing software in the field of
 computational chemistry and represents and warrants to the
 licensee that it is not a competitor of Gaussian, Inc. and that
 it will not use this program in any manner prohibited above.
 ---------------------------------------------------------------
  

 Cite this work as:
 Gaussian 16, Revision C.01,
 M. J. Frisch, G. W. Trucks, H. B. Schlegel, G. E. Scuseria, 
 M. A. Robb, J. R. Cheeseman, G. Scalmani, V. Barone, 
 G. A. Petersson, H. Nakatsuji, X. Li, M. Caricato, A. V. Marenich, 
 J. Bloino, B. G. Janesko, R. Gomperts, B. Mennucci, H. P. Hratchian, 
 J. V. Ortiz, A. F. Izmaylov, J. L. Sonnenberg, D. Williams-Young, 
 F. Ding, F. Lipparini, F. Egidi, J. Goings, B. Peng, A. Petrone, 
 T. Henderson, D. Ranasinghe, V. G. Zakrzewski, J. Gao, N. Rega, 
 G. Zheng, W. Liang, M. Hada, M. Ehara, K. Toyota, R. Fukuda, 
 J. Hasegawa, M. Ishida, T. Nakajima, Y. Honda, O. Kitao, H. Nakai, 
 T. Vreven, K. Throssell, J. A. Montgomery, Jr., J. E. Peralta, 
 F. Ogliaro, M. J. Bearpark, J. J. Heyd, E. N. Brothers, K. N. Kudin, 
 V. N. Staroverov, T. A. Keith, R. Kobayashi, J. Normand, 
 K. Raghavachari, A. P. Rendell, J. C. Burant, S. S. Iyengar, 
 J. Tomasi, M. Cossi, J. M. Millam, M. Klene, C. Adamo, R. Cammi, 
 J. W. Ochterski, R. L. Martin, K. Morokuma, O. Farkas, 
 J. B. Foresman, and D. J. Fox, Gaussian, Inc., Wallingford CT, 2019.
 
 ******************************************
 Gaussian 16:  ES64L-G16RevC.01  3-Jul-2019
                 9-Apr-2025 
 ******************************************
 %nprocs=16
 Will use up to   16 processors via shared memory.
 %mem=30GB
 %chk=BH10_46_forward_mol3.chk
 ----------------------------------------------------------------------
 #t hf aug-cc-pvdz iop(5/13=1,5/36=2,99/5=2) pseudo=read geom=check gue
 ss=(read,tcheck) scf=(maxcycle=1)
 ----------------------------------------------------------------------
 -----
 title
 -----
 Structure from the checkpoint file:  "BH10_46_forward_mol3.chk"
 Charge =  0 Multiplicity = 1
 Z-Matrix found in chk file.
 C,0,3.721433,-0.356417,-0.14119
 H,0,4.468336,-0.501599,0.634371
 H,0,3.442051,0.69429,-0.216972
 H,0,4.095557,-0.699005,-1.105408
 O,0,2.591216,-1.136035,0.262365
 C,0,1.537277,-1.08992,-0.557321
 O,0,1.525059,-0.459497,-1.58436
 C,0,0.378248,-1.892311,-0.070802
 C,0,0.482379,-2.720895,0.962328
 C,0,-0.901118,-1.67271,-0.81269
 H,0,-1.525899,-2.565175,-0.842514
 H,0,-0.729341,-1.303732,-1.8215
 S,0,-1.971055,-0.448826,-0.000401
 C,0,-0.919608,0.979802,0.172826
 C,0,-0.819143,1.873681,-0.882311
 C,0,-0.183007,1.133748,1.338168
 C,0,0.055694,2.94226,-0.770187
 H,0,-1.421204,1.729245,-1.769919
 C,0,0.690762,2.206603,1.437605
 H,0,-0.306757,0.426287,2.14729
 C,0,0.811229,3.104104,0.38448
 H,0,0.148299,3.64942,-1.584682
 H,0,1.2718,2.345152,2.340889
 H,0,1.494157,3.94117,0.466671
 O,0,-3.040577,-0.13522,-0.939614
 O,0,-2.272039,-0.951473,1.33612
 H,0,-0.373237,-3.288309,1.306616
 H,0,1.418963,-2.8364,1.490043
 Recover connectivity data from disk.
                    Distance matrix (angstroms):
                    1          2          3          4          5
     1  C    0.000000
     2  H    1.086479   0.000000
     3  H    1.089854   1.791144   0.000000
     4  H    1.089519   1.790186   1.776980   0.000000
     5  O    1.431101   2.016055   2.074554   2.079625   0.000000
     6  C    2.341309   3.218285   2.631997   2.645375   1.335964
     7  O    2.630100   3.686112   2.622181   2.625684   2.237138
     8  C    3.679784   4.377233   4.012326   4.038908   2.362241
     9  C    4.159324   4.573913   4.670535   4.628026   2.729271
    10  C    4.852991   5.683003   4.982036   5.099073   3.693259
    11  H    5.736285   6.509254   5.974608   5.928952   4.495980
    12  H    4.850798   5.804357   4.895622   4.915091   3.923865
    13  S    5.694979   6.470817   5.536726   6.171500   4.621214
    14  C    4.839767   5.606917   4.388340   5.440970   4.100082
    15  C    5.112673   5.991637   4.471176   5.551825   4.690333
    16  C    4.433254   4.980430   3.968958   5.257010   3.742403
    17  C    4.971373   5.770993   4.102052   5.449007   4.911978
    18  H    5.783551   6.741213   5.209033   6.064044   5.332872
    19  C    4.271608   4.716949   3.548846   5.148019   4.020714
    20  H    4.698519   5.094253   4.440171   5.588085   3.793684
    21  C    4.552013   5.141787   3.618034   5.241204   4.600222
    22  H    5.558569   6.388887   4.631655   5.892313   5.681550
    23  H    4.411337   4.608041   3.738715   5.396060   4.263776
    24  H    4.878474   5.349024   3.847582   5.547066   5.198393
    25  O    6.812576   7.680849   6.575315   7.160290   5.844953
    26  O    6.201471   6.791722   6.145849   6.824301   4.983800
    27  H    5.240082   5.626588   5.721786   5.700217   3.809295
    28  H    3.756675   3.934736   4.412772   4.297555   2.402626
                    6          7          8          9         10
     6  C    0.000000
     7  O    1.205152   0.000000
     8  C    1.491268   2.378863   0.000000
     9  C    2.466216   3.561843   1.328440   0.000000
    10  C    2.520045   2.820230   1.495125   2.482629   0.000000
    11  H    3.411856   3.780550   2.161958   2.704604   1.089832
    12  H    2.604116   2.418943   2.153630   3.350569   1.087819
    13  S    3.609647   3.838210   2.758229   3.479725   1.817270
    14  C    3.294412   3.337017   3.161142   4.035349   2.829736
    15  C    3.800166   3.381106   4.034227   5.119256   3.548021
    16  C    3.390716   3.741268   3.384854   3.929665   3.608058
    17  C    4.301032   3.793924   4.895534   5.937592   4.713305
    18  H    4.262710   3.674982   4.386422   5.558107   3.572125
    19  C    3.945045   4.115387   4.378819   4.954750   4.758884
    20  H    3.607529   4.250338   3.281015   3.454218   3.677028
    21  C    4.359355   4.133417   5.035764   5.862820   5.213761
    22  H    5.044410   4.333436   5.749391   6.868754   5.479262
    23  H    4.502202   4.830919   4.956892   5.309279   5.550662
    24  H    5.134422   4.855260   5.963525   6.756662   6.236165
    25  O    4.691945   4.622325   3.940884   4.765954   2.637664
    26  O    4.256193   4.815516   3.144619   3.295056   2.648960
    27  H    3.457924   4.468047   2.100195   1.082853   2.716666
    28  H    2.693676   3.887529   2.100150   1.081210   3.469803
                   11         12         13         14         15
    11  H    0.000000
    12  H    1.784421   0.000000
    13  S    2.320830   2.364132   0.000000
    14  C    3.737026   3.037773   1.782281   0.000000
    15  C    4.494945   3.314528   2.738376   1.386516   0.000000
    16  C    4.498974   4.027815   2.737412   1.387192   2.425427
    17  C    5.730489   4.444096   4.024891   2.385734   1.385559
    18  H    4.394665   3.111316   2.859637   2.141850   1.082214
    19  C    5.734317   4.996089   4.025473   2.387048   2.787949
    20  H    4.401600   4.350039   2.854520   2.140204   3.396464
    21  C    6.253671   5.164177   4.529078   2.748318   2.403500
    22  H    6.478807   5.035876   4.878240   3.369884   2.140682
    23  H    6.486331   5.885950   4.878941   3.371490   3.870833
    24  H    7.291586   6.139110   5.612300   3.831750   3.383138
    25  O    2.865023   2.735865   1.457514   2.641838   2.995619
    26  O    2.811975   3.531935   1.459292   2.629096   3.874769
    27  H    2.543681   3.721621   3.510553   4.449806   5.624622
    28  H    3.766510   4.234454   4.406150   4.665552   5.729053
                   16         17         18         19         20
    16  C    0.000000
    17  C    2.787984   0.000000
    18  H    3.398228   2.156872   0.000000
    19  C    1.387219   2.412229   3.869946   0.000000
    20  H    1.081893   3.869517   4.276005   2.160607   0.000000
    21  C    2.404231   1.389346   3.393439   1.388918   3.395305
    22  H    3.870584   1.082614   2.486911   3.392669   4.952098
    23  H    2.142291   3.393265   4.952813   1.082923   2.492261
    24  H    3.384377   2.144018   4.288855   2.144033   4.292106
    25  O    3.868369   4.368808   2.605380   5.005816   4.161495
    26  O    2.951645   5.001602   4.190185   4.331505   2.533486
    27  H    4.426259   6.581571   5.978223   5.598510   3.809117
    28  H    4.283859   6.352956   6.288006   5.095577   3.749028
                   21         22         23         24         25
    21  C    0.000000
    22  H    2.148126   0.000000
    23  H    2.148411   4.286429   0.000000
    24  H    1.083432   2.470729   2.471722   0.000000
    25  O    5.204119   4.990846   5.959072   6.257668   0.000000
    26  O    5.182650   5.962997   4.943288   6.235233   2.536905
    27  H    6.566296   7.534168   5.959174   7.513856   4.701300
    28  H    6.072989   7.289333   5.253006   6.854808   5.752139
                   26         27         28
    26  O    0.000000
    27  H    3.011166   0.000000
    28  H    4.147305   1.857377   0.000000
 Framework group  C1[X(C11H12O4S)]
 Deg. of freedom    78
                         Standard orientation:                         
 ---------------------------------------------------------------------
 Center     Atomic      Atomic             Coordinates (Angstroms)
 Number     Number       Type             X           Y           Z
 ---------------------------------------------------------------------
      1          6           0        3.721433   -0.356419   -0.141190
      2          1           0        4.468336   -0.501601    0.634371
      3          1           0        3.442051    0.694288   -0.216972
      4          1           0        4.095557   -0.699007   -1.105408
      5          8           0        2.591215   -1.136036    0.262365
      6          6           0        1.537276   -1.089921   -0.557321
      7          8           0        1.525059   -0.459498   -1.584360
      8          6           0        0.378247   -1.892311   -0.070802
      9          6           0        0.482378   -2.720895    0.962328
     10          6           0       -0.901119   -1.672710   -0.812690
     11          1           0       -1.525900   -2.565174   -0.842514
     12          1           0       -0.729342   -1.303732   -1.821500
     13         16           0       -1.971055   -0.448825   -0.000401
     14          6           0       -0.919607    0.979802    0.172826
     15          6           0       -0.819142    1.873681   -0.882311
     16          6           0       -0.183006    1.133748    1.338168
     17          6           0        0.055696    2.942260   -0.770187
     18          1           0       -1.421203    1.729246   -1.769919
     19          6           0        0.690763    2.206603    1.437605
     20          1           0       -0.306757    0.426287    2.147290
     21          6           0        0.811231    3.104104    0.384480
     22          1           0        0.148301    3.649420   -1.584682
     23          1           0        1.271801    2.345151    2.340889
     24          1           0        1.494159    3.941169    0.466671
     25          8           0       -3.040577   -0.135218   -0.939614
     26          8           0       -2.272039   -0.951472    1.336120
     27          1           0       -0.373239   -3.288309    1.306616
     28          1           0        1.418962   -2.836401    1.490043
 ---------------------------------------------------------------------
 Rotational constants (GHZ):           0.6037148           0.5065742           0.3510295
 ======================================================================================================
                                       Pseudopotential Parameters
 ======================================================================================================
  Center     Atomic      Valence      Angular      Power
  Number     Number     Electrons     Momentum     of R      Exponent        Coefficient   SO-Coeffient
 ======================================================================================================
    1          6            6
                                      G and up 
                                                     0        0.0000010       -0.00007288    0.00000000
                                                     2        0.1200000        0.10466671    0.00000000
                                                     2        0.1400000       -0.65716157    0.00000000
                                                     2        0.1600000        1.18890794    0.00000000
                                                     2        0.2000000       -1.25772850    0.00000000
                                                     2        0.2600000        1.01188378    0.00000000
                                                     2        0.4000000       -1.09380874    0.00000000
                                                     2        0.5000000        0.96944888    0.00000000
                                                     2        1.0000000       -0.79256938    0.00000000
                                                     2        3.0000000        1.06443276    0.00000000
                                      S - G
                                                     0        0.0000010       -0.00635295    0.00000000
                                                     2        0.1200000        0.16918955    0.00000000
                                                     2        0.1600000       -0.38862576    0.00000000
                                                     2        0.2800000        0.25638263    0.00000000
                                                     2        0.5000000        0.29628419    0.00000000
                                                     2        0.9000000       -0.28791512    0.00000000
                                      P - G
                                                     0        0.0000010       -0.04756931    0.00000000
                                                     2        0.1200000        0.28430375    0.00000000
                                                     2        0.1600000       -0.69640032    0.00000000
                                                     2        0.2600000        1.13005668    0.00000000
                                                     2        0.4000000       -1.31433324    0.00000000
                                                     2        0.7000000        0.91526469    0.00000000
                                      D - G
                                                     0        0.0000010       -0.11496411    0.00000000
                                                     2        0.1200000        0.16620776    0.00000000
                                                     2        0.1800000       -0.30959819    0.00000000
                                                     2        0.3000000        0.16621458    0.00000000
                                                     2        0.6000000        0.27350556    0.00000000
                                      F - G
                                                     0        0.0000010        0.12037550    0.00000000
                                                     2        0.1200000       -0.48737077    0.00000000
                                                     2        0.1400000        0.58315350    0.00000000
                                                     2        0.3000000        0.00005188    0.00000000
                                                     2        0.5000000       -1.16063549    0.00000000
                                                     2        0.8000000        2.09053308    0.00000000
    2          1            1
                                      F and up 
                                                     0        0.0000010       -0.00007675    0.00000000
                                                     2        0.1200000        0.05352699    0.00000000
                                                     2        0.1400000       -0.25123645    0.00000000
                                                     2        0.1600000        0.32188106    0.00000000
                                                     2        0.2200000       -0.25206857    0.00000000
                                                     2        0.3000000        0.19290477    0.00000000
                                                     2        0.5000000       -0.10129770    0.00000000
                                                     2        0.9000000        0.00314995    0.00000000
                                                     2        1.5000000        0.18401192    0.00000000
                                      S - F
                                                     0        0.0000010        0.08065976    0.00000000
                                                     2        0.1200000       -0.09231673    0.00000000
                                                     2        0.1600000       -0.03278082    0.00000000
                                                     2        0.2800000        0.38423402    0.00000000
                                                     2        0.6000000       -1.09357590    0.00000000
                                                     2        1.1000000        1.53099489    0.00000000
                                                     2        3.0000000       -2.63300202    0.00000000
                                      P - F
                                                     0        0.0000010       -0.11638665    0.00000000
                                                     2        0.1200000        0.35468655    0.00000000
                                                     2        0.1600000       -0.59160923    0.00000000
                                                     2        0.3000000        0.49390547    0.00000000
                                                     2        0.6000000       -0.37949835    0.00000000
                                                     2        1.6000000        0.89304688    0.00000000
                                      D - F
                                                     0        0.0000010        0.05443663    0.00000000
                                                     2        0.1200000       -0.29679479    0.00000000
                                                     2        0.1400000        0.36849872    0.00000000
                                                     2        0.2400000        0.02793449    0.00000000
                                                     2        0.4000000       -0.46312857    0.00000000
                                                     2        0.7000000        0.97587598    0.00000000
                                                     2        1.5000000       -2.43431102    0.00000000
    3          1            1
                                      F and up 
                                                     0        0.0000010       -0.00007675    0.00000000
                                                     2        0.1200000        0.05352699    0.00000000
                                                     2        0.1400000       -0.25123645    0.00000000
                                                     2        0.1600000        0.32188106    0.00000000
                                                     2        0.2200000       -0.25206857    0.00000000
                                                     2        0.3000000        0.19290477    0.00000000
                                                     2        0.5000000       -0.10129770    0.00000000
                                                     2        0.9000000        0.00314995    0.00000000
                                                     2        1.5000000        0.18401192    0.00000000
                                      S - F
                                                     0        0.0000010        0.08065976    0.00000000
                                                     2        0.1200000       -0.09231673    0.00000000
                                                     2        0.1600000       -0.03278082    0.00000000
                                                     2        0.2800000        0.38423402    0.00000000
                                                     2        0.6000000       -1.09357590    0.00000000
                                                     2        1.1000000        1.53099489    0.00000000
                                                     2        3.0000000       -2.63300202    0.00000000
                                      P - F
                                                     0        0.0000010       -0.11638665    0.00000000
                                                     2        0.1200000        0.35468655    0.00000000
                                                     2        0.1600000       -0.59160923    0.00000000
                                                     2        0.3000000        0.49390547    0.00000000
                                                     2        0.6000000       -0.37949835    0.00000000
                                                     2        1.6000000        0.89304688    0.00000000
                                      D - F
                                                     0        0.0000010        0.05443663    0.00000000
                                                     2        0.1200000       -0.29679479    0.00000000
                                                     2        0.1400000        0.36849872    0.00000000
                                                     2        0.2400000        0.02793449    0.00000000
                                                     2        0.4000000       -0.46312857    0.00000000
                                                     2        0.7000000        0.97587598    0.00000000
                                                     2        1.5000000       -2.43431102    0.00000000
    4          1            1
                                      F and up 
                                                     0        0.0000010       -0.00007675    0.00000000
                                                     2        0.1200000        0.05352699    0.00000000
                                                     2        0.1400000       -0.25123645    0.00000000
                                                     2        0.1600000        0.32188106    0.00000000
                                                     2        0.2200000       -0.25206857    0.00000000
                                                     2        0.3000000        0.19290477    0.00000000
                                                     2        0.5000000       -0.10129770    0.00000000
                                                     2        0.9000000        0.00314995    0.00000000
                                                     2        1.5000000        0.18401192    0.00000000
                                      S - F
                                                     0        0.0000010        0.08065976    0.00000000
                                                     2        0.1200000       -0.09231673    0.00000000
                                                     2        0.1600000       -0.03278082    0.00000000
                                                     2        0.2800000        0.38423402    0.00000000
                                                     2        0.6000000       -1.09357590    0.00000000
                                                     2        1.1000000        1.53099489    0.00000000
                                                     2        3.0000000       -2.63300202    0.00000000
                                      P - F
                                                     0        0.0000010       -0.11638665    0.00000000
                                                     2        0.1200000        0.35468655    0.00000000
                                                     2        0.1600000       -0.59160923    0.00000000
                                                     2        0.3000000        0.49390547    0.00000000
                                                     2        0.6000000       -0.37949835    0.00000000
                                                     2        1.6000000        0.89304688    0.00000000
                                      D - F
                                                     0        0.0000010        0.05443663    0.00000000
                                                     2        0.1200000       -0.29679479    0.00000000
                                                     2        0.1400000        0.36849872    0.00000000
                                                     2        0.2400000        0.02793449    0.00000000
                                                     2        0.4000000       -0.46312857    0.00000000
                                                     2        0.7000000        0.97587598    0.00000000
                                                     2        1.5000000       -2.43431102    0.00000000
    5          8            8
                                      G and up 
                                                     0        0.0000010        0.00049668    0.00000000
                                                     2        0.1200000       -0.01803391    0.00000000
                                                     2        0.1400000        0.04014195    0.00000000
                                                     2        0.2000000       -0.02692147    0.00000000
                                                     2        0.2800000       -0.04241843    0.00000000
                                                     2        0.4000000        0.15412145    0.00000000
                                                     2        0.7000000       -0.40587006    0.00000000
                                                     2        1.1000000        1.75666647    0.00000000
                                      S - G
                                                     0        0.0000010       -0.01088195    0.00000000
                                                     2        0.1200000        0.09867335    0.00000000
                                                     2        0.2400000       -0.08484177    0.00000000
                                                     2        0.6000000       -1.39011554    0.00000000
                                                     2        2.5000000        1.36225910    0.00000000
                                      P - G
                                                     0        0.0000010        0.05874028    0.00000000
                                                     2        0.1200000       -0.11700340    0.00000000
                                                     2        0.1600000        0.08847775    0.00000000
                                                     2        0.3000000        0.04709907    0.00000000
                                                     2        1.2000000       -1.80388338    0.00000000
                                      D - G
                                                     0        0.0000010       -0.00541262    0.00000000
                                                     2        0.1200000       -0.26547906    0.00000000
                                                     2        0.1600000        1.04289661    0.00000000
                                                     2        0.2400000       -1.92800913    0.00000000
                                                     2        0.4000000        2.26691633    0.00000000
                                                     2        0.7000000       -1.97391482    0.00000000
                                      F - G
                                                     0        0.0000010       -0.02604870    0.00000000
                                                     2        0.1200000        0.37362552    0.00000000
                                                     2        0.1600000       -1.43526367    0.00000000
                                                     2        0.2200000        1.76778079    0.00000000
                                                     2        0.5000000       -1.90846303    0.00000000
    6          6            6
                                      G and up 
                                                     0        0.0000010       -0.00007288    0.00000000
                                                     2        0.1200000        0.10466671    0.00000000
                                                     2        0.1400000       -0.65716157    0.00000000
                                                     2        0.1600000        1.18890794    0.00000000
                                                     2        0.2000000       -1.25772850    0.00000000
                                                     2        0.2600000        1.01188378    0.00000000
                                                     2        0.4000000       -1.09380874    0.00000000
                                                     2        0.5000000        0.96944888    0.00000000
                                                     2        1.0000000       -0.79256938    0.00000000
                                                     2        3.0000000        1.06443276    0.00000000
                                      S - G
                                                     0        0.0000010       -0.00635295    0.00000000
                                                     2        0.1200000        0.16918955    0.00000000
                                                     2        0.1600000       -0.38862576    0.00000000
                                                     2        0.2800000        0.25638263    0.00000000
                                                     2        0.5000000        0.29628419    0.00000000
                                                     2        0.9000000       -0.28791512    0.00000000
                                      P - G
                                                     0        0.0000010       -0.04756931    0.00000000
                                                     2        0.1200000        0.28430375    0.00000000
                                                     2        0.1600000       -0.69640032    0.00000000
                                                     2        0.2600000        1.13005668    0.00000000
                                                     2        0.4000000       -1.31433324    0.00000000
                                                     2        0.7000000        0.91526469    0.00000000
                                      D - G
                                                     0        0.0000010       -0.11496411    0.00000000
                                                     2        0.1200000        0.16620776    0.00000000
                                                     2        0.1800000       -0.30959819    0.00000000
                                                     2        0.3000000        0.16621458    0.00000000
                                                     2        0.6000000        0.27350556    0.00000000
                                      F - G
                                                     0        0.0000010        0.12037550    0.00000000
                                                     2        0.1200000       -0.48737077    0.00000000
                                                     2        0.1400000        0.58315350    0.00000000
                                                     2        0.3000000        0.00005188    0.00000000
                                                     2        0.5000000       -1.16063549    0.00000000
                                                     2        0.8000000        2.09053308    0.00000000
    7          8            8
                                      G and up 
                                                     0        0.0000010        0.00049668    0.00000000
                                                     2        0.1200000       -0.01803391    0.00000000
                                                     2        0.1400000        0.04014195    0.00000000
                                                     2        0.2000000       -0.02692147    0.00000000
                                                     2        0.2800000       -0.04241843    0.00000000
                                                     2        0.4000000        0.15412145    0.00000000
                                                     2        0.7000000       -0.40587006    0.00000000
                                                     2        1.1000000        1.75666647    0.00000000
                                      S - G
                                                     0        0.0000010       -0.01088195    0.00000000
                                                     2        0.1200000        0.09867335    0.00000000
                                                     2        0.2400000       -0.08484177    0.00000000
                                                     2        0.6000000       -1.39011554    0.00000000
                                                     2        2.5000000        1.36225910    0.00000000
                                      P - G
                                                     0        0.0000010        0.05874028    0.00000000
                                                     2        0.1200000       -0.11700340    0.00000000
                                                     2        0.1600000        0.08847775    0.00000000
                                                     2        0.3000000        0.04709907    0.00000000
                                                     2        1.2000000       -1.80388338    0.00000000
                                      D - G
                                                     0        0.0000010       -0.00541262    0.00000000
                                                     2        0.1200000       -0.26547906    0.00000000
                                                     2        0.1600000        1.04289661    0.00000000
                                                     2        0.2400000       -1.92800913    0.00000000
                                                     2        0.4000000        2.26691633    0.00000000
                                                     2        0.7000000       -1.97391482    0.00000000
                                      F - G
                                                     0        0.0000010       -0.02604870    0.00000000
                                                     2        0.1200000        0.37362552    0.00000000
                                                     2        0.1600000       -1.43526367    0.00000000
                                                     2        0.2200000        1.76778079    0.00000000
                                                     2        0.5000000       -1.90846303    0.00000000
    8          6            6
                                      G and up 
                                                     0        0.0000010       -0.00007288    0.00000000
                                                     2        0.1200000        0.10466671    0.00000000
                                                     2        0.1400000       -0.65716157    0.00000000
                                                     2        0.1600000        1.18890794    0.00000000
                                                     2        0.2000000       -1.25772850    0.00000000
                                                     2        0.2600000        1.01188378    0.00000000
                                                     2        0.4000000       -1.09380874    0.00000000
                                                     2        0.5000000        0.96944888    0.00000000
                                                     2        1.0000000       -0.79256938    0.00000000
                                                     2        3.0000000        1.06443276    0.00000000
                                      S - G
                                                     0        0.0000010       -0.00635295    0.00000000
                                                     2        0.1200000        0.16918955    0.00000000
                                                     2        0.1600000       -0.38862576    0.00000000
                                                     2        0.2800000        0.25638263    0.00000000
                                                     2        0.5000000        0.29628419    0.00000000
                                                     2        0.9000000       -0.28791512    0.00000000
                                      P - G
                                                     0        0.0000010       -0.04756931    0.00000000
                                                     2        0.1200000        0.28430375    0.00000000
                                                     2        0.1600000       -0.69640032    0.00000000
                                                     2        0.2600000        1.13005668    0.00000000
                                                     2        0.4000000       -1.31433324    0.00000000
                                                     2        0.7000000        0.91526469    0.00000000
                                      D - G
                                                     0        0.0000010       -0.11496411    0.00000000
                                                     2        0.1200000        0.16620776    0.00000000
                                                     2        0.1800000       -0.30959819    0.00000000
                                                     2        0.3000000        0.16621458    0.00000000
                                                     2        0.6000000        0.27350556    0.00000000
                                      F - G
                                                     0        0.0000010        0.12037550    0.00000000
                                                     2        0.1200000       -0.48737077    0.00000000
                                                     2        0.1400000        0.58315350    0.00000000
                                                     2        0.3000000        0.00005188    0.00000000
                                                     2        0.5000000       -1.16063549    0.00000000
                                                     2        0.8000000        2.09053308    0.00000000
    9          6            6
                                      G and up 
                                                     0        0.0000010       -0.00007288    0.00000000
                                                     2        0.1200000        0.10466671    0.00000000
                                                     2        0.1400000       -0.65716157    0.00000000
                                                     2        0.1600000        1.18890794    0.00000000
                                                     2        0.2000000       -1.25772850    0.00000000
                                                     2        0.2600000        1.01188378    0.00000000
                                                     2        0.4000000       -1.09380874    0.00000000
                                                     2        0.5000000        0.96944888    0.00000000
                                                     2        1.0000000       -0.79256938    0.00000000
                                                     2        3.0000000        1.06443276    0.00000000
                                      S - G
                                                     0        0.0000010       -0.00635295    0.00000000
                                                     2        0.1200000        0.16918955    0.00000000
                                                     2        0.1600000       -0.38862576    0.00000000
                                                     2        0.2800000        0.25638263    0.00000000
                                                     2        0.5000000        0.29628419    0.00000000
                                                     2        0.9000000       -0.28791512    0.00000000
                                      P - G
                                                     0        0.0000010       -0.04756931    0.00000000
                                                     2        0.1200000        0.28430375    0.00000000
                                                     2        0.1600000       -0.69640032    0.00000000
                                                     2        0.2600000        1.13005668    0.00000000
                                                     2        0.4000000       -1.31433324    0.00000000
                                                     2        0.7000000        0.91526469    0.00000000
                                      D - G
                                                     0        0.0000010       -0.11496411    0.00000000
                                                     2        0.1200000        0.16620776    0.00000000
                                                     2        0.1800000       -0.30959819    0.00000000
                                                     2        0.3000000        0.16621458    0.00000000
                                                     2        0.6000000        0.27350556    0.00000000
                                      F - G
                                                     0        0.0000010        0.12037550    0.00000000
                                                     2        0.1200000       -0.48737077    0.00000000
                                                     2        0.1400000        0.58315350    0.00000000
                                                     2        0.3000000        0.00005188    0.00000000
                                                     2        0.5000000       -1.16063549    0.00000000
                                                     2        0.8000000        2.09053308    0.00000000
   10          6            6
                                      G and up 
                                                     0        0.0000010       -0.00007288    0.00000000
                                                     2        0.1200000        0.10466671    0.00000000
                                                     2        0.1400000       -0.65716157    0.00000000
                                                     2        0.1600000        1.18890794    0.00000000
                                                     2        0.2000000       -1.25772850    0.00000000
[...]
                                                     2        0.1200000       -0.09231673    0.00000000
                                                     2        0.1600000       -0.03278082    0.00000000
                                                     2        0.2800000        0.38423402    0.00000000
                                                     2        0.6000000       -1.09357590    0.00000000
                                                     2        1.1000000        1.53099489    0.00000000
                                                     2        3.0000000       -2.63300202    0.00000000
                                      P - F
                                                     0        0.0000010       -0.11638665    0.00000000
                                                     2        0.1200000        0.35468655    0.00000000
                                                     2        0.1600000       -0.59160923    0.00000000
                                                     2        0.3000000        0.49390547    0.00000000
                                                     2        0.6000000       -0.37949835    0.00000000
                                                     2        1.6000000        0.89304688    0.00000000
                                      D - F
                                                     0        0.0000010        0.05443663    0.00000000
                                                     2        0.1200000       -0.29679479    0.00000000
                                                     2        0.1400000        0.36849872    0.00000000
                                                     2        0.2400000        0.02793449    0.00000000
                                                     2        0.4000000       -0.46312857    0.00000000
                                                     2        0.7000000        0.97587598    0.00000000
                                                     2        1.5000000       -2.43431102    0.00000000
   28          1            1
                                      F and up 
                                                     0        0.0000010       -0.00007675    0.00000000
                                                     2        0.1200000        0.05352699    0.00000000
                                                     2        0.1400000       -0.25123645    0.00000000
                                                     2        0.1600000        0.32188106    0.00000000
                                                     2        0.2200000       -0.25206857    0.00000000
                                                     2        0.3000000        0.19290477    0.00000000
                                                     2        0.5000000       -0.10129770    0.00000000
                                                     2        0.9000000        0.00314995    0.00000000
                                                     2        1.5000000        0.18401192    0.00000000
                                      S - F
                                                     0        0.0000010        0.08065976    0.00000000
                                                     2        0.1200000       -0.09231673    0.00000000
                                                     2        0.1600000       -0.03278082    0.00000000
                                                     2        0.2800000        0.38423402    0.00000000
                                                     2        0.6000000       -1.09357590    0.00000000
                                                     2        1.1000000        1.53099489    0.00000000
                                                     2        3.0000000       -2.63300202    0.00000000
                                      P - F
                                                     0        0.0000010       -0.11638665    0.00000000
                                                     2        0.1200000        0.35468655    0.00000000
                                                     2        0.1600000       -0.59160923    0.00000000
                                                     2        0.3000000        0.49390547    0.00000000
                                                     2        0.6000000       -0.37949835    0.00000000
                                                     2        1.6000000        0.89304688    0.00000000
                                      D - F
                                                     0        0.0000010        0.05443663    0.00000000
                                                     2        0.1200000       -0.29679479    0.00000000
                                                     2        0.1400000        0.36849872    0.00000000
                                                     2        0.2400000        0.02793449    0.00000000
                                                     2        0.4000000       -0.46312857    0.00000000
                                                     2        0.7000000        0.97587598    0.00000000
                                                     2        1.5000000       -2.43431102    0.00000000
 ======================================================================================================
   480 basis functions,   858 primitive gaussians,   512 cartesian basis functions
    63 alpha electrons       63 beta electrons
       nuclear repulsion energy      1304.4944798824 Hartrees.
 NAtoms=   28 NActive=   28 NUniq=   28 SFac= 1.00D+00 NAtFMM=   60 NAOKFM=F Big=F
   1 Symmetry operations used in ECPInt.
 ECPInt:  NShTT=   21321 NPrTT=  112461 LenC2=   21046 LenP2D=   74913.
 LDataN:  DoStor=T MaxTD1= 6 Len=  172
 Initial guess from the checkpoint file:  "BH10_46_forward_mol3.chk"
 B after Tr=     0.000000    0.000000    0.000000
         Rot=    1.000000    0.000000    0.000000    0.000000 Ang=   0.00 deg.
 >>>>>>>>>> Convergence criterion not met.
 SCF Done:  E(RHF) =  -1121.31091477     A.U. after    2 cycles
            NFock=  1  Conv=0.33D-01     -V/T= 2.0030

 **********************************************************************

            Population analysis using the SCF Density.

 **********************************************************************

 Orbital symmetries:
       Occupied  (A) (A) (A) (A) (A) (A) (A) (A) (A) (A) (A) (A)
                 (A) (A) (A) (A) (A) (A) (A) (A) (A) (A) (A) (A)
                 (A) (A) (A) (A) (A) (A) (A) (A) (A) (A) (A) (A)
                 (A) (A) (A) (A) (A) (A) (A) (A) (A) (A) (A) (A)
                 (A) (A) (A) (A) (A) (A) (A) (A) (A) (A) (A) (A)
                 (A) (A) (A)
       Virtual   (A) (A) (A) (A) (A) (A) (A) (A) (A) (A) (A) (A)
                 (A) (A) (A) (A) (A) (A) (A) (A) (A) (A) (A) (A)
                 (A) (A) (A) (A) (A) (A) (A) (A) (A) (A) (A) (A)
                 (A) (A) (A) (A) (A) (A) (A) (A) (A) (A) (A) (A)
                 (A) (A) (A) (A) (A) (A) (A) (A) (A) (A) (A) (A)
                 (A) (A) (A) (A) (A) (A) (A) (A) (A) (A) (A) (A)
                 (A) (A) (A) (A) (A) (A) (A) (A) (A) (A) (A) (A)
                 (A) (A) (A) (A) (A) (A) (A) (A) (A) (A) (A) (A)
                 (A) (A) (A) (A) (A) (A) (A) (A) (A) (A) (A) (A)
                 (A) (A) (A) (A) (A) (A) (A) (A) (A) (A) (A) (A)
                 (A) (A) (A) (A) (A) (A) (A) (A) (A) (A) (A) (A)
                 (A) (A) (A) (A) (A) (A) (A) (A) (A) (A) (A) (A)
                 (A) (A) (A) (A) (A) (A) (A) (A) (A) (A) (A) (A)
                 (A) (A) (A) (A) (A) (A) (A) (A) (A) (A) (A) (A)
                 (A) (A) (A) (A) (A) (A) (A) (A) (A) (A) (A) (A)
                 (A) (A) (A) (A) (A) (A) (A) (A) (A) (A) (A) (A)
                 (A) (A) (A) (A) (A) (A) (A) (A) (A) (A) (A) (A)
                 (A) (A) (A) (A) (A) (A) (A) (A) (A) (A) (A) (A)
                 (A) (A) (A) (A) (A) (A) (A) (A) (A) (A) (A) (A)
                 (A) (A) (A) (A) (A) (A) (A) (A) (A) (A) (A) (A)
                 (A) (A) (A) (A) (A) (A) (A) (A) (A) (A) (A) (A)
                 (A) (A) (A) (A) (A) (A) (A) (A) (A) (A) (A) (A)
                 (A) (A) (A) (A) (A) (A) (A) (A) (A) (A) (A) (A)
                 (A) (A) (A) (A) (A) (A) (A) (A) (A) (A) (A) (A)
                 (A) (A) (A) (A) (A) (A) (A) (A) (A) (A) (A) (A)
                 (A) (A) (A) (A) (A) (A) (A) (A) (A) (A) (A) (A)
                 (A) (A) (A) (A) (A) (A) (A) (A) (A) (A) (A) (A)
                 (A) (A) (A) (A) (A) (A) (A) (A) (A) (A) (A) (A)
                 (A) (A) (A) (A) (A) (A) (A) (A) (A) (A) (A) (A)
                 (A) (A) (A) (A) (A) (A) (A) (A) (A) (A) (A) (A)
                 (A) (A) (A) (A) (A) (A) (A) (A) (A) (A) (A) (A)
                 (A) (A) (A) (A) (A) (A) (A) (A) (A) (A) (A) (A)
                 (A) (A) (A) (A) (A) (A) (A) (A) (A) (A) (A) (A)
                 (A) (A) (A) (A) (A) (A) (A) (A) (A) (A) (A) (A)
                 (A) (A) (A) (A) (A) (A) (A) (A) (A)
 The electronic state is 1-A.
 Alpha  occ. eigenvalues --  -94.18431 -20.60216 -20.54563 -20.52940 -20.52879
 Alpha  occ. eigenvalues --  -11.40223 -11.30607 -11.28790 -11.28039 -11.27905
 Alpha  occ. eigenvalues --  -11.27875 -11.27002 -11.26877 -11.26789 -11.26164
 Alpha  occ. eigenvalues --  -11.25999  -8.43768  -6.41877  -6.41667  -6.41592
 Alpha  occ. eigenvalues --   -1.56300  -1.54212  -1.46552  -1.42525  -1.18866
 Alpha  occ. eigenvalues --   -1.14264  -1.07024  -1.04360  -1.02349  -0.98459
 Alpha  occ. eigenvalues --   -0.91297  -0.87539  -0.86266  -0.81859  -0.78132
 Alpha  occ. eigenvalues --   -0.74476  -0.72829  -0.70371  -0.69272  -0.68545
 Alpha  occ. eigenvalues --   -0.67628  -0.67060  -0.64902  -0.64159  -0.63057
 Alpha  occ. eigenvalues --   -0.62553  -0.62381  -0.58211  -0.57751  -0.56729
 Alpha  occ. eigenvalues --   -0.55028  -0.54086  -0.53744  -0.53015  -0.48665
 Alpha  occ. eigenvalues --   -0.48482  -0.46916  -0.46125  -0.45651  -0.44584
 Alpha  occ. eigenvalues --   -0.39744  -0.37746  -0.36663
 Alpha virt. eigenvalues --    0.02395   0.02968   0.03410   0.03864   0.04361
 Alpha virt. eigenvalues --    0.04830   0.05641   0.05955   0.06395   0.07172
 Alpha virt. eigenvalues --    0.07239   0.07329   0.08055   0.08831   0.09347
 Alpha virt. eigenvalues --    0.10333   0.11031   0.11347   0.12197   0.12968
 Alpha virt. eigenvalues --    0.13398   0.13567   0.13904   0.14114   0.14473
 Alpha virt. eigenvalues --    0.14572   0.14773   0.15096   0.16235   0.16419
 Alpha virt. eigenvalues --    0.16781   0.16953   0.17017   0.17543   0.17833
 Alpha virt. eigenvalues --    0.18175   0.18626   0.18900   0.19194   0.19489
 Alpha virt. eigenvalues --    0.19724   0.19892   0.20765   0.21148   0.21582
 Alpha virt. eigenvalues --    0.22183   0.22837   0.23467   0.23999   0.24346
 Alpha virt. eigenvalues --    0.24559   0.24743   0.25173   0.25974   0.27027
 Alpha virt. eigenvalues --    0.27577   0.27866   0.28051   0.28819   0.29270
 Alpha virt. eigenvalues --    0.29707   0.30461   0.30710   0.31207   0.31345
 Alpha virt. eigenvalues --    0.31899   0.32054   0.32856   0.33387   0.33471
 Alpha virt. eigenvalues --    0.34238   0.34432   0.34955   0.35159   0.35258
 Alpha virt. eigenvalues --    0.35952   0.36049   0.36345   0.36616   0.37163
 Alpha virt. eigenvalues --    0.37799   0.38723   0.38786   0.39170   0.39526
 Alpha virt. eigenvalues --    0.39974   0.40752   0.40978   0.41398   0.41959
 Alpha virt. eigenvalues --    0.42339   0.43129   0.43486   0.43765   0.44185
 Alpha virt. eigenvalues --    0.44664   0.45119   0.45388   0.45954   0.46701
 Alpha virt. eigenvalues --    0.47081   0.47324   0.47871   0.48158   0.48592
 Alpha virt. eigenvalues --    0.49373   0.49510   0.51692   0.52194   0.52823
 Alpha virt. eigenvalues --    0.53086   0.53932   0.54036   0.54432   0.55258
 Alpha virt. eigenvalues --    0.55348   0.55911   0.56896   0.57585   0.57964
 Alpha virt. eigenvalues --    0.58141   0.58476   0.59114   0.59483   0.60127
 Alpha virt. eigenvalues --    0.60227   0.60847   0.61426   0.61921   0.62517
 Alpha virt. eigenvalues --    0.62813   0.63398   0.63748   0.64095   0.64581
 Alpha virt. eigenvalues --    0.65138   0.65638   0.66564   0.67149   0.67440
 Alpha virt. eigenvalues --    0.68219   0.68252   0.68755   0.69129   0.69808
 Alpha virt. eigenvalues --    0.70151   0.70583   0.71061   0.72162   0.72472
 Alpha virt. eigenvalues --    0.72910   0.73249   0.73978   0.74689   0.74977
 Alpha virt. eigenvalues --    0.76230   0.76393   0.76517   0.77536   0.77737
 Alpha virt. eigenvalues --    0.78459   0.79699   0.80182   0.80646   0.80952
 Alpha virt. eigenvalues --    0.81508   0.82122   0.82684   0.82965   0.84280
 Alpha virt. eigenvalues --    0.84977   0.85566   0.85783   0.86237   0.86687
 Alpha virt. eigenvalues --    0.87519   0.88343   0.89468   0.90049   0.90468
 Alpha virt. eigenvalues --    0.91124   0.91830   0.92758   0.93153   0.93785
 Alpha virt. eigenvalues --    0.94350   0.94531   0.95907   0.96391   0.97641
 Alpha virt. eigenvalues --    0.97951   0.99692   1.00605   1.01091   1.01631
 Alpha virt. eigenvalues --    1.01998   1.03703   1.04329   1.04593   1.05072
 Alpha virt. eigenvalues --    1.06498   1.06752   1.07620   1.08495   1.08618
 Alpha virt. eigenvalues --    1.10349   1.11506   1.11666   1.12908   1.13859
 Alpha virt. eigenvalues --    1.15118   1.15802   1.16930   1.18806   1.19358
 Alpha virt. eigenvalues --    1.20186   1.21878   1.22921   1.23771   1.24674
 Alpha virt. eigenvalues --    1.25570   1.25921   1.27498   1.28338   1.29019
 Alpha virt. eigenvalues --    1.29978   1.31187   1.31724   1.32474   1.33880
 Alpha virt. eigenvalues --    1.34284   1.35643   1.36670   1.38345   1.39120
 Alpha virt. eigenvalues --    1.40944   1.41182   1.42619   1.42763   1.44361
 Alpha virt. eigenvalues --    1.46421   1.47418   1.48968   1.49447   1.50474
 Alpha virt. eigenvalues --    1.51101   1.52391   1.52803   1.53473   1.54572
 Alpha virt. eigenvalues --    1.54925   1.55715   1.57555   1.58441   1.58734
 Alpha virt. eigenvalues --    1.58885   1.62457   1.62887   1.63688   1.64380
 Alpha virt. eigenvalues --    1.65336   1.65700   1.66141   1.66966   1.67339
 Alpha virt. eigenvalues --    1.69598   1.69885   1.71078   1.72323   1.72960
 Alpha virt. eigenvalues --    1.73672   1.74282   1.76356   1.76817   1.77121
 Alpha virt. eigenvalues --    1.78207   1.78776   1.79179   1.80406   1.82097
 Alpha virt. eigenvalues --    1.82730   1.83408   1.84201   1.85856   1.86980
 Alpha virt. eigenvalues --    1.87816   1.89539   1.90483   1.91241   1.91727
 Alpha virt. eigenvalues --    1.93280   1.94795   1.95112   1.96098   1.96300
 Alpha virt. eigenvalues --    1.97225   1.98373   1.99226   1.99320   2.00969
 Alpha virt. eigenvalues --    2.01467   2.03054   2.04817   2.05353   2.06696
 Alpha virt. eigenvalues --    2.07114   2.08552   2.09194   2.10198   2.11153
 Alpha virt. eigenvalues --    2.11751   2.12840   2.15124   2.15462   2.16507
 Alpha virt. eigenvalues --    2.17826   2.19552   2.20272   2.20573   2.21099
 Alpha virt. eigenvalues --    2.23297   2.23827   2.25139   2.25637   2.26084
 Alpha virt. eigenvalues --    2.26841   2.29138   2.29707   2.30723   2.31798
 Alpha virt. eigenvalues --    2.32209   2.33309   2.34965   2.35490   2.35983
 Alpha virt. eigenvalues --    2.37637   2.38466   2.39045   2.40209   2.41207
 Alpha virt. eigenvalues --    2.42499   2.43605   2.44323   2.45052   2.46668
 Alpha virt. eigenvalues --    2.47765   2.48273   2.50218   2.51380   2.52696
 Alpha virt. eigenvalues --    2.53520   2.55315   2.57154   2.58228   2.62209
 Alpha virt. eigenvalues --    2.62439   2.63763   2.66163   2.67474   2.69337
 Alpha virt. eigenvalues --    2.71252   2.73265   2.74169   2.78120   2.78554
 Alpha virt. eigenvalues --    2.80205   2.84266   2.86798   2.87730   2.88647
 Alpha virt. eigenvalues --    2.92255   2.96777   2.98875   3.01717   3.02582
 Alpha virt. eigenvalues --    3.03797   3.07012   3.07818   3.10792   3.14444
 Alpha virt. eigenvalues --    3.17210   3.20780   3.25711   3.26907   3.31305
 Alpha virt. eigenvalues --    3.34519   3.37340   3.38284   3.42005   3.46162
 Alpha virt. eigenvalues --    3.52333   3.59460   3.70866   3.74544   3.85595
 Alpha virt. eigenvalues --    3.86863   3.88486   3.89749   3.91053   3.92409
 Alpha virt. eigenvalues --    3.93402   3.95216   3.95503   3.96373   3.96748
 Alpha virt. eigenvalues --    3.98884   4.00343   4.02683   4.04429   4.05904
 Alpha virt. eigenvalues --    4.08693   4.13180   4.17760   4.24932   4.29281
 Alpha virt. eigenvalues --    4.43922   4.81804
          Condensed to atoms (all electrons):
 Mulliken charges:
               1
     1  C    0.165910
     2  H   -0.012064
     3  H    0.162346
     4  H    0.181681
     5  O   -1.647956
     6  C    2.330718
     7  O   -1.419425
     8  C    1.249557
     9  C    0.152140
    10  C   -1.209319
    11  H    0.088811
    12  H    0.067414
    13  S    4.168906
    14  C    0.537244
    15  C   -0.194962
    16  C   -0.038757
    17  C    0.227741
    18  H   -0.322729
    19  C    0.285206
    20  H   -0.326246
    21  C    0.172794
    22  H   -0.236239
    23  H   -0.285318
    24  H   -0.252119
    25  O   -1.722934
    26  O   -1.799953
    27  H   -0.188782
    28  H   -0.133664
 Sum of Mulliken charges =  -0.00000
 Mulliken charges with hydrogens summed into heavy atoms:
               1
     1  C    0.497873
     5  O   -1.647956
     6  C    2.330718
     7  O   -1.419425
     8  C    1.249557
     9  C   -0.170306
    10  C   -1.053094
    13  S    4.168906
    14  C    0.537244
    15  C   -0.517691
    16  C   -0.365002
    17  C   -0.008498
    19  C   -0.000112
    21  C   -0.079325
    25  O   -1.722934
    26  O   -1.799953
 Electronic spatial extent (au):  <R**2>=           3416.5371
 Charge=             -0.0000 electrons
 Dipole moment (field-independent basis, Debye):
    X=              6.1364    Y=              0.3145    Z=              0.7671  Tot=              6.1921

 Test job not archived.
 1\1\GINC-SE454\SP\RHF\Aug-CC-pVDZ\C11H12O4S1\OHZDE\09-Apr-2025\0\\#t h
 f aug-cc-pvdz iop(5/13=1,5/36=2,99/5=2) pseudo=read geom=check guess=(
 read,tcheck) scf=(maxcycle=1)\\title\\0,1\C,0,3.721433,-0.356417,-0.14
 119\H,0,4.468336,-0.501599,0.634371\H,0,3.442051,0.69429,-0.216972\H,0
 ,4.095557,-0.699005,-1.105408\O,0,2.591216,-1.136035,0.262365\C,0,1.53
 7277,-1.08992,-0.557321\O,0,1.525059,-0.459497,-1.58436\C,0,0.378248,-
 1.892311,-0.070802\C,0,0.482379,-2.720895,0.962328\C,0,-0.901118,-1.67
 271,-0.81269\H,0,-1.525899,-2.565175,-0.842514\H,0,-0.729341,-1.303732
 ,-1.8215\S,0,-1.971055,-0.448826,-0.000401\C,0,-0.919608,0.979802,0.17
 2826\C,0,-0.819143,1.873681,-0.882311\C,0,-0.183007,1.133748,1.338168\
 C,0,0.055694,2.94226,-0.770187\H,0,-1.421204,1.729245,-1.769919\C,0,0.
 690762,2.206603,1.437605\H,0,-0.306757,0.426287,2.14729\C,0,0.811229,3
 .104104,0.38448\H,0,0.148299,3.64942,-1.584682\H,0,1.2718,2.345152,2.3
 40889\H,0,1.494157,3.94117,0.466671\O,0,-3.040577,-0.13522,-0.939614\O
 ,0,-2.272039,-0.951473,1.33612\H,0,-0.373237,-3.288309,1.306616\H,0,1.
 418963,-2.8364,1.490043\\Version=ES64L-G16RevC.01\State=1-A\HF=-1121.3
 109148\RMSD=3.265e-02\Dipole=2.41423,0.1237355,0.3018057\Quadrupole=-7
 .7612439,9.7552899,-1.994046,1.8840269,4.6815391,-0.687033\PG=C01 [X(C
 11H12O4S1)]\\@


 IT IS THE BEHAVIOR AND DISTRIBUTION OF THE ELECTRONS 
 AROUND THE NUCLEUS THAT GIVES THE FUNDAMENTAL 
 CHARACTER OF AN ATOM:  IT MUST BE THE SAME FOR MOLECULES.

                               -- C. A. COULSON, 1951
 Job cpu time:       0 days  0 hours  9 minutes 14.1 seconds.
 Elapsed time:       0 days  0 hours  0 minutes 37.2 seconds.
 File lengths (MBytes):  RWF=     33 Int=      0 D2E=      0 Chk=     30 Scr=      1
 Normal termination of Gaussian 16 at Wed Apr  9 02:06:43 2025.
