 Entering Gaussian System, Link 0=g16
 Input=BH10_284_forward_mol1.gjf
 Output=BH10_284_forward_mol1.log
 Initial command:
 /arc/software/Gaussian/g16.c01/l1.exe "/tmp/slurm/4856116/Gau-2491379.inp" -scrdir="/tmp/slurm/4856116/"
 Entering Link 1 = /arc/software/Gaussian/g16.c01/l1.exe PID=   2491383.
  
 Copyright (c) 1988-2019, Gaussian, Inc.  All Rights Reserved.
  
 This is part of the Gaussian(R) 16 program.  It is based on
 the Gaussian(R) 09 system (copyright 2009, Gaussian, Inc.),
 the Gaussian(R) 03 system (copyright 2003, Gaussian, Inc.),
 the Gaussian(R) 98 system (copyright 1998, Gaussian, Inc.),
 the Gaussian(R) 94 system (copyright 1995, Gaussian, Inc.),
 the Gaussian 92(TM) system (copyright 1992, Gaussian, Inc.),
 the Gaussian 90(TM) system (copyright 1990, Gaussian, Inc.),
 the Gaussian 88(TM) system (copyright 1988, Gaussian, Inc.),
 the Gaussian 86(TM) system (copyright 1986, Carnegie Mellon
 University), and the Gaussian 82(TM) system (copyright 1983,
 Carnegie Mellon University). Gaussian is a federally registered
 trademark of Gaussian, Inc.
  
 This software contains proprietary and confidential information,
 including trade secrets, belonging to Gaussian, Inc.
  
 This software is provided under written license and may be
 used, copied, transmitted, or stored only in accord with that
 written license.
  
 The following legend is applicable only to US Government
 contracts under FAR:
  
                    RESTRICTED RIGHTS LEGEND
  
 Use, reproduction and disclosure by the US Government is
 subject to restrictions as set forth in subparagraphs (a)
 and (c) of the Commercial Computer Software - Restricted
 Rights clause in FAR 52.227-19.
  
 Gaussian, Inc.
 340 Quinnipiac St., Bldg. 40, Wallingford CT 06492
  
  
 ---------------------------------------------------------------
 Warning -- This program may not be used in any manner that
 competes with the business of Gaussian, Inc. or will provide
 assistance to any competitor of Gaussian, Inc.  The licensee
 of this program is prohibited from giving any competitor of
 Gaussian, Inc. access to this program.  By using this program,
 the user acknowledges that Gaussian, Inc. is engaged in the
 business of creating and licensing software in the field of
 computational chemistry and represents and warrants to the
 licensee that it is not a competitor of Gaussian, Inc. and that
 it will not use this program in any manner prohibited above.
 ---------------------------------------------------------------
  

 Cite this work as:
 Gaussian 16, Revision C.01,
 M. J. Frisch, G. W. Trucks, H. B. Schlegel, G. E. Scuseria, 
 M. A. Robb, J. R. Cheeseman, G. Scalmani, V. Barone, 
 G. A. Petersson, H. Nakatsuji, X. Li, M. Caricato, A. V. Marenich, 
 J. Bloino, B. G. Janesko, R. Gomperts, B. Mennucci, H. P. Hratchian, 
 J. V. Ortiz, A. F. Izmaylov, J. L. Sonnenberg, D. Williams-Young, 
 F. Ding, F. Lipparini, F. Egidi, J. Goings, B. Peng, A. Petrone, 
 T. Henderson, D. Ranasinghe, V. G. Zakrzewski, J. Gao, N. Rega, 
 G. Zheng, W. Liang, M. Hada, M. Ehara, K. Toyota, R. Fukuda, 
 J. Hasegawa, M. Ishida, T. Nakajima, Y. Honda, O. Kitao, H. Nakai, 
 T. Vreven, K. Throssell, J. A. Montgomery, Jr., J. E. Peralta, 
 F. Ogliaro, M. J. Bearpark, J. J. Heyd, E. N. Brothers, K. N. Kudin, 
 V. N. Staroverov, T. A. Keith, R. Kobayashi, J. Normand, 
 K. Raghavachari, A. P. Rendell, J. C. Burant, S. S. Iyengar, 
 J. Tomasi, M. Cossi, J. M. Millam, M. Klene, C. Adamo, R. Cammi, 
 J. W. Ochterski, R. L. Martin, K. Morokuma, O. Farkas, 
 J. B. Foresman, and D. J. Fox, Gaussian, Inc., Wallingford CT, 2019.
 
 ******************************************
 Gaussian 16:  ES64L-G16RevC.01  3-Jul-2019
                 9-Apr-2025 
 ******************************************
 %nprocs=16
 Will use up to   16 processors via shared memory.
 %mem=30GB
 %chk=BH10_284_forward_mol1.chk
 ----------------------------------------------------------------------
 #t hf aug-cc-pvdz symm=none int=(grid=ultrafine) guess=(read,tcheck) s
 table=(opt,rrhf)
 ----------------------------------------------------------------------
 -----
 title
 -----
 Symbolic Z-matrix:
 Charge =  0 Multiplicity = 1
 C                    -0.56956  -0.96152   0.91645 
 H                     0.19554  -1.49938   1.48972 
 B                     0.03256  -0.0631   -0.23642 
 C                    -1.32634  -0.05851   1.90838 
 H                    -0.5807    0.54995   2.43277 
 H                    -1.81739  -0.66735   2.67623 
 C                    -1.44584  -2.02529   0.2133 
 H                    -0.77487  -2.70046  -0.33093 
 C                     1.53771   3.46268  -0.06355 
 H                     1.62471   3.70541   0.98981 
 H                     1.44643   4.28871  -0.7564 
 C                     1.54123   2.20464  -0.49363 
 C                     1.68399   1.036     0.37837 
 H                     1.45101   2.00433  -1.55536 
 H                    -1.96082  -2.64309   0.95788 
 H                     2.02465   1.22612   1.39077 
 C                     1.97711  -0.22436  -0.12739 
 O                     1.17134  -0.67955  -1.0501 
 O                     2.83196  -1.0364    0.45505 
 C                     2.78631  -2.42903   0.09808 
 H                     1.78585  -2.82836   0.25486 
 H                     3.07672  -2.56045  -0.94275 
 H                     3.50109  -2.91399   0.75651 
 C                    -2.47553  -1.4657   -0.78162 
 H                    -2.84573  -2.28723  -1.40249 
 H                    -3.34636  -1.0966   -0.24095 
 C                    -1.09153   0.73308  -0.99319 
 H                    -0.70473   1.39032  -1.77572 
 C                    -1.93088  -0.36061  -1.69985 
 H                    -1.29744  -0.82157  -2.46623 
 H                    -2.76581   0.10458  -2.23571 
 C                    -1.87602   1.60186   0.00769 
 H                    -2.73515   2.06441  -0.49154 
 H                    -1.22003   2.42504   0.30684 
 C                    -2.36337   0.87884   1.27314 
 H                    -2.65641   1.62955   2.01347 
 H                    -3.27351   0.32061   1.05462 
 
                    Distance matrix (angstroms):
                    1          2          3          4          5
     1  C    0.000000
     2  H    1.096949   0.000000
     3  B    1.580765   2.251443   0.000000
     4  C    1.540149   2.137168   2.539051   0.000000
     5  H    2.141000   2.385715   2.806505   1.095989   0.000000
     6  H    2.177252   2.480316   3.502988   1.096084   1.752283
     7  C    1.547222   2.144750   2.497620   2.599187   3.508042
     8  H    2.149892   2.387268   2.759815   3.506924   4.270938
     9  C    4.997456   5.369927   3.837511   4.948750   4.382159
    10  H    5.157563   5.420543   4.270858   4.870278   4.111317
    11  H    5.867502   6.333384   4.605177   5.804107   5.315863
    12  C    4.058114   4.411830   2.735846   4.372006   3.975471
    13  C    3.059100   3.143041   2.076823   3.549786   3.096068
    14  H    4.357614   4.808808   2.832994   4.895556   4.706191
    15  H    2.182891   2.498163   3.472216   2.825965   3.778301
    16  H    3.426464   3.283866   2.877190   3.625925   2.886315
    17  C    2.849308   2.722999   1.954272   3.883899   3.700863
    18  O    2.641510   2.841651   1.529353   3.921315   4.087996
    19  O    3.433487   2.869772   3.043371   4.512194   4.251366
    20  C    3.753020   3.084313   3.645911   5.080395   5.065752
    21  H    3.077461   2.412503   3.310901   4.482404   4.664424
    22  H    4.394149   3.917136   4.000324   5.811674   5.869023
    23  H    4.517508   3.669518   4.598280   5.725785   5.609786
    24  C    2.601994   3.506382   2.924902   3.246059   4.240934
    25  H    3.509410   4.270233   3.819821   4.270550   5.281021
    26  H    3.011392   3.962641   3.533450   3.126939   4.184354
    27  C    2.605924   3.578437   1.571680   3.016761   3.468672
    28  H    3.577318   4.452403   2.241754   4.007257   4.293367
    29  C    3.009871   3.998971   2.466827   3.670976   4.441922
    30  H    3.462937   4.282279   2.704856   4.440755   5.137605
    31  H    3.987011   5.022063   3.443283   4.390011   5.173764
    32  C    3.017215   4.013154   2.544469   2.582945   2.943705
    33  H    3.978502   5.021444   3.500226   3.500168   3.935337
    34  H    3.501934   4.336370   2.838122   2.957074   2.905911
    35  C    2.594594   3.500122   2.984373   1.535448   2.151939
    36  H    3.503150   4.265930   3.893278   2.151675   2.376965
    37  H    2.995712   3.941567   3.569886   2.159652   3.033663
                    6          7          8          9         10
     6  H    0.000000
     7  C    2.836907   0.000000
     8  H    3.776687   1.096471   0.000000
     9  C    5.985004   6.252684   6.588165   0.000000
    10  H    5.814905   6.547684   6.966892   1.084457   0.000000
    11  H    6.855507   7.012284   7.346005   1.081988   1.849663
    12  C    5.438437   5.226336   5.426859   1.329534   2.111841
    13  C    4.521197   4.381160   4.528824   2.470931   2.739189
    14  H    5.977174   5.268558   5.346854   2.088015   3.066223
    15  H    2.622376   1.096030   1.752363   7.110805   7.291130
    16  H    4.472014   4.899223   5.120509   2.711891   2.543149
    17  C    4.738648   3.882788   3.707554   3.713679   4.100660
    18  O    4.776839   3.202631   2.896387   4.273827   4.857433
    19  O    5.165877   4.397266   4.049213   4.710180   4.922218
    20  C    5.562769   4.252925   3.597182   6.024736   6.306817
    21  H    4.849368   3.330243   2.629985   6.303981   6.576953
    22  H    6.374411   4.698554   3.902393   6.278512   6.715966
    23  H    6.084317   5.055391   4.417231   6.722301   6.884167
    24  C    3.609320   1.537291   2.149421   6.396145   6.833030
    25  H    4.507487   2.153853   2.368007   7.353148   7.849818
    26  H    3.321437   2.163513   3.032003   6.683766   7.020374
    27  C    3.994078   3.031454   3.511132   3.902295   4.488320
    28  H    5.029100   4.021419   4.338991   3.500678   4.293491
    29  C    4.388283   2.581966   2.947066   5.415363   6.033986
    30  H    5.170975   2.941231   2.891856   5.671487   6.401305
    31  H    5.061870   3.503758   3.931961   5.874988   6.530441
    32  C    3.503403   3.658345   4.453889   3.888612   4.200547
    33  H    4.282470   4.345653   5.154849   4.516162   4.888322
    34  H    3.941285   4.457034   5.184178   2.969687   3.193486
    35  C    2.158116   3.224759   4.231758   4.866355   4.896381
    36  H    2.533569   4.250167   5.271187   5.026438   4.866734
    37  H    2.392894   3.090536   4.158102   5.854123   5.954292
                   11         12         13         14         15
    11  H    0.000000
    12  C    2.102718   0.000000
    13  C    3.453159   1.465084   0.000000
    14  H    2.420078   1.084222   2.175142   0.000000
    15  H    7.911891   6.153998   5.211159   6.289313   0.000000
    16  H    3.784723   2.177640   1.084963   3.100696   5.571549
    17  C    4.587492   2.494819   1.389318   2.698686   4.747147
    18  O    4.984533   2.960575   2.290509   2.745304   4.206889
    19  O    5.634198   3.615287   2.370348   3.898054   5.079865
    20  C    6.903156   4.834379   3.646930   4.916460   4.829106
    21  H    7.196568   5.094223   3.867671   5.171447   3.816558
    22  H    7.042989   5.026481   4.076701   4.884205   5.384791
    23  H    7.641302   5.621763   4.364314   5.808392   5.472324
    24  C    6.963880   5.448730   4.990558   5.296931   2.162647
    25  H    7.879278   6.344153   5.893525   6.074765   2.545793
    26  H    7.227593   5.903437   5.498727   5.861587   2.397620
    27  C    4.374913   3.057203   3.110700   2.897695   3.995102
    28  H    3.750622   2.711309   3.235987   2.252280   5.031774
    29  C    5.823443   4.482297   4.397359   4.129281   3.503449
    30  H    6.047091   4.594249   4.520090   4.045906   3.934786
    31  H    6.118686   5.098601   5.244209   4.674776   4.289144
    32  C    4.340698   3.506029   3.623709   3.697865   4.350822
    33  H    4.743762   4.278681   4.619870   4.319636   4.986078
    34  H    3.422534   2.883381   3.219924   3.283174   5.163198
    35  C    5.500979   4.486099   4.148065   4.880225   3.558859
    36  H    5.619305   4.923054   4.676001   5.454164   4.455741
    37  H    6.426771   5.397065   5.054293   5.654021   3.242848
                   16         17         18         19         20
    16  H    0.000000
    17  C    2.100227   0.000000
    18  O    3.212094   1.306851   0.000000
    19  O    2.578046   1.315077   2.269471   0.000000
    20  C    3.951117   2.359287   2.643319   1.438382   0.000000
    21  H    4.217361   2.638849   2.588036   2.084595   1.088551
    22  H    4.570590   2.707635   2.679513   2.082425   1.088546
    23  H    4.441024   3.215263   3.699228   2.015924   1.086104
    24  C    5.675981   4.668509   3.740293   5.466547   5.421146
    25  H    6.623178   5.398250   4.341158   6.103377   5.830234
    26  H    6.074974   5.395656   4.608504   6.217697   6.284900
    27  C    3.954353   3.329093   2.668210   4.541174   5.121273
    28  H    4.183668   3.537855   2.886261   4.834613   5.503262
    29  C    5.264580   4.214684   3.185536   5.271141   5.455523
    30  H    5.486868   4.068109   2.849643   5.062806   5.082972
    31  H    6.112097   5.200824   4.185895   6.314836   6.533898
    32  C    4.155632   4.266135   3.950964   5.415312   6.163887
    33  H    5.186666   5.251331   4.806449   6.442345   7.143189
    34  H    3.624950   4.174877   4.147098   5.331248   6.297330
    35  C    4.403310   4.692368   4.507794   5.597222   6.232333
    36  H    4.739500   5.430454   5.419328   6.297478   7.054363
    37  H    5.385479   5.409543   5.018651   6.283129   6.722861
                   21         22         23         24         25
    21  H    0.000000
    22  H    1.781111   0.000000
    23  H    1.789136   1.786771   0.000000
    24  C    4.592444   5.661442   6.339034   0.000000
    25  H    4.948857   5.946543   6.733214   1.094278   0.000000
    26  H    5.439162   6.625056   7.154399   1.089450   1.737070
    27  C    4.745607   5.312644   6.120023   2.606687   3.516670
    28  H    5.303157   5.531886   6.529022   3.504399   4.271713
    29  C    4.870805   5.521639   6.485342   1.536560   2.153422
    30  H    4.575829   4.947521   6.147367   2.154233   2.382621
    31  H    5.960096   6.550522   7.572265   2.159727   2.534044
    32  C    5.753017   6.538940   7.061647   3.223708   4.248990
    33  H    6.703414   7.441151   8.076679   3.551502   4.447332
    34  H    6.052790   6.699155   7.141179   4.230703   5.269741
    35  C    5.656528   6.806869   7.003167   3.119529   4.173209
    36  H    6.534481   7.691824   7.754905   4.174419   5.200556
    37  H    6.012718   7.253646   7.513098   2.683176   3.608495
                   26         27         28         29         30
    26  H    0.000000
    27  C    2.999639   0.000000
    28  H    3.939355   1.092677   0.000000
    29  C    2.161868   1.549200   2.138914   0.000000
    30  H    3.037366   2.151551   2.391770   1.095928   0.000000
    31  H    2.399779   2.177635   2.472408   1.095752   1.751289
    32  C    3.083082   1.540112   2.144111   2.601918   3.511126
    33  H    3.229292   2.173837   2.495220   2.826229   3.780905
    34  H    4.150097   2.137597   2.381854   3.505988   4.270406
    35  C    2.676025   2.602892   3.508309   3.249917   4.243875
    36  H    3.604209   3.506065   4.268987   4.275031   5.284173
    37  H    1.921537   3.020706   3.969098   3.139084   4.195928
                   31         32         33         34         35
    31  H    0.000000
    32  C    2.840144   0.000000
    33  H    2.623734   1.096037   0.000000
    34  H    3.773399   1.094277   1.750160   0.000000
    35  C    3.615726   1.536757   2.158213   2.152136   0.000000
    36  H    4.515864   2.152426   2.543694   2.368245   1.094315
    37  H    3.336274   2.165787   2.391919   3.033903   1.089826
                   36         37
    36  H    0.000000
    37  H    1.735946   0.000000
 Symmetry turned off by external request.
 Rotational constants (GHZ):           0.6774227           0.5192531           0.3830824
   557 basis functions,   919 primitive gaussians,   589 cartesian basis functions
    60 alpha electrons       60 beta electrons
       nuclear repulsion energy      1195.4104666666 Hartrees.
 NAtoms=   37 NActive=   37 NUniq=   37 SFac= 1.00D+00 NAtFMM=   60 NAOKFM=F Big=F
 ExpMin= 2.38D-02 ExpMax= 1.17D+04 ExpMxC= 4.01D+02 IAcc=3 IRadAn=         5 AccDes= 0.00D+00
 Harris functional with IExCor=  205 and IRadAn=       5 diagonalized for initial guess.
 HarFok:  IExCor=  205 AccDes= 0.00D+00 IRadAn=         5 IDoV= 1 UseB2=F ITyADJ=14
 ICtDFT=  3500011 ScaDFX=  1.000000  1.000000  1.000000  1.000000
 FoFCou: FMM=F IPFlag=           0 FMFlag=      100000 FMFlg1=           0
         NFxFlg=           0 DoJE=T BraDBF=F KetDBF=T FulRan=T
         wScrn=  0.000000 ICntrl=       500 IOpCl=  0 I1Cent=   200000004 NGrid=           0
         NMat0=    1 NMatS0=      1 NMatT0=    0 NMatD0=    1 NMtDS0=    0 NMtDT0=    0
 Symmetry not used in FoFCou.
 SCF Done:  E(RHF) =  -678.961083227     A.U. after   15 cycles
            NFock= 15  Conv=0.51D-08     -V/T= 2.0006

 **********************************************************************

            Population analysis using the SCF Density.

 **********************************************************************

 Alpha  occ. eigenvalues --  -20.63883 -20.59812 -11.41387 -11.31085 -11.24939
 Alpha  occ. eigenvalues --  -11.23669 -11.21807 -11.21548 -11.21289 -11.21137
 Alpha  occ. eigenvalues --  -11.21065 -11.20745 -11.20608 -11.19148 -11.18752
 Alpha  occ. eigenvalues --   -7.61220  -1.49968  -1.40562  -1.10647  -1.09538
 Alpha  occ. eigenvalues --   -1.03210  -1.02448  -1.01759  -0.95742  -0.92368
 Alpha  occ. eigenvalues --   -0.90457  -0.82333  -0.78786  -0.78230  -0.77031
 Alpha  occ. eigenvalues --   -0.74267  -0.73621  -0.70398  -0.70090  -0.66238
 Alpha  occ. eigenvalues --   -0.63604  -0.62166  -0.62129  -0.60539  -0.58431
 Alpha  occ. eigenvalues --   -0.57525  -0.57075  -0.56559  -0.55315  -0.54119
 Alpha  occ. eigenvalues --   -0.53637  -0.52844  -0.51289  -0.50096  -0.49402
 Alpha  occ. eigenvalues --   -0.48960  -0.47133  -0.46137  -0.45491  -0.44638
 Alpha  occ. eigenvalues --   -0.43277  -0.40978  -0.40322  -0.37076  -0.30500
 Alpha virt. eigenvalues --    0.02899   0.03728   0.04008   0.04237   0.05280
 Alpha virt. eigenvalues --    0.05359   0.05441   0.05588   0.06044   0.07073
 Alpha virt. eigenvalues --    0.07317   0.07442   0.07882   0.08044   0.08147
 Alpha virt. eigenvalues --    0.08511   0.09568   0.09977   0.10311   0.10453
 Alpha virt. eigenvalues --    0.11070   0.11673   0.11811   0.12504   0.12854
 Alpha virt. eigenvalues --    0.13006   0.13892   0.14217   0.14638   0.15013
 Alpha virt. eigenvalues --    0.15384   0.15512   0.15787   0.16140   0.16440
 Alpha virt. eigenvalues --    0.16718   0.16943   0.17134   0.17329   0.17806
 Alpha virt. eigenvalues --    0.18004   0.18084   0.18373   0.18786   0.19009
 Alpha virt. eigenvalues --    0.19529   0.19880   0.19955   0.20245   0.20677
 Alpha virt. eigenvalues --    0.21016   0.21469   0.21979   0.22072   0.22352
 Alpha virt. eigenvalues --    0.22453   0.22879   0.23276   0.23765   0.23889
 Alpha virt. eigenvalues --    0.24353   0.24931   0.25428   0.25607   0.25823
 Alpha virt. eigenvalues --    0.26527   0.26762   0.26966   0.27650   0.27994
 Alpha virt. eigenvalues --    0.28416   0.29325   0.30229   0.30583   0.30943
 Alpha virt. eigenvalues --    0.31341   0.31579   0.31980   0.33174   0.33499
 Alpha virt. eigenvalues --    0.33895   0.34670   0.35009   0.35797   0.35896
 Alpha virt. eigenvalues --    0.36318   0.36688   0.37158   0.37560   0.37811
 Alpha virt. eigenvalues --    0.38062   0.38869   0.38990   0.39673   0.39901
 Alpha virt. eigenvalues --    0.40254   0.40368   0.40928   0.41396   0.41923
 Alpha virt. eigenvalues --    0.42402   0.42593   0.43143   0.43291   0.43722
 Alpha virt. eigenvalues --    0.44048   0.44468   0.44769   0.45063   0.45552
 Alpha virt. eigenvalues --    0.45754   0.45964   0.46120   0.46828   0.47027
 Alpha virt. eigenvalues --    0.47345   0.47487   0.48142   0.48529   0.49144
 Alpha virt. eigenvalues --    0.49347   0.50477   0.50566   0.50965   0.51529
 Alpha virt. eigenvalues --    0.52028   0.52151   0.52488   0.53837   0.54161
 Alpha virt. eigenvalues --    0.54452   0.55036   0.55068   0.55337   0.55700
 Alpha virt. eigenvalues --    0.56397   0.56546   0.57126   0.57807   0.57926
 Alpha virt. eigenvalues --    0.58345   0.58753   0.59293   0.59476   0.59991
 Alpha virt. eigenvalues --    0.60603   0.61124   0.61366   0.61962   0.62259
 Alpha virt. eigenvalues --    0.62811   0.63329   0.63738   0.64195   0.64304
 Alpha virt. eigenvalues --    0.64855   0.65425   0.65761   0.66192   0.66560
 Alpha virt. eigenvalues --    0.67057   0.67329   0.68005   0.68479   0.68584
 Alpha virt. eigenvalues --    0.69231   0.69419   0.70088   0.70511   0.71045
 Alpha virt. eigenvalues --    0.71440   0.71953   0.72586   0.73103   0.73570
 Alpha virt. eigenvalues --    0.73821   0.74277   0.74437   0.75039   0.75638
 Alpha virt. eigenvalues --    0.76081   0.76324   0.76385   0.76914   0.77353
 Alpha virt. eigenvalues --    0.77812   0.77913   0.78337   0.79073   0.80052
 Alpha virt. eigenvalues --    0.80378   0.80942   0.81197   0.81529   0.81979
 Alpha virt. eigenvalues --    0.82183   0.82894   0.83126   0.83675   0.83936
 Alpha virt. eigenvalues --    0.84571   0.84745   0.84982   0.85327   0.86720
 Alpha virt. eigenvalues --    0.87033   0.87952   0.88444   0.88655   0.89171
 Alpha virt. eigenvalues --    0.89699   0.90017   0.90233   0.90640   0.91210
 Alpha virt. eigenvalues --    0.91869   0.92649   0.92879   0.93350   0.93553
 Alpha virt. eigenvalues --    0.94119   0.94418   0.95054   0.95581   0.96230
 Alpha virt. eigenvalues --    0.96502   0.96840   0.97379   0.97619   0.98127
 Alpha virt. eigenvalues --    0.98473   0.99015   0.99455   1.00411   1.01025
 Alpha virt. eigenvalues --    1.01672   1.02247   1.02929   1.03367   1.03772
 Alpha virt. eigenvalues --    1.03935   1.04168   1.04963   1.05507   1.06960
 Alpha virt. eigenvalues --    1.07482   1.08237   1.08848   1.10478   1.10926
 Alpha virt. eigenvalues --    1.11503   1.11908   1.12334   1.13509   1.13857
 Alpha virt. eigenvalues --    1.14764   1.15724   1.15950   1.17132   1.17800
 Alpha virt. eigenvalues --    1.19213   1.19722   1.21430   1.22215   1.22541
 Alpha virt. eigenvalues --    1.24555   1.25706   1.26026   1.28022   1.28176
 Alpha virt. eigenvalues --    1.28412   1.30106   1.30766   1.31763   1.32847
 Alpha virt. eigenvalues --    1.33224   1.34602   1.36042   1.37247   1.38494
 Alpha virt. eigenvalues --    1.40139   1.40517   1.42034   1.42868   1.43210
 Alpha virt. eigenvalues --    1.44248   1.45123   1.45902   1.46631   1.47628
 Alpha virt. eigenvalues --    1.48230   1.48881   1.49724   1.51137   1.52313
 Alpha virt. eigenvalues --    1.53074   1.53805   1.55947   1.56632   1.57801
 Alpha virt. eigenvalues --    1.58809   1.59541   1.59706   1.61862   1.63515
 Alpha virt. eigenvalues --    1.63815   1.64376   1.65685   1.66944   1.68997
 Alpha virt. eigenvalues --    1.70016   1.70510   1.70884   1.72489   1.72929
 Alpha virt. eigenvalues --    1.73622   1.74973   1.75475   1.76469   1.77660
 Alpha virt. eigenvalues --    1.78034   1.79068   1.80222   1.80677   1.81590
 Alpha virt. eigenvalues --    1.82107   1.82881   1.84364   1.85879   1.86112
 Alpha virt. eigenvalues --    1.87872   1.88022   1.88556   1.89475   1.89999
 Alpha virt. eigenvalues --    1.91984   1.92335   1.92945   1.94307   1.94889
 Alpha virt. eigenvalues --    1.95347   1.96465   1.97103   1.97722   1.98989
 Alpha virt. eigenvalues --    1.99500   2.00396   2.01318   2.02243   2.03412
 Alpha virt. eigenvalues --    2.04560   2.05362   2.06502   2.07498   2.08170
 Alpha virt. eigenvalues --    2.08985   2.09837   2.10139   2.11879   2.13655
 Alpha virt. eigenvalues --    2.14054   2.14693   2.15403   2.16221   2.17716
 Alpha virt. eigenvalues --    2.18386   2.18860   2.19686   2.20553   2.21293
 Alpha virt. eigenvalues --    2.21799   2.22491   2.23312   2.23500   2.24984
 Alpha virt. eigenvalues --    2.25233   2.25589   2.26848   2.27848   2.28188
 Alpha virt. eigenvalues --    2.29089   2.29708   2.30294   2.30776   2.32429
 Alpha virt. eigenvalues --    2.32989   2.33349   2.34305   2.34425   2.35189
 Alpha virt. eigenvalues --    2.35333   2.36017   2.37145   2.37909   2.38741
 Alpha virt. eigenvalues --    2.39029   2.39892   2.41540   2.42250   2.42997
 Alpha virt. eigenvalues --    2.44083   2.44802   2.45215   2.46558   2.46737
 Alpha virt. eigenvalues --    2.47990   2.48772   2.49797   2.50235   2.52653
 Alpha virt. eigenvalues --    2.53400   2.53936   2.55672   2.56576   2.57173
 Alpha virt. eigenvalues --    2.58374   2.59508   2.61138   2.62870   2.63262
 Alpha virt. eigenvalues --    2.64130   2.64678   2.66579   2.67327   2.68062
 Alpha virt. eigenvalues --    2.69994   2.71423   2.72483   2.73143   2.74347
 Alpha virt. eigenvalues --    2.75361   2.76073   2.77430   2.77893   2.78964
 Alpha virt. eigenvalues --    2.80099   2.81491   2.82237   2.83961   2.84276
 Alpha virt. eigenvalues --    2.84873   2.85565   2.87759   2.88837   2.89424
 Alpha virt. eigenvalues --    2.90145   2.91975   2.92815   2.96389   2.98747
 Alpha virt. eigenvalues --    3.00676   3.01813   3.03046   3.03423   3.04118
 Alpha virt. eigenvalues --    3.05249   3.06103   3.07616   3.08899   3.11333
 Alpha virt. eigenvalues --    3.14672   3.15434   3.17280   3.21047   3.21679
 Alpha virt. eigenvalues --    3.22872   3.27140   3.27479   3.29868   3.30783
 Alpha virt. eigenvalues --    3.34099   3.34502   3.36077   3.39645   3.46078
 Alpha virt. eigenvalues --    3.46410   3.50581   3.56697   3.63836   3.72319
 Alpha virt. eigenvalues --    3.77347   3.84443   3.85097   3.91871   3.93549
 Alpha virt. eigenvalues --    3.95184   4.00876   4.04782   4.11705   4.14404
 Alpha virt. eigenvalues --    4.14868   4.21216   4.27438   4.42845   4.48005
 Alpha virt. eigenvalues --    4.96895   5.16980
          Condensed to atoms (all electrons):
 Mulliken charges:
               1
     1  C   -0.112984
     2  H   -0.512508
     3  B    1.425850
     4  C    0.674256
     5  H   -0.089247
     6  H   -0.243014
     7  C    0.346464
     8  H   -0.163832
     9  C    0.831279
    10  H   -0.415545
    11  H   -0.388582
    12  C    0.319715
    13  C    1.099834
    14  H   -0.613661
    15  H   -0.247507
    16  H   -0.682565
    17  C    1.004395
    18  O   -1.280048
    19  O   -1.073024
    20  C    0.880067
    21  H   -0.182902
    22  H   -0.071626
    23  H   -0.236184
    24  C    0.248758
    25  H   -0.190138
    26  H   -0.104609
    27  C   -0.215397
    28  H   -0.413009
    29  C    0.597444
    30  H   -0.094117
    31  H   -0.249103
    32  C    0.538806
    33  H   -0.252927
    34  H   -0.080184
    35  C    0.259243
    36  H   -0.208039
    37  H   -0.105360
 Sum of Mulliken charges =  -0.00000
 Mulliken charges with hydrogens summed into heavy atoms:
               1
     1  C   -0.625492
     3  B    1.425850
     4  C    0.341995
     7  C   -0.064875
     9  C    0.027152
    12  C   -0.293946
    13  C    0.417270
    17  C    1.004395
    18  O   -1.280048
    19  O   -1.073024
    20  C    0.389355
    24  C   -0.045988
    27  C   -0.628407
    29  C    0.254224
    32  C    0.205694
    35  C   -0.054156
 Electronic spatial extent (au):  <R**2>=           3368.2983
 Charge=              0.0000 electrons
 Dipole moment (field-independent basis, Debye):
    X=              1.4006    Y=             -1.8485    Z=              0.3307  Tot=              2.3426
 NROrb=    557 NOA=    60 NOB=    60 NVA=   497 NVB=   497

 **** Warning!!: The largest alpha MO coefficient is  0.81093031D+02

    12 initial guesses have been made.
 Iteration     1 Dimension    12 NMult     0 NNew     12
 Iteration     2 Dimension    24 NMult    12 NNew     12
 Iteration     3 Dimension    27 NMult    24 NNew      3
 Iteration     4 Dimension    30 NMult    27 NNew      3
 Iteration     5 Dimension    33 NMult    30 NNew      3
 Iteration     6 Dimension    36 NMult    33 NNew      3
 Iteration     7 Dimension    39 NMult    36 NNew      3
 ***********************************************************************
 Stability analysis using <AA,BB:AA,BB> singles matrix:
 ***********************************************************************
 Ground to excited state transition densities written to RWF  633

 Eigenvectors of the stability matrix:
 
 Excited state symmetry could not be determined.
 Eigenvector   1:      Singlet-?Sym  Eigenvalue= 0.2088196  <S**2>=0.000
      60 -> 61         0.14110
      60 -> 63         0.12707
      60 -> 64         0.12531
      60 -> 66         0.16125
      60 -> 67        -0.11870
      60 -> 69        -0.10467
      60 -> 78         0.10345
      60 -> 82        -0.23890
      60 -> 83         0.12190
      60 -> 84         0.18304
      60 -> 85        -0.33138
      60 -> 86         0.13082
      60 -> 87         0.17147
 The wavefunction is stable under the perturbations considered.
 The wavefunction is already stable.

 **********************************************************************

            Population analysis using the SCF Density.

 **********************************************************************

 Alpha  occ. eigenvalues --  -20.63883 -20.59812 -11.41387 -11.31085 -11.24939
 Alpha  occ. eigenvalues --  -11.23669 -11.21807 -11.21548 -11.21289 -11.21137
 Alpha  occ. eigenvalues --  -11.21065 -11.20745 -11.20608 -11.19148 -11.18752
 Alpha  occ. eigenvalues --   -7.61220  -1.49968  -1.40562  -1.10647  -1.09538
 Alpha  occ. eigenvalues --   -1.03210  -1.02448  -1.01759  -0.95742  -0.92368
 Alpha  occ. eigenvalues --   -0.90457  -0.82333  -0.78786  -0.78230  -0.77031
 Alpha  occ. eigenvalues --   -0.74267  -0.73621  -0.70398  -0.70090  -0.66238
 Alpha  occ. eigenvalues --   -0.63604  -0.62166  -0.62129  -0.60539  -0.58431
 Alpha  occ. eigenvalues --   -0.57525  -0.57075  -0.56559  -0.55315  -0.54119
 Alpha  occ. eigenvalues --   -0.53637  -0.52844  -0.51289  -0.50096  -0.49402
 Alpha  occ. eigenvalues --   -0.48960  -0.47133  -0.46137  -0.45491  -0.44638
 Alpha  occ. eigenvalues --   -0.43277  -0.40978  -0.40322  -0.37076  -0.30500
 Alpha virt. eigenvalues --    0.02899   0.03728   0.04008   0.04237   0.05280
 Alpha virt. eigenvalues --    0.05359   0.05441   0.05588   0.06044   0.07073
 Alpha virt. eigenvalues --    0.07317   0.07442   0.07882   0.08044   0.08147
 Alpha virt. eigenvalues --    0.08511   0.09568   0.09977   0.10311   0.10453
 Alpha virt. eigenvalues --    0.11070   0.11673   0.11811   0.12504   0.12854
 Alpha virt. eigenvalues --    0.13006   0.13892   0.14217   0.14638   0.15013
 Alpha virt. eigenvalues --    0.15384   0.15512   0.15787   0.16140   0.16440
 Alpha virt. eigenvalues --    0.16718   0.16943   0.17134   0.17329   0.17806
 Alpha virt. eigenvalues --    0.18004   0.18084   0.18373   0.18786   0.19009
 Alpha virt. eigenvalues --    0.19529   0.19880   0.19955   0.20245   0.20677
 Alpha virt. eigenvalues --    0.21016   0.21469   0.21979   0.22072   0.22352
 Alpha virt. eigenvalues --    0.22453   0.22879   0.23276   0.23765   0.23889
 Alpha virt. eigenvalues --    0.24353   0.24931   0.25428   0.25607   0.25823
 Alpha virt. eigenvalues --    0.26527   0.26762   0.26966   0.27650   0.27994
 Alpha virt. eigenvalues --    0.28416   0.29325   0.30229   0.30583   0.30943
 Alpha virt. eigenvalues --    0.31341   0.31579   0.31980   0.33174   0.33499
 Alpha virt. eigenvalues --    0.33895   0.34670   0.35009   0.35797   0.35896
 Alpha virt. eigenvalues --    0.36318   0.36688   0.37158   0.37560   0.37811
 Alpha virt. eigenvalues --    0.38062   0.38869   0.38990   0.39673   0.39901
 Alpha virt. eigenvalues --    0.40254   0.40368   0.40928   0.41396   0.41923
 Alpha virt. eigenvalues --    0.42402   0.42593   0.43143   0.43291   0.43722
 Alpha virt. eigenvalues --    0.44048   0.44468   0.44769   0.45063   0.45552
 Alpha virt. eigenvalues --    0.45754   0.45964   0.46120   0.46828   0.47027
 Alpha virt. eigenvalues --    0.47345   0.47487   0.48142   0.48529   0.49144
 Alpha virt. eigenvalues --    0.49347   0.50477   0.50566   0.50965   0.51529
 Alpha virt. eigenvalues --    0.52028   0.52151   0.52488   0.53837   0.54161
 Alpha virt. eigenvalues --    0.54452   0.55036   0.55068   0.55337   0.55700
 Alpha virt. eigenvalues --    0.56397   0.56546   0.57126   0.57807   0.57926
 Alpha virt. eigenvalues --    0.58345   0.58753   0.59293   0.59476   0.59991
 Alpha virt. eigenvalues --    0.60603   0.61124   0.61366   0.61962   0.62259
 Alpha virt. eigenvalues --    0.62811   0.63329   0.63738   0.64195   0.64304
 Alpha virt. eigenvalues --    0.64855   0.65425   0.65761   0.66192   0.66560
 Alpha virt. eigenvalues --    0.67057   0.67329   0.68005   0.68479   0.68584
 Alpha virt. eigenvalues --    0.69231   0.69419   0.70088   0.70511   0.71045
 Alpha virt. eigenvalues --    0.71440   0.71953   0.72586   0.73103   0.73570
 Alpha virt. eigenvalues --    0.73821   0.74277   0.74437   0.75039   0.75638
 Alpha virt. eigenvalues --    0.76081   0.76324   0.76385   0.76914   0.77353
 Alpha virt. eigenvalues --    0.77812   0.77913   0.78337   0.79073   0.80052
 Alpha virt. eigenvalues --    0.80378   0.80942   0.81197   0.81529   0.81979
 Alpha virt. eigenvalues --    0.82183   0.82894   0.83126   0.83675   0.83936
 Alpha virt. eigenvalues --    0.84571   0.84745   0.84982   0.85327   0.86720
 Alpha virt. eigenvalues --    0.87033   0.87952   0.88444   0.88655   0.89171
 Alpha virt. eigenvalues --    0.89699   0.90017   0.90233   0.90640   0.91210
 Alpha virt. eigenvalues --    0.91869   0.92649   0.92879   0.93350   0.93553
 Alpha virt. eigenvalues --    0.94119   0.94418   0.95054   0.95581   0.96230
 Alpha virt. eigenvalues --    0.96502   0.96840   0.97379   0.97619   0.98127
 Alpha virt. eigenvalues --    0.98473   0.99015   0.99455   1.00411   1.01025
 Alpha virt. eigenvalues --    1.01672   1.02247   1.02929   1.03367   1.03772
 Alpha virt. eigenvalues --    1.03935   1.04168   1.04963   1.05507   1.06960
 Alpha virt. eigenvalues --    1.07482   1.08237   1.08848   1.10478   1.10926
 Alpha virt. eigenvalues --    1.11503   1.11908   1.12334   1.13509   1.13857
 Alpha virt. eigenvalues --    1.14764   1.15724   1.15950   1.17132   1.17800
 Alpha virt. eigenvalues --    1.19213   1.19722   1.21430   1.22215   1.22541
 Alpha virt. eigenvalues --    1.24555   1.25706   1.26026   1.28022   1.28176
 Alpha virt. eigenvalues --    1.28412   1.30106   1.30766   1.31763   1.32847
 Alpha virt. eigenvalues --    1.33224   1.34602   1.36042   1.37247   1.38494
 Alpha virt. eigenvalues --    1.40139   1.40517   1.42034   1.42868   1.43210
 Alpha virt. eigenvalues --    1.44248   1.45123   1.45902   1.46631   1.47628
 Alpha virt. eigenvalues --    1.48230   1.48881   1.49724   1.51137   1.52313
 Alpha virt. eigenvalues --    1.53074   1.53805   1.55947   1.56632   1.57801
 Alpha virt. eigenvalues --    1.58809   1.59541   1.59706   1.61862   1.63515
 Alpha virt. eigenvalues --    1.63815   1.64376   1.65685   1.66944   1.68997
 Alpha virt. eigenvalues --    1.70016   1.70510   1.70884   1.72489   1.72929
 Alpha virt. eigenvalues --    1.73622   1.74973   1.75475   1.76469   1.77660
 Alpha virt. eigenvalues --    1.78034   1.79068   1.80222   1.80677   1.81590
 Alpha virt. eigenvalues --    1.82107   1.82881   1.84364   1.85879   1.86112
 Alpha virt. eigenvalues --    1.87872   1.88022   1.88556   1.89475   1.89999
 Alpha virt. eigenvalues --    1.91984   1.92335   1.92945   1.94307   1.94889
 Alpha virt. eigenvalues --    1.95347   1.96465   1.97103   1.97722   1.98989
 Alpha virt. eigenvalues --    1.99500   2.00396   2.01318   2.02243   2.03412
 Alpha virt. eigenvalues --    2.04560   2.05362   2.06502   2.07498   2.08170
 Alpha virt. eigenvalues --    2.08985   2.09837   2.10139   2.11879   2.13655
 Alpha virt. eigenvalues --    2.14054   2.14693   2.15403   2.16221   2.17716
 Alpha virt. eigenvalues --    2.18386   2.18860   2.19686   2.20553   2.21293
 Alpha virt. eigenvalues --    2.21799   2.22491   2.23312   2.23500   2.24984
 Alpha virt. eigenvalues --    2.25233   2.25589   2.26848   2.27848   2.28188
 Alpha virt. eigenvalues --    2.29089   2.29708   2.30294   2.30776   2.32429
 Alpha virt. eigenvalues --    2.32989   2.33349   2.34305   2.34425   2.35189
 Alpha virt. eigenvalues --    2.35333   2.36017   2.37145   2.37909   2.38741
 Alpha virt. eigenvalues --    2.39029   2.39892   2.41540   2.42250   2.42997
 Alpha virt. eigenvalues --    2.44083   2.44802   2.45215   2.46558   2.46737
 Alpha virt. eigenvalues --    2.47990   2.48772   2.49797   2.50235   2.52653
 Alpha virt. eigenvalues --    2.53400   2.53936   2.55672   2.56576   2.57173
 Alpha virt. eigenvalues --    2.58374   2.59508   2.61138   2.62870   2.63262
 Alpha virt. eigenvalues --    2.64130   2.64678   2.66579   2.67327   2.68062
 Alpha virt. eigenvalues --    2.69994   2.71423   2.72483   2.73143   2.74347
 Alpha virt. eigenvalues --    2.75361   2.76073   2.77430   2.77893   2.78964
 Alpha virt. eigenvalues --    2.80099   2.81491   2.82237   2.83961   2.84276
 Alpha virt. eigenvalues --    2.84873   2.85565   2.87759   2.88837   2.89424
 Alpha virt. eigenvalues --    2.90145   2.91975   2.92815   2.96389   2.98747
 Alpha virt. eigenvalues --    3.00676   3.01813   3.03046   3.03423   3.04118
 Alpha virt. eigenvalues --    3.05249   3.06103   3.07616   3.08899   3.11333
 Alpha virt. eigenvalues --    3.14672   3.15434   3.17280   3.21047   3.21679
 Alpha virt. eigenvalues --    3.22872   3.27140   3.27479   3.29868   3.30783
 Alpha virt. eigenvalues --    3.34099   3.34502   3.36077   3.39645   3.46078
 Alpha virt. eigenvalues --    3.46410   3.50581   3.56697   3.63836   3.72319
 Alpha virt. eigenvalues --    3.77347   3.84443   3.85097   3.91871   3.93549
 Alpha virt. eigenvalues --    3.95184   4.00876   4.04782   4.11705   4.14404
 Alpha virt. eigenvalues --    4.14868   4.21216   4.27438   4.42845   4.48005
 Alpha virt. eigenvalues --    4.96895   5.16980
          Condensed to atoms (all electrons):
 Mulliken charges:
               1
     1  C   -0.112984
     2  H   -0.512508
     3  B    1.425850
     4  C    0.674256
     5  H   -0.089247
     6  H   -0.243014
     7  C    0.346464
     8  H   -0.163832
     9  C    0.831279
    10  H   -0.415545
    11  H   -0.388582
    12  C    0.319715
    13  C    1.099834
    14  H   -0.613661
    15  H   -0.247507
    16  H   -0.682565
    17  C    1.004395
    18  O   -1.280048
    19  O   -1.073024
    20  C    0.880067
    21  H   -0.182902
    22  H   -0.071626
    23  H   -0.236184
    24  C    0.248758
    25  H   -0.190138
    26  H   -0.104609
    27  C   -0.215397
    28  H   -0.413009
    29  C    0.597444
    30  H   -0.094117
    31  H   -0.249103
    32  C    0.538806
    33  H   -0.252927
    34  H   -0.080184
    35  C    0.259243
    36  H   -0.208039
    37  H   -0.105360
 Sum of Mulliken charges =  -0.00000
 Mulliken charges with hydrogens summed into heavy atoms:
               1
     1  C   -0.625492
     3  B    1.425850
     4  C    0.341995
     7  C   -0.064875
     9  C    0.027152
    12  C   -0.293946
    13  C    0.417270
    17  C    1.004395
    18  O   -1.280048
    19  O   -1.073024
    20  C    0.389355
    24  C   -0.045988
    27  C   -0.628407
    29  C    0.254224
    32  C    0.205694
    35  C   -0.054156
 Electronic spatial extent (au):  <R**2>=           3368.2983
 Charge=              0.0000 electrons
 Dipole moment (field-independent basis, Debye):
    X=              1.4006    Y=             -1.8485    Z=              0.3307  Tot=              2.3426
 Unable to Open any file for archive entry.
 1\1\GINC-SE024\Stability\RHF\Aug-CC-pVDZ\C13H21B1O2\OHZDE\09-Apr-2025\
 0\\#t hf aug-cc-pvdz symm=none int=(grid=ultrafine) guess=(read,tcheck
 ) stable=(opt,rrhf)\\title\\0,1\C,0,-0.569558,-0.961519,0.916453\H,0,0
 .19554,-1.499377,1.489716\B,0,0.03256,-0.063096,-0.236416\C,0,-1.32633
 9,-0.058512,1.908381\H,0,-0.580697,0.549949,2.432772\H,0,-1.81739,-0.6
 67349,2.676227\C,0,-1.445843,-2.025285,0.213301\H,0,-0.774873,-2.70046
 2,-0.330927\C,0,1.537713,3.462684,-0.063551\H,0,1.62471,3.705414,0.989
 806\H,0,1.446426,4.288715,-0.756398\C,0,1.541231,2.204636,-0.493626\C,
 0,1.683992,1.035997,0.378368\H,0,1.45101,2.004329,-1.555358\H,0,-1.960
 818,-2.643093,0.957879\H,0,2.024649,1.226122,1.390766\C,0,1.977113,-0.
 224356,-0.127393\O,0,1.171341,-0.679548,-1.050102\O,0,2.831962,-1.0364
 01,0.455054\C,0,2.786306,-2.429034,0.098079\H,0,1.785854,-2.828359,0.2
 54856\H,0,3.076717,-2.560454,-0.942749\H,0,3.501086,-2.913992,0.756507
 \C,0,-2.475532,-1.465695,-0.781617\H,0,-2.845728,-2.287226,-1.402493\H
 ,0,-3.346364,-1.096597,-0.240951\C,0,-1.091532,0.733077,-0.993187\H,0,
 -0.704726,1.39032,-1.775719\C,0,-1.930875,-0.36061,-1.699851\H,0,-1.29
 744,-0.821568,-2.466229\H,0,-2.765814,0.104581,-2.235712\C,0,-1.876017
 ,1.601857,0.007688\H,0,-2.735151,2.064407,-0.491544\H,0,-1.220031,2.42
 5042,0.306837\C,0,-2.363369,0.878844,1.273138\H,0,-2.656414,1.629553,2
 .013467\H,0,-3.273506,0.320613,1.054623\\Version=ES64L-G16RevC.01\HF=-
 678.9610832\RMSD=5.149e-09\Dipole=0.5510497,-0.7272422,0.1300893\Quadr
 upole=-0.7256729,2.304296,-1.5786231,-4.7719518,0.1881404,-0.1875242\P
 G=Unknown\\@
 The archive entry for this job was punched.


 I LOVE MANKIND - IT'S PEOPLE I CAN'T STAND.
     -- LINUS OF PEANUTS
 Job cpu time:       0 days  4 hours 29 minutes  9.4 seconds.
 Elapsed time:       0 days  0 hours 17 minutes 17.8 seconds.
 File lengths (MBytes):  RWF=   1190 Int=      0 D2E=      0 Chk=     38 Scr=      1
 Normal termination of Gaussian 16 at Wed Apr  9 01:21:16 2025.
 Initial command:
 /arc/software/Gaussian/g16.c01/l1.exe "/tmp/slurm/4856116/Gau-2491379.inp" -scrdir="/tmp/slurm/4856116/"
 Entering Link 1 = /arc/software/Gaussian/g16.c01/l1.exe PID=   2494131.
  
 Copyright (c) 1988-2019, Gaussian, Inc.  All Rights Reserved.
  
 This is part of the Gaussian(R) 16 program.  It is based on
 the Gaussian(R) 09 system (copyright 2009, Gaussian, Inc.),
 the Gaussian(R) 03 system (copyright 2003, Gaussian, Inc.),
 the Gaussian(R) 98 system (copyright 1998, Gaussian, Inc.),
 the Gaussian(R) 94 system (copyright 1995, Gaussian, Inc.),
 the Gaussian 92(TM) system (copyright 1992, Gaussian, Inc.),
 the Gaussian 90(TM) system (copyright 1990, Gaussian, Inc.),
 the Gaussian 88(TM) system (copyright 1988, Gaussian, Inc.),
 the Gaussian 86(TM) system (copyright 1986, Carnegie Mellon
 University), and the Gaussian 82(TM) system (copyright 1983,
 Carnegie Mellon University). Gaussian is a federally registered
 trademark of Gaussian, Inc.
  
 This software contains proprietary and confidential information,
 including trade secrets, belonging to Gaussian, Inc.
  
 This software is provided under written license and may be
 used, copied, transmitted, or stored only in accord with that
 written license.
  
 The following legend is applicable only to US Government
 contracts under FAR:
  
                    RESTRICTED RIGHTS LEGEND
  
 Use, reproduction and disclosure by the US Government is
 subject to restrictions as set forth in subparagraphs (a)
 and (c) of the Commercial Computer Software - Restricted
 Rights clause in FAR 52.227-19.
  
 Gaussian, Inc.
 340 Quinnipiac St., Bldg. 40, Wallingford CT 06492
  
  
 ---------------------------------------------------------------
 Warning -- This program may not be used in any manner that
 competes with the business of Gaussian, Inc. or will provide
 assistance to any competitor of Gaussian, Inc.  The licensee
 of this program is prohibited from giving any competitor of
 Gaussian, Inc. access to this program.  By using this program,
 the user acknowledges that Gaussian, Inc. is engaged in the
 business of creating and licensing software in the field of
 computational chemistry and represents and warrants to the
 licensee that it is not a competitor of Gaussian, Inc. and that
 it will not use this program in any manner prohibited above.
 ---------------------------------------------------------------
  

 Cite this work as:
 Gaussian 16, Revision C.01,
 M. J. Frisch, G. W. Trucks, H. B. Schlegel, G. E. Scuseria, 
 M. A. Robb, J. R. Cheeseman, G. Scalmani, V. Barone, 
 G. A. Petersson, H. Nakatsuji, X. Li, M. Caricato, A. V. Marenich, 
 J. Bloino, B. G. Janesko, R. Gomperts, B. Mennucci, H. P. Hratchian, 
 J. V. Ortiz, A. F. Izmaylov, J. L. Sonnenberg, D. Williams-Young, 
 F. Ding, F. Lipparini, F. Egidi, J. Goings, B. Peng, A. Petrone, 
 T. Henderson, D. Ranasinghe, V. G. Zakrzewski, J. Gao, N. Rega, 
 G. Zheng, W. Liang, M. Hada, M. Ehara, K. Toyota, R. Fukuda, 
 J. Hasegawa, M. Ishida, T. Nakajima, Y. Honda, O. Kitao, H. Nakai, 
 T. Vreven, K. Throssell, J. A. Montgomery, Jr., J. E. Peralta, 
 F. Ogliaro, M. J. Bearpark, J. J. Heyd, E. N. Brothers, K. N. Kudin, 
 V. N. Staroverov, T. A. Keith, R. Kobayashi, J. Normand, 
 K. Raghavachari, A. P. Rendell, J. C. Burant, S. S. Iyengar, 
 J. Tomasi, M. Cossi, J. M. Millam, M. Klene, C. Adamo, R. Cammi, 
 J. W. Ochterski, R. L. Martin, K. Morokuma, O. Farkas, 
 J. B. Foresman, and D. J. Fox, Gaussian, Inc., Wallingford CT, 2019.
 
 ******************************************
 Gaussian 16:  ES64L-G16RevC.01  3-Jul-2019
                 9-Apr-2025 
 ******************************************
 %nprocs=16
 Will use up to   16 processors via shared memory.
 %mem=30GB
 %chk=BH10_284_forward_mol1.chk
 ----------------------------------------------------------------------
 #t hf aug-cc-pvdz iop(5/13=1,5/36=2,99/5=2) pseudo=read geom=check gue
 ss=(read,tcheck) scf=(maxcycle=1)
 ----------------------------------------------------------------------
 -----
 title
 -----
 Structure from the checkpoint file:  "BH10_284_forward_mol1.chk"
 Charge =  0 Multiplicity = 1
 Z-Matrix found in chk file.
 C,0,-0.569558,-0.961519,0.916453
 H,0,0.19554,-1.499377,1.489716
 B,0,0.03256,-0.063096,-0.236416
 C,0,-1.326339,-0.058512,1.908381
 H,0,-0.580697,0.549949,2.432772
 H,0,-1.81739,-0.667349,2.676227
 C,0,-1.445843,-2.025285,0.213301
 H,0,-0.774873,-2.700462,-0.330927
 C,0,1.537713,3.462684,-0.063551
 H,0,1.62471,3.705414,0.989806
 H,0,1.446426,4.288715,-0.756398
 C,0,1.541231,2.204636,-0.493626
 C,0,1.683992,1.035997,0.378368
 H,0,1.45101,2.004329,-1.555358
 H,0,-1.960818,-2.643093,0.957879
 H,0,2.024649,1.226122,1.390766
 C,0,1.977113,-0.224356,-0.127393
 O,0,1.171341,-0.679548,-1.050102
 O,0,2.831962,-1.036401,0.455054
 C,0,2.786306,-2.429034,0.098079
 H,0,1.785854,-2.828359,0.254856
 H,0,3.076717,-2.560454,-0.942749
 H,0,3.501086,-2.913992,0.756507
 C,0,-2.475532,-1.465695,-0.781617
 H,0,-2.845728,-2.287226,-1.402493
 H,0,-3.346364,-1.096597,-0.240951
 C,0,-1.091532,0.733077,-0.993187
 H,0,-0.704726,1.39032,-1.775719
 C,0,-1.930875,-0.36061,-1.699851
 H,0,-1.29744,-0.821568,-2.466229
 H,0,-2.765814,0.104581,-2.235712
 C,0,-1.876017,1.601857,0.007688
 H,0,-2.735151,2.064407,-0.491544
 H,0,-1.220031,2.425042,0.306837
 C,0,-2.363369,0.878844,1.273138
 H,0,-2.656414,1.629553,2.013467
 H,0,-3.273506,0.320613,1.054623
 Recover connectivity data from disk.
                    Distance matrix (angstroms):
                    1          2          3          4          5
     1  C    0.000000
     2  H    1.096949   0.000000
     3  B    1.580765   2.251443   0.000000
     4  C    1.540149   2.137168   2.539051   0.000000
     5  H    2.141000   2.385715   2.806505   1.095989   0.000000
     6  H    2.177252   2.480316   3.502988   1.096084   1.752283
     7  C    1.547222   2.144750   2.497620   2.599187   3.508042
     8  H    2.149892   2.387268   2.759815   3.506924   4.270938
     9  C    4.997456   5.369927   3.837511   4.948750   4.382159
    10  H    5.157563   5.420543   4.270858   4.870278   4.111317
    11  H    5.867502   6.333384   4.605177   5.804107   5.315863
    12  C    4.058114   4.411830   2.735846   4.372006   3.975471
    13  C    3.059100   3.143041   2.076823   3.549786   3.096068
    14  H    4.357614   4.808808   2.832994   4.895556   4.706191
    15  H    2.182891   2.498163   3.472216   2.825965   3.778301
    16  H    3.426464   3.283866   2.877190   3.625925   2.886315
    17  C    2.849308   2.722999   1.954272   3.883899   3.700863
    18  O    2.641510   2.841651   1.529353   3.921315   4.087996
    19  O    3.433487   2.869772   3.043371   4.512194   4.251366
    20  C    3.753020   3.084313   3.645911   5.080395   5.065752
    21  H    3.077461   2.412503   3.310901   4.482404   4.664424
    22  H    4.394149   3.917136   4.000324   5.811674   5.869023
    23  H    4.517508   3.669518   4.598280   5.725785   5.609786
    24  C    2.601994   3.506382   2.924902   3.246059   4.240934
    25  H    3.509410   4.270233   3.819821   4.270550   5.281021
    26  H    3.011392   3.962641   3.533450   3.126939   4.184354
    27  C    2.605924   3.578437   1.571680   3.016761   3.468672
    28  H    3.577318   4.452403   2.241754   4.007257   4.293367
    29  C    3.009871   3.998971   2.466827   3.670976   4.441922
    30  H    3.462937   4.282279   2.704856   4.440755   5.137605
    31  H    3.987011   5.022063   3.443283   4.390011   5.173764
    32  C    3.017215   4.013154   2.544469   2.582945   2.943705
    33  H    3.978502   5.021444   3.500226   3.500168   3.935337
    34  H    3.501934   4.336370   2.838122   2.957074   2.905911
    35  C    2.594594   3.500122   2.984373   1.535448   2.151939
    36  H    3.503150   4.265930   3.893278   2.151675   2.376965
    37  H    2.995712   3.941567   3.569886   2.159652   3.033663
                    6          7          8          9         10
     6  H    0.000000
     7  C    2.836907   0.000000
     8  H    3.776687   1.096471   0.000000
     9  C    5.985004   6.252684   6.588165   0.000000
    10  H    5.814905   6.547684   6.966892   1.084457   0.000000
    11  H    6.855507   7.012284   7.346005   1.081988   1.849663
    12  C    5.438437   5.226336   5.426859   1.329534   2.111841
    13  C    4.521197   4.381160   4.528824   2.470931   2.739189
    14  H    5.977174   5.268558   5.346854   2.088015   3.066223
    15  H    2.622376   1.096030   1.752363   7.110805   7.291130
    16  H    4.472014   4.899223   5.120509   2.711891   2.543149
    17  C    4.738648   3.882788   3.707554   3.713679   4.100660
    18  O    4.776839   3.202631   2.896387   4.273827   4.857433
    19  O    5.165877   4.397266   4.049213   4.710180   4.922218
    20  C    5.562769   4.252925   3.597182   6.024736   6.306817
    21  H    4.849368   3.330243   2.629985   6.303981   6.576953
    22  H    6.374411   4.698554   3.902393   6.278512   6.715966
    23  H    6.084317   5.055391   4.417231   6.722301   6.884167
    24  C    3.609320   1.537291   2.149421   6.396145   6.833030
    25  H    4.507487   2.153853   2.368007   7.353148   7.849818
    26  H    3.321437   2.163513   3.032003   6.683766   7.020374
    27  C    3.994078   3.031454   3.511132   3.902295   4.488320
    28  H    5.029100   4.021419   4.338991   3.500678   4.293491
    29  C    4.388283   2.581966   2.947066   5.415363   6.033986
    30  H    5.170975   2.941231   2.891856   5.671487   6.401305
    31  H    5.061870   3.503758   3.931961   5.874988   6.530441
    32  C    3.503403   3.658345   4.453889   3.888612   4.200547
    33  H    4.282470   4.345653   5.154849   4.516162   4.888322
    34  H    3.941285   4.457034   5.184178   2.969687   3.193486
    35  C    2.158116   3.224759   4.231758   4.866355   4.896381
    36  H    2.533569   4.250167   5.271187   5.026438   4.866734
    37  H    2.392894   3.090536   4.158102   5.854123   5.954292
                   11         12         13         14         15
    11  H    0.000000
    12  C    2.102718   0.000000
    13  C    3.453159   1.465084   0.000000
    14  H    2.420078   1.084222   2.175142   0.000000
    15  H    7.911891   6.153998   5.211159   6.289313   0.000000
    16  H    3.784723   2.177640   1.084963   3.100696   5.571549
    17  C    4.587492   2.494819   1.389318   2.698686   4.747147
    18  O    4.984533   2.960575   2.290509   2.745304   4.206889
    19  O    5.634198   3.615287   2.370348   3.898054   5.079865
    20  C    6.903156   4.834379   3.646930   4.916460   4.829106
    21  H    7.196568   5.094223   3.867671   5.171447   3.816558
    22  H    7.042989   5.026481   4.076701   4.884205   5.384791
    23  H    7.641302   5.621763   4.364314   5.808392   5.472324
    24  C    6.963880   5.448730   4.990558   5.296931   2.162647
    25  H    7.879278   6.344153   5.893525   6.074765   2.545793
    26  H    7.227593   5.903437   5.498727   5.861587   2.397620
    27  C    4.374913   3.057203   3.110700   2.897695   3.995102
    28  H    3.750622   2.711309   3.235987   2.252280   5.031774
    29  C    5.823443   4.482297   4.397359   4.129281   3.503449
    30  H    6.047091   4.594249   4.520090   4.045906   3.934786
    31  H    6.118686   5.098601   5.244209   4.674776   4.289144
    32  C    4.340698   3.506029   3.623709   3.697865   4.350822
    33  H    4.743762   4.278681   4.619870   4.319636   4.986078
    34  H    3.422534   2.883381   3.219924   3.283174   5.163198
    35  C    5.500979   4.486099   4.148065   4.880225   3.558859
    36  H    5.619305   4.923054   4.676001   5.454164   4.455741
    37  H    6.426771   5.397065   5.054293   5.654021   3.242848
                   16         17         18         19         20
    16  H    0.000000
    17  C    2.100227   0.000000
    18  O    3.212094   1.306851   0.000000
    19  O    2.578046   1.315077   2.269471   0.000000
    20  C    3.951117   2.359287   2.643319   1.438382   0.000000
    21  H    4.217361   2.638849   2.588036   2.084595   1.088551
    22  H    4.570590   2.707635   2.679513   2.082425   1.088546
    23  H    4.441024   3.215263   3.699228   2.015924   1.086104
    24  C    5.675981   4.668509   3.740293   5.466547   5.421146
    25  H    6.623178   5.398250   4.341158   6.103377   5.830234
    26  H    6.074974   5.395656   4.608504   6.217697   6.284900
    27  C    3.954353   3.329093   2.668210   4.541174   5.121273
    28  H    4.183668   3.537855   2.886261   4.834613   5.503262
    29  C    5.264580   4.214684   3.185536   5.271141   5.455523
    30  H    5.486868   4.068109   2.849643   5.062806   5.082972
    31  H    6.112097   5.200824   4.185895   6.314836   6.533898
    32  C    4.155632   4.266135   3.950964   5.415312   6.163887
    33  H    5.186666   5.251331   4.806449   6.442345   7.143189
    34  H    3.624950   4.174877   4.147098   5.331248   6.297330
    35  C    4.403310   4.692368   4.507794   5.597222   6.232333
    36  H    4.739500   5.430454   5.419328   6.297478   7.054363
    37  H    5.385479   5.409543   5.018651   6.283129   6.722861
                   21         22         23         24         25
    21  H    0.000000
    22  H    1.781111   0.000000
    23  H    1.789136   1.786771   0.000000
    24  C    4.592444   5.661442   6.339034   0.000000
    25  H    4.948857   5.946543   6.733214   1.094278   0.000000
    26  H    5.439162   6.625056   7.154399   1.089450   1.737070
    27  C    4.745607   5.312644   6.120023   2.606687   3.516670
    28  H    5.303157   5.531886   6.529022   3.504399   4.271713
    29  C    4.870805   5.521639   6.485342   1.536560   2.153422
    30  H    4.575829   4.947521   6.147367   2.154233   2.382621
    31  H    5.960096   6.550522   7.572265   2.159727   2.534044
    32  C    5.753017   6.538940   7.061647   3.223708   4.248990
    33  H    6.703414   7.441151   8.076679   3.551502   4.447332
    34  H    6.052790   6.699155   7.141179   4.230703   5.269741
    35  C    5.656528   6.806869   7.003167   3.119529   4.173209
    36  H    6.534481   7.691824   7.754905   4.174419   5.200556
    37  H    6.012718   7.253646   7.513098   2.683176   3.608495
                   26         27         28         29         30
    26  H    0.000000
    27  C    2.999639   0.000000
    28  H    3.939355   1.092677   0.000000
    29  C    2.161868   1.549200   2.138914   0.000000
    30  H    3.037366   2.151551   2.391770   1.095928   0.000000
    31  H    2.399779   2.177635   2.472408   1.095752   1.751289
    32  C    3.083082   1.540112   2.144111   2.601918   3.511126
    33  H    3.229292   2.173837   2.495220   2.826229   3.780905
    34  H    4.150097   2.137597   2.381854   3.505988   4.270406
    35  C    2.676025   2.602892   3.508309   3.249917   4.243875
    36  H    3.604209   3.506065   4.268987   4.275031   5.284173
    37  H    1.921537   3.020706   3.969098   3.139084   4.195928
                   31         32         33         34         35
    31  H    0.000000
    32  C    2.840144   0.000000
    33  H    2.623734   1.096037   0.000000
    34  H    3.773399   1.094277   1.750160   0.000000
    35  C    3.615726   1.536757   2.158213   2.152136   0.000000
    36  H    4.515864   2.152426   2.543694   2.368245   1.094315
    37  H    3.336274   2.165787   2.391919   3.033903   1.089826
                   36         37
    36  H    0.000000
    37  H    1.735946   0.000000
 Framework group  C1[X(C13H21BO2)]
 Deg. of freedom   105
                         Standard orientation:                         
 ---------------------------------------------------------------------
 Center     Atomic      Atomic             Coordinates (Angstroms)
 Number     Number       Type             X           Y           Z
 ---------------------------------------------------------------------
      1          6           0       -0.569558   -0.961519    0.916453
      2          1           0        0.195540   -1.499377    1.489716
      3          5           0        0.032560   -0.063096   -0.236416
      4          6           0       -1.326339   -0.058512    1.908381
      5          1           0       -0.580697    0.549949    2.432772
      6          1           0       -1.817390   -0.667348    2.676227
      7          6           0       -1.445844   -2.025285    0.213301
      8          1           0       -0.774874   -2.700462   -0.330927
      9          6           0        1.537714    3.462684   -0.063551
     10          1           0        1.624711    3.705414    0.989806
     11          1           0        1.446427    4.288715   -0.756398
     12          6           0        1.541232    2.204636   -0.493626
     13          6           0        1.683992    1.035997    0.378368
     14          1           0        1.451011    2.004329   -1.555358
     15          1           0       -1.960819   -2.643092    0.957879
     16          1           0        2.024649    1.226121    1.390766
     17          6           0        1.977113   -0.224357   -0.127393
     18          8           0        1.171341   -0.679548   -1.050102
     19          8           0        2.831962   -1.036402    0.455054
     20          6           0        2.786305   -2.429035    0.098079
     21          1           0        1.785853   -2.828360    0.254856
     22          1           0        3.076716   -2.560455   -0.942749
     23          1           0        3.501085   -2.913993    0.756507
     24          6           0       -2.475532   -1.465694   -0.781617
     25          1           0       -2.845729   -2.287225   -1.402493
     26          1           0       -3.346364   -1.096596   -0.240951
     27          6           0       -1.091532    0.733077   -0.993187
     28          1           0       -0.704726    1.390320   -1.775719
     29          6           0       -1.930875   -0.360609   -1.699851
     30          1           0       -1.297440   -0.821568   -2.466229
     31          1           0       -2.765814    0.104582   -2.235712
     32          6           0       -1.876017    1.601858    0.007688
     33          1           0       -2.735150    2.064408   -0.491544
     34          1           0       -1.220030    2.425042    0.306837
     35          6           0       -2.363369    0.878845    1.273138
     36          1           0       -2.656414    1.629554    2.013467
     37          1           0       -3.273506    0.320614    1.054623
 ---------------------------------------------------------------------
 Rotational constants (GHZ):           0.6774227           0.5192531           0.3830824
 ======================================================================================================
                                       Pseudopotential Parameters
 ======================================================================================================
  Center     Atomic      Valence      Angular      Power
  Number     Number     Electrons     Momentum     of R      Exponent        Coefficient   SO-Coeffient
 ======================================================================================================
    1          6            6
                                      G and up 
                                                     0        0.0000010       -0.00007288    0.00000000
                                                     2        0.1200000        0.10466671    0.00000000
                                                     2        0.1400000       -0.65716157    0.00000000
                                                     2        0.1600000        1.18890794    0.00000000
                                                     2        0.2000000       -1.25772850    0.00000000
                                                     2        0.2600000        1.01188378    0.00000000
                                                     2        0.4000000       -1.09380874    0.00000000
                                                     2        0.5000000        0.96944888    0.00000000
                                                     2        1.0000000       -0.79256938    0.00000000
                                                     2        3.0000000        1.06443276    0.00000000
                                      S - G
                                                     0        0.0000010       -0.00635295    0.00000000
                                                     2        0.1200000        0.16918955    0.00000000
                                                     2        0.1600000       -0.38862576    0.00000000
                                                     2        0.2800000        0.25638263    0.00000000
                                                     2        0.5000000        0.29628419    0.00000000
                                                     2        0.9000000       -0.28791512    0.00000000
                                      P - G
                                                     0        0.0000010       -0.04756931    0.00000000
                                                     2        0.1200000        0.28430375    0.00000000
                                                     2        0.1600000       -0.69640032    0.00000000
                                                     2        0.2600000        1.13005668    0.00000000
                                                     2        0.4000000       -1.31433324    0.00000000
                                                     2        0.7000000        0.91526469    0.00000000
                                      D - G
                                                     0        0.0000010       -0.11496411    0.00000000
                                                     2        0.1200000        0.16620776    0.00000000
                                                     2        0.1800000       -0.30959819    0.00000000
                                                     2        0.3000000        0.16621458    0.00000000
                                                     2        0.6000000        0.27350556    0.00000000
                                      F - G
                                                     0        0.0000010        0.12037550    0.00000000
                                                     2        0.1200000       -0.48737077    0.00000000
                                                     2        0.1400000        0.58315350    0.00000000
                                                     2        0.3000000        0.00005188    0.00000000
                                                     2        0.5000000       -1.16063549    0.00000000
                                                     2        0.8000000        2.09053308    0.00000000
    2          1            1
                                      F and up 
                                                     0        0.0000010       -0.00007675    0.00000000
                                                     2        0.1200000        0.05352699    0.00000000
                                                     2        0.1400000       -0.25123645    0.00000000
                                                     2        0.1600000        0.32188106    0.00000000
                                                     2        0.2200000       -0.25206857    0.00000000
                                                     2        0.3000000        0.19290477    0.00000000
                                                     2        0.5000000       -0.10129770    0.00000000
                                                     2        0.9000000        0.00314995    0.00000000
                                                     2        1.5000000        0.18401192    0.00000000
                                      S - F
                                                     0        0.0000010        0.08065976    0.00000000
                                                     2        0.1200000       -0.09231673    0.00000000
                                                     2        0.1600000       -0.03278082    0.00000000
                                                     2        0.2800000        0.38423402    0.00000000
                                                     2        0.6000000       -1.09357590    0.00000000
                                                     2        1.1000000        1.53099489    0.00000000
                                                     2        3.0000000       -2.63300202    0.00000000
                                      P - F
                                                     0        0.0000010       -0.11638665    0.00000000
                                                     2        0.1200000        0.35468655    0.00000000
                                                     2        0.1600000       -0.59160923    0.00000000
                                                     2        0.3000000        0.49390547    0.00000000
                                                     2        0.6000000       -0.37949835    0.00000000
                                                     2        1.6000000        0.89304688    0.00000000
                                      D - F
                                                     0        0.0000010        0.05443663    0.00000000
                                                     2        0.1200000       -0.29679479    0.00000000
                                                     2        0.1400000        0.36849872    0.00000000
                                                     2        0.2400000        0.02793449    0.00000000
                                                     2        0.4000000       -0.46312857    0.00000000
                                                     2        0.7000000        0.97587598    0.00000000
                                                     2        1.5000000       -2.43431102    0.00000000
    3          5            5
                                      G and up 
                                                     0        0.0000010        0.00020763    0.00000000
                                                     2        0.1200000        0.03067755    0.00000000
                                                     2        0.1400000       -0.06903562    0.00000000
                                                     2        0.2200000        0.20686977    0.00000000
                                                     2        0.2800000       -0.28012699    0.00000000
                                                     2        0.4000000        0.15289287    0.00000000
                                                     2        0.9000000        0.23777548    0.00000000
                                      S - G
                                                     0        0.0000010       -0.01460145    0.00000000
                                                     2        0.1200000        0.61520407    0.00000000
                                                     2        0.1600000       -1.40324983    0.00000000
                                                     2        0.2600000        1.13743336    0.00000000
                                                     2        0.7000000       -0.82121849    0.00000000
                                                     2        3.0000000        1.14340087    0.00000000
                                      P - G
                                                     0        0.0000010       -0.15206468    0.00000000
                                                     2        0.1200000        0.05342385    0.00000000
                                                     2        0.1800000       -0.02150831    0.00000000
                                                     2        0.4000000       -0.11023892    0.00000000
                                                     2        1.0000000        0.38415171    0.00000000
                                      D - G
                                                     0        0.0000010        0.03877889    0.00000000
                                                     2        0.1200000        0.15497678    0.00000000
                                                     2        0.2000000       -0.61843740    0.00000000
                                                     2        0.4000000        1.25619759    0.00000000
                                                     2        0.8000000       -1.68748014    0.00000000
                                      F - G
                                                     0        0.0000010        0.04196027    0.00000000
                                                     2        0.1200000       -0.20480821    0.00000000
                                                     2        0.1600000        0.27131339    0.00000000
                                                     2        0.2400000        0.24945984    0.00000000
                                                     2        0.5000000       -1.37105438    0.00000000
    4          6            6
                                      G and up 
                                                     0        0.0000010       -0.00007288    0.00000000
                                                     2        0.1200000        0.10466671    0.00000000
                                                     2        0.1400000       -0.65716157    0.00000000
                                                     2        0.1600000        1.18890794    0.00000000
                                                     2        0.2000000       -1.25772850    0.00000000
                                                     2        0.2600000        1.01188378    0.00000000
                                                     2        0.4000000       -1.09380874    0.00000000
                                                     2        0.5000000        0.96944888    0.00000000
                                                     2        1.0000000       -0.79256938    0.00000000
                                                     2        3.0000000        1.06443276    0.00000000
                                      S - G
                                                     0        0.0000010       -0.00635295    0.00000000
                                                     2        0.1200000        0.16918955    0.00000000
                                                     2        0.1600000       -0.38862576    0.00000000
                                                     2        0.2800000        0.25638263    0.00000000
                                                     2        0.5000000        0.29628419    0.00000000
                                                     2        0.9000000       -0.28791512    0.00000000
                                      P - G
                                                     0        0.0000010       -0.04756931    0.00000000
                                                     2        0.1200000        0.28430375    0.00000000
                                                     2        0.1600000       -0.69640032    0.00000000
                                                     2        0.2600000        1.13005668    0.00000000
                                                     2        0.4000000       -1.31433324    0.00000000
                                                     2        0.7000000        0.91526469    0.00000000
                                      D - G
                                                     0        0.0000010       -0.11496411    0.00000000
                                                     2        0.1200000        0.16620776    0.00000000
                                                     2        0.1800000       -0.30959819    0.00000000
                                                     2        0.3000000        0.16621458    0.00000000
                                                     2        0.6000000        0.27350556    0.00000000
                                      F - G
                                                     0        0.0000010        0.12037550    0.00000000
                                                     2        0.1200000       -0.48737077    0.00000000
                                                     2        0.1400000        0.58315350    0.00000000
                                                     2        0.3000000        0.00005188    0.00000000
                                                     2        0.5000000       -1.16063549    0.00000000
                                                     2        0.8000000        2.09053308    0.00000000
    5          1            1
                                      F and up 
                                                     0        0.0000010       -0.00007675    0.00000000
                                                     2        0.1200000        0.05352699    0.00000000
                                                     2        0.1400000       -0.25123645    0.00000000
                                                     2        0.1600000        0.32188106    0.00000000
                                                     2        0.2200000       -0.25206857    0.00000000
                                                     2        0.3000000        0.19290477    0.00000000
                                                     2        0.5000000       -0.10129770    0.00000000
                                                     2        0.9000000        0.00314995    0.00000000
                                                     2        1.5000000        0.18401192    0.00000000
                                      S - F
                                                     0        0.0000010        0.08065976    0.00000000
                                                     2        0.1200000       -0.09231673    0.00000000
                                                     2        0.1600000       -0.03278082    0.00000000
                                                     2        0.2800000        0.38423402    0.00000000
                                                     2        0.6000000       -1.09357590    0.00000000
                                                     2        1.1000000        1.53099489    0.00000000
                                                     2        3.0000000       -2.63300202    0.00000000
                                      P - F
                                                     0        0.0000010       -0.11638665    0.00000000
                                                     2        0.1200000        0.35468655    0.00000000
                                                     2        0.1600000       -0.59160923    0.00000000
                                                     2        0.3000000        0.49390547    0.00000000
                                                     2        0.6000000       -0.37949835    0.00000000
                                                     2        1.6000000        0.89304688    0.00000000
                                      D - F
                                                     0        0.0000010        0.05443663    0.00000000
                                                     2        0.1200000       -0.29679479    0.00000000
                                                     2        0.1400000        0.36849872    0.00000000
                                                     2        0.2400000        0.02793449    0.00000000
                                                     2        0.4000000       -0.46312857    0.00000000
                                                     2        0.7000000        0.97587598    0.00000000
                                                     2        1.5000000       -2.43431102    0.00000000
    6          1            1
                                      F and up 
                                                     0        0.0000010       -0.00007675    0.00000000
                                                     2        0.1200000        0.05352699    0.00000000
                                                     2        0.1400000       -0.25123645    0.00000000
                                                     2        0.1600000        0.32188106    0.00000000
                                                     2        0.2200000       -0.25206857    0.00000000
                                                     2        0.3000000        0.19290477    0.00000000
                                                     2        0.5000000       -0.10129770    0.00000000
                                                     2        0.9000000        0.00314995    0.00000000
                                                     2        1.5000000        0.18401192    0.00000000
                                      S - F
                                                     0        0.0000010        0.08065976    0.00000000
                                                     2        0.1200000       -0.09231673    0.00000000
                                                     2        0.1600000       -0.03278082    0.00000000
                                                     2        0.2800000        0.38423402    0.00000000
                                                     2        0.6000000       -1.09357590    0.00000000
                                                     2        1.1000000        1.53099489    0.00000000
[...]
                                                     2        1.5000000       -2.43431102    0.00000000
   37          1            1
                                      F and up 
                                                     0        0.0000010       -0.00007675    0.00000000
                                                     2        0.1200000        0.05352699    0.00000000
                                                     2        0.1400000       -0.25123645    0.00000000
                                                     2        0.1600000        0.32188106    0.00000000
                                                     2        0.2200000       -0.25206857    0.00000000
                                                     2        0.3000000        0.19290477    0.00000000
                                                     2        0.5000000       -0.10129770    0.00000000
                                                     2        0.9000000        0.00314995    0.00000000
                                                     2        1.5000000        0.18401192    0.00000000
                                      S - F
                                                     0        0.0000010        0.08065976    0.00000000
                                                     2        0.1200000       -0.09231673    0.00000000
                                                     2        0.1600000       -0.03278082    0.00000000
                                                     2        0.2800000        0.38423402    0.00000000
                                                     2        0.6000000       -1.09357590    0.00000000
                                                     2        1.1000000        1.53099489    0.00000000
                                                     2        3.0000000       -2.63300202    0.00000000
                                      P - F
                                                     0        0.0000010       -0.11638665    0.00000000
                                                     2        0.1200000        0.35468655    0.00000000
                                                     2        0.1600000       -0.59160923    0.00000000
                                                     2        0.3000000        0.49390547    0.00000000
                                                     2        0.6000000       -0.37949835    0.00000000
                                                     2        1.6000000        0.89304688    0.00000000
                                      D - F
                                                     0        0.0000010        0.05443663    0.00000000
                                                     2        0.1200000       -0.29679479    0.00000000
                                                     2        0.1400000        0.36849872    0.00000000
                                                     2        0.2400000        0.02793449    0.00000000
                                                     2        0.4000000       -0.46312857    0.00000000
                                                     2        0.7000000        0.97587598    0.00000000
                                                     2        1.5000000       -2.43431102    0.00000000
 ======================================================================================================
   557 basis functions,   919 primitive gaussians,   589 cartesian basis functions
    60 alpha electrons       60 beta electrons
       nuclear repulsion energy      1195.4104666666 Hartrees.
 NAtoms=   37 NActive=   37 NUniq=   37 SFac= 1.00D+00 NAtFMM=   60 NAOKFM=F Big=F
   1 Symmetry operations used in ECPInt.
 ECPInt:  NShTT=   31125 NPrTT=  133653 LenC2=   30854 LenP2D=   96329.
 LDataN:  DoStor=T MaxTD1= 6 Len=  172
 Initial guess from the checkpoint file:  "BH10_284_forward_mol1.chk"
 B after Tr=    -0.000000    0.000000   -0.000000
         Rot=    1.000000   -0.000000   -0.000000    0.000000 Ang=   0.00 deg.
 >>>>>>>>>> Convergence criterion not met.
 SCF Done:  E(RHF) =  -679.670811206     A.U. after    2 cycles
            NFock=  1  Conv=0.31D-01     -V/T= 2.0010

 **********************************************************************

            Population analysis using the SCF Density.

 **********************************************************************

 Orbital symmetries:
       Occupied  (A) (A) (A) (A) (A) (A) (A) (A) (A) (A) (A) (A)
                 (A) (A) (A) (A) (A) (A) (A) (A) (A) (A) (A) (A)
                 (A) (A) (A) (A) (A) (A) (A) (A) (A) (A) (A) (A)
                 (A) (A) (A) (A) (A) (A) (A) (A) (A) (A) (A) (A)
                 (A) (A) (A) (A) (A) (A) (A) (A) (A) (A) (A) (A)
       Virtual   (A) (A) (A) (A) (A) (A) (A) (A) (A) (A) (A) (A)
                 (A) (A) (A) (A) (A) (A) (A) (A) (A) (A) (A) (A)
                 (A) (A) (A) (A) (A) (A) (A) (A) (A) (A) (A) (A)
                 (A) (A) (A) (A) (A) (A) (A) (A) (A) (A) (A) (A)
                 (A) (A) (A) (A) (A) (A) (A) (A) (A) (A) (A) (A)
                 (A) (A) (A) (A) (A) (A) (A) (A) (A) (A) (A) (A)
                 (A) (A) (A) (A) (A) (A) (A) (A) (A) (A) (A) (A)
                 (A) (A) (A) (A) (A) (A) (A) (A) (A) (A) (A) (A)
                 (A) (A) (A) (A) (A) (A) (A) (A) (A) (A) (A) (A)
                 (A) (A) (A) (A) (A) (A) (A) (A) (A) (A) (A) (A)
                 (A) (A) (A) (A) (A) (A) (A) (A) (A) (A) (A) (A)
                 (A) (A) (A) (A) (A) (A) (A) (A) (A) (A) (A) (A)
                 (A) (A) (A) (A) (A) (A) (A) (A) (A) (A) (A) (A)
                 (A) (A) (A) (A) (A) (A) (A) (A) (A) (A) (A) (A)
                 (A) (A) (A) (A) (A) (A) (A) (A) (A) (A) (A) (A)
                 (A) (A) (A) (A) (A) (A) (A) (A) (A) (A) (A) (A)
                 (A) (A) (A) (A) (A) (A) (A) (A) (A) (A) (A) (A)
                 (A) (A) (A) (A) (A) (A) (A) (A) (A) (A) (A) (A)
                 (A) (A) (A) (A) (A) (A) (A) (A) (A) (A) (A) (A)
                 (A) (A) (A) (A) (A) (A) (A) (A) (A) (A) (A) (A)
                 (A) (A) (A) (A) (A) (A) (A) (A) (A) (A) (A) (A)
                 (A) (A) (A) (A) (A) (A) (A) (A) (A) (A) (A) (A)
                 (A) (A) (A) (A) (A) (A) (A) (A) (A) (A) (A) (A)
                 (A) (A) (A) (A) (A) (A) (A) (A) (A) (A) (A) (A)
                 (A) (A) (A) (A) (A) (A) (A) (A) (A) (A) (A) (A)
                 (A) (A) (A) (A) (A) (A) (A) (A) (A) (A) (A) (A)
                 (A) (A) (A) (A) (A) (A) (A) (A) (A) (A) (A) (A)
                 (A) (A) (A) (A) (A) (A) (A) (A) (A) (A) (A) (A)
                 (A) (A) (A) (A) (A) (A) (A) (A) (A) (A) (A) (A)
                 (A) (A) (A) (A) (A) (A) (A) (A) (A) (A) (A) (A)
                 (A) (A) (A) (A) (A) (A) (A) (A) (A) (A) (A) (A)
                 (A) (A) (A) (A) (A) (A) (A) (A) (A) (A) (A) (A)
                 (A) (A) (A) (A) (A) (A) (A) (A) (A) (A) (A) (A)
                 (A) (A) (A) (A) (A) (A) (A) (A) (A) (A) (A) (A)
                 (A) (A) (A) (A) (A) (A) (A) (A) (A) (A) (A) (A)
                 (A) (A) (A) (A) (A) (A) (A) (A) (A) (A) (A) (A)
                 (A) (A) (A) (A) (A) (A) (A) (A) (A) (A) (A) (A)
                 (A) (A) (A) (A) (A) (A) (A) (A) (A) (A) (A) (A)
                 (A) (A) (A) (A) (A) (A) (A) (A) (A) (A) (A) (A)
                 (A) (A) (A) (A) (A) (A) (A) (A) (A) (A) (A) (A)
                 (A) (A) (A) (A) (A) (A) (A) (A) (A) (A) (A) (A)
                 (A) (A) (A) (A) (A)
 The electronic state is 1-A.
 Alpha  occ. eigenvalues --  -20.61565 -20.57490 -11.41270 -11.31372 -11.25088
 Alpha  occ. eigenvalues --  -11.23814 -11.22082 -11.21793 -11.21531 -11.21382
 Alpha  occ. eigenvalues --  -11.21306 -11.20975 -11.20860 -11.19282 -11.18886
 Alpha  occ. eigenvalues --   -7.60445  -1.57988  -1.49496  -1.11163  -1.09950
 Alpha  occ. eigenvalues --   -1.03213  -1.02678  -1.01846  -0.96005  -0.92581
 Alpha  occ. eigenvalues --   -0.90432  -0.82822  -0.79262  -0.78627  -0.77609
 Alpha  occ. eigenvalues --   -0.74849  -0.74160  -0.70887  -0.70423  -0.66856
 Alpha  occ. eigenvalues --   -0.64409  -0.62835  -0.62621  -0.61368  -0.59375
 Alpha  occ. eigenvalues --   -0.58476  -0.57984  -0.57582  -0.56273  -0.54518
 Alpha  occ. eigenvalues --   -0.54045  -0.53306  -0.51312  -0.50649  -0.50101
 Alpha  occ. eigenvalues --   -0.49917  -0.48013  -0.47189  -0.46292  -0.45593
 Alpha  occ. eigenvalues --   -0.44056  -0.41805  -0.41248  -0.37818  -0.31298
 Alpha virt. eigenvalues --    0.02591   0.02899   0.03315   0.03611   0.04725
 Alpha virt. eigenvalues --    0.04764   0.04904   0.05037   0.05546   0.07071
 Alpha virt. eigenvalues --    0.07431   0.07600   0.07879   0.08199   0.08355
 Alpha virt. eigenvalues --    0.08717   0.09698   0.10042   0.10468   0.10632
 Alpha virt. eigenvalues --    0.11006   0.11579   0.11851   0.12478   0.12684
 Alpha virt. eigenvalues --    0.12847   0.13882   0.14210   0.14555   0.14844
 Alpha virt. eigenvalues --    0.15264   0.15370   0.15801   0.16011   0.16324
 Alpha virt. eigenvalues --    0.16643   0.16873   0.17195   0.17305   0.17811
 Alpha virt. eigenvalues --    0.18036   0.18130   0.18407   0.18849   0.19056
 Alpha virt. eigenvalues --    0.19546   0.19795   0.20004   0.20187   0.20730
 Alpha virt. eigenvalues --    0.21039   0.21395   0.21946   0.22096   0.22322
 Alpha virt. eigenvalues --    0.22446   0.22858   0.23296   0.23736   0.23863
 Alpha virt. eigenvalues --    0.24293   0.24790   0.25426   0.25556   0.25782
 Alpha virt. eigenvalues --    0.26374   0.26608   0.26907   0.27554   0.27861
 Alpha virt. eigenvalues --    0.28282   0.29171   0.30196   0.30442   0.30798
 Alpha virt. eigenvalues --    0.31141   0.31434   0.31855   0.32964   0.33422
 Alpha virt. eigenvalues --    0.33744   0.34520   0.34892   0.35599   0.35637
 Alpha virt. eigenvalues --    0.36159   0.36499   0.37049   0.37374   0.37620
 Alpha virt. eigenvalues --    0.37917   0.38767   0.38835   0.39422   0.39738
 Alpha virt. eigenvalues --    0.40044   0.40216   0.40801   0.41216   0.41844
 Alpha virt. eigenvalues --    0.42274   0.42456   0.43053   0.43193   0.43604
 Alpha virt. eigenvalues --    0.43939   0.44398   0.44679   0.44983   0.45433
 Alpha virt. eigenvalues --    0.45637   0.45900   0.46039   0.46758   0.46905
 Alpha virt. eigenvalues --    0.47250   0.47374   0.48115   0.48462   0.49100
 Alpha virt. eigenvalues --    0.49315   0.50431   0.50524   0.50934   0.51489
 Alpha virt. eigenvalues --    0.51966   0.52066   0.52446   0.53806   0.54092
 Alpha virt. eigenvalues --    0.54375   0.55048   0.55057   0.55336   0.55698
 Alpha virt. eigenvalues --    0.56360   0.56595   0.57101   0.57814   0.57969
 Alpha virt. eigenvalues --    0.58353   0.58807   0.59361   0.59571   0.60008
 Alpha virt. eigenvalues --    0.60777   0.61109   0.61434   0.62044   0.62300
 Alpha virt. eigenvalues --    0.62831   0.63432   0.63848   0.64230   0.64417
 Alpha virt. eigenvalues --    0.64843   0.65493   0.65825   0.66286   0.66520
 Alpha virt. eigenvalues --    0.67128   0.67434   0.68075   0.68577   0.68696
 Alpha virt. eigenvalues --    0.69279   0.69520   0.70173   0.70662   0.71149
 Alpha virt. eigenvalues --    0.71524   0.72052   0.72723   0.73159   0.73694
 Alpha virt. eigenvalues --    0.73897   0.74241   0.74530   0.75207   0.75751
 Alpha virt. eigenvalues --    0.76152   0.76483   0.76505   0.77036   0.77483
 Alpha virt. eigenvalues --    0.77930   0.78025   0.78508   0.79206   0.80219
 Alpha virt. eigenvalues --    0.80524   0.81094   0.81350   0.81564   0.82125
 Alpha virt. eigenvalues --    0.82316   0.83056   0.83279   0.83888   0.84077
 Alpha virt. eigenvalues --    0.84761   0.84924   0.85208   0.85451   0.86940
 Alpha virt. eigenvalues --    0.87195   0.88087   0.88668   0.88773   0.89319
 Alpha virt. eigenvalues --    0.89846   0.90247   0.90448   0.90824   0.91434
 Alpha virt. eigenvalues --    0.91998   0.92797   0.93012   0.93544   0.93760
 Alpha virt. eigenvalues --    0.94357   0.94655   0.95360   0.95707   0.96493
 Alpha virt. eigenvalues --    0.96747   0.97076   0.97620   0.97892   0.98328
 Alpha virt. eigenvalues --    0.98723   0.99243   0.99718   1.00706   1.01338
 Alpha virt. eigenvalues --    1.01995   1.02624   1.03236   1.03738   1.04148
 Alpha virt. eigenvalues --    1.04273   1.04688   1.05348   1.05880   1.07383
 Alpha virt. eigenvalues --    1.07959   1.08663   1.09298   1.11004   1.11312
 Alpha virt. eigenvalues --    1.11994   1.12293   1.12973   1.13904   1.14310
 Alpha virt. eigenvalues --    1.15164   1.16176   1.16407   1.17747   1.18234
 Alpha virt. eigenvalues --    1.19683   1.20166   1.21970   1.22886   1.23242
 Alpha virt. eigenvalues --    1.25211   1.26307   1.26516   1.29025   1.29207
 Alpha virt. eigenvalues --    1.29245   1.31087   1.31605   1.32719   1.33747
 Alpha virt. eigenvalues --    1.34210   1.35741   1.37120   1.38329   1.39575
 Alpha virt. eigenvalues --    1.41224   1.41624   1.43173   1.44014   1.44858
 Alpha virt. eigenvalues --    1.45878   1.46356   1.47227   1.47784   1.48851
 Alpha virt. eigenvalues --    1.49425   1.50315   1.51026   1.52262   1.53593
 Alpha virt. eigenvalues --    1.54719   1.55031   1.57253   1.57994   1.59257
 Alpha virt. eigenvalues --    1.59909   1.60319   1.61140   1.63034   1.65014
 Alpha virt. eigenvalues --    1.65187   1.66042   1.67010   1.68396   1.70598
 Alpha virt. eigenvalues --    1.71515   1.71919   1.72514   1.74003   1.74534
 Alpha virt. eigenvalues --    1.75112   1.76128   1.76422   1.78349   1.78869
 Alpha virt. eigenvalues --    1.79581   1.80405   1.81814   1.82648   1.83163
 Alpha virt. eigenvalues --    1.83343   1.84567   1.86073   1.86696   1.87012
 Alpha virt. eigenvalues --    1.89394   1.89763   1.90370   1.91098   1.91653
 Alpha virt. eigenvalues --    1.93210   1.93614   1.94543   1.96026   1.96332
 Alpha virt. eigenvalues --    1.96354   1.97572   1.98560   1.99435   2.00388
 Alpha virt. eigenvalues --    2.01220   2.01917   2.02721   2.03763   2.05218
 Alpha virt. eigenvalues --    2.06199   2.06820   2.07847   2.08858   2.09932
 Alpha virt. eigenvalues --    2.10795   2.12214   2.12741   2.14130   2.15878
 Alpha virt. eigenvalues --    2.16051   2.16980   2.17667   2.18371   2.19297
 Alpha virt. eigenvalues --    2.20647   2.21672   2.21741   2.22289   2.23546
 Alpha virt. eigenvalues --    2.23871   2.24859   2.25460   2.25597   2.26783
 Alpha virt. eigenvalues --    2.27554   2.27967   2.28850   2.30911   2.31245
 Alpha virt. eigenvalues --    2.32121   2.32772   2.33223   2.33795   2.35324
 Alpha virt. eigenvalues --    2.35430   2.36354   2.36762   2.37602   2.37992
 Alpha virt. eigenvalues --    2.38389   2.39117   2.40095   2.40885   2.41556
 Alpha virt. eigenvalues --    2.41781   2.43360   2.43518   2.45449   2.45819
 Alpha virt. eigenvalues --    2.46532   2.47466   2.47955   2.49136   2.49577
 Alpha virt. eigenvalues --    2.49877   2.52236   2.52741   2.53199   2.55359
 Alpha virt. eigenvalues --    2.56583   2.57512   2.59369   2.60859   2.61019
 Alpha virt. eigenvalues --    2.61625   2.61935   2.64375   2.65358   2.65964
 Alpha virt. eigenvalues --    2.67248   2.67554   2.69198   2.69513   2.70460
 Alpha virt. eigenvalues --    2.72640   2.73773   2.74753   2.75835   2.76812
 Alpha virt. eigenvalues --    2.78638   2.79680   2.80168   2.80932   2.81957
 Alpha virt. eigenvalues --    2.82334   2.84331   2.85389   2.85972   2.87105
 Alpha virt. eigenvalues --    2.87817   2.88456   2.90361   2.92435   2.92856
 Alpha virt. eigenvalues --    2.93485   2.96543   2.97335   2.99138   3.01867
 Alpha virt. eigenvalues --    3.03550   3.04544   3.06628   3.08847   3.10329
 Alpha virt. eigenvalues --    3.10919   3.12390   3.13004   3.13763   3.16711
 Alpha virt. eigenvalues --    3.19520   3.21699   3.23076   3.25825   3.27914
 Alpha virt. eigenvalues --    3.30109   3.30519   3.32943   3.35940   3.37170
 Alpha virt. eigenvalues --    3.38835   3.39732   3.41727   3.44348   3.49681
 Alpha virt. eigenvalues --    3.50324   3.57523   3.60430   3.67910   3.76911
 Alpha virt. eigenvalues --    3.80249   3.91057   3.93937   3.96720   3.99865
 Alpha virt. eigenvalues --    4.03877   4.10396   4.12438   4.17472   4.20254
 Alpha virt. eigenvalues --    4.24690   4.29441   4.35372   4.44210   4.49856
 Alpha virt. eigenvalues --    4.93547   5.07900
          Condensed to atoms (all electrons):
 Mulliken charges:
               1
     1  C   -0.456060
     2  H   -0.163979
     3  B    3.066190
     4  C   -0.210707
     5  H    0.161380
     6  H    0.066433
     7  C   -0.434810
     8  H    0.099263
     9  C   -0.065357
    10  H   -0.175582
    11  H   -0.192716
    12  C    0.484095
    13  C    0.164171
    14  H   -0.274118
    15  H    0.056654
    16  H   -0.397436
    17  C    2.419964
    18  O   -2.035392
    19  O   -1.774671
    20  C    0.087716
    21  H    0.127490
    22  H    0.170454
    23  H    0.006055
    24  C   -0.271730
    25  H    0.059921
    26  H    0.218018
    27  C   -0.474958
    28  H   -0.107120
    29  C   -0.277693
    30  H    0.170333
    31  H    0.041139
    32  C   -0.276804
    33  H    0.070116
    34  H    0.169403
    35  C   -0.308808
    36  H    0.058813
    37  H    0.200333
 Sum of Mulliken charges =   0.00000
 Mulliken charges with hydrogens summed into heavy atoms:
               1
     1  C   -0.620038
     3  B    3.066190
     4  C    0.017105
     7  C   -0.278893
     9  C   -0.433655
    12  C    0.209977
    13  C   -0.233265
    17  C    2.419964
    18  O   -2.035392
    19  O   -1.774671
    20  C    0.391715
    24  C    0.006209
    27  C   -0.582077
    29  C   -0.066221
    32  C   -0.037285
    35  C   -0.049662
 Electronic spatial extent (au):  <R**2>=           3367.3654
 Charge=              0.0000 electrons
 Dipole moment (field-independent basis, Debye):
    X=              1.4439    Y=             -1.9087    Z=              0.2853  Tot=              2.4103

 Test job not archived.
 1\1\GINC-SE024\SP\RHF\Aug-CC-pVDZ\C13H21B1O2\OHZDE\09-Apr-2025\0\\#t h
 f aug-cc-pvdz iop(5/13=1,5/36=2,99/5=2) pseudo=read geom=check guess=(
 read,tcheck) scf=(maxcycle=1)\\title\\0,1\C,0,-0.569558,-0.961519,0.91
 6453\H,0,0.19554,-1.499377,1.489716\B,0,0.03256,-0.063096,-0.236416\C,
 0,-1.326339,-0.058512,1.908381\H,0,-0.580697,0.549949,2.432772\H,0,-1.
 81739,-0.667349,2.676227\C,0,-1.445843,-2.025285,0.213301\H,0,-0.77487
 3,-2.700462,-0.330927\C,0,1.537713,3.462684,-0.063551\H,0,1.62471,3.70
 5414,0.989806\H,0,1.446426,4.288715,-0.756398\C,0,1.541231,2.204636,-0
 .493626\C,0,1.683992,1.035997,0.378368\H,0,1.45101,2.004329,-1.555358\
 H,0,-1.960818,-2.643093,0.957879\H,0,2.024649,1.226122,1.390766\C,0,1.
 977113,-0.224356,-0.127393\O,0,1.171341,-0.679548,-1.050102\O,0,2.8319
 62,-1.036401,0.455054\C,0,2.786306,-2.429034,0.098079\H,0,1.785854,-2.
 828359,0.254856\H,0,3.076717,-2.560454,-0.942749\H,0,3.501086,-2.91399
 2,0.756507\C,0,-2.475532,-1.465695,-0.781617\H,0,-2.845728,-2.287226,-
 1.402493\H,0,-3.346364,-1.096597,-0.240951\C,0,-1.091532,0.733077,-0.9
 93187\H,0,-0.704726,1.39032,-1.775719\C,0,-1.930875,-0.36061,-1.699851
 \H,0,-1.29744,-0.821568,-2.466229\H,0,-2.765814,0.104581,-2.235712\C,0
 ,-1.876017,1.601857,0.007688\H,0,-2.735151,2.064407,-0.491544\H,0,-1.2
 20031,2.425042,0.306837\C,0,-2.363369,0.878844,1.273138\H,0,-2.656414,
 1.629553,2.013467\H,0,-3.273506,0.320613,1.054623\\Version=ES64L-G16Re
 vC.01\State=1-A\HF=-679.6708112\RMSD=3.061e-02\Dipole=0.5680717,-0.750
 936,0.1122406\Quadrupole=-0.7217904,2.2926901,-1.5708997,-4.8366027,0.
 2693606,-0.2012766\PG=C01 [X(C13H21B1O2)]\\@


 Luck is a matter of preparation meeting opportunity.
                                    -- Oprah Winfrey
 Job cpu time:       0 days  0 hours 16 minutes 31.0 seconds.
 Elapsed time:       0 days  0 hours  1 minutes  6.4 seconds.
 File lengths (MBytes):  RWF=     42 Int=      0 D2E=      0 Chk=     38 Scr=      1
 Normal termination of Gaussian 16 at Wed Apr  9 01:22:23 2025.
