 Entering Gaussian System, Link 0=g16
 Input=BH10_159_forward_mol1.gjf
 Output=BH10_159_forward_mol1.log
 Initial command:
 /arc/software/Gaussian/g16.c01/l1.exe "/tmp/slurm/4855903/Gau-2404143.inp" -scrdir="/tmp/slurm/4855903/"
 Entering Link 1 = /arc/software/Gaussian/g16.c01/l1.exe PID=   2404144.
  
 Copyright (c) 1988-2019, Gaussian, Inc.  All Rights Reserved.
  
 This is part of the Gaussian(R) 16 program.  It is based on
 the Gaussian(R) 09 system (copyright 2009, Gaussian, Inc.),
 the Gaussian(R) 03 system (copyright 2003, Gaussian, Inc.),
 the Gaussian(R) 98 system (copyright 1998, Gaussian, Inc.),
 the Gaussian(R) 94 system (copyright 1995, Gaussian, Inc.),
 the Gaussian 92(TM) system (copyright 1992, Gaussian, Inc.),
 the Gaussian 90(TM) system (copyright 1990, Gaussian, Inc.),
 the Gaussian 88(TM) system (copyright 1988, Gaussian, Inc.),
 the Gaussian 86(TM) system (copyright 1986, Carnegie Mellon
 University), and the Gaussian 82(TM) system (copyright 1983,
 Carnegie Mellon University). Gaussian is a federally registered
 trademark of Gaussian, Inc.
  
 This software contains proprietary and confidential information,
 including trade secrets, belonging to Gaussian, Inc.
  
 This software is provided under written license and may be
 used, copied, transmitted, or stored only in accord with that
 written license.
  
 The following legend is applicable only to US Government
 contracts under FAR:
  
                    RESTRICTED RIGHTS LEGEND
  
 Use, reproduction and disclosure by the US Government is
 subject to restrictions as set forth in subparagraphs (a)
 and (c) of the Commercial Computer Software - Restricted
 Rights clause in FAR 52.227-19.
  
 Gaussian, Inc.
 340 Quinnipiac St., Bldg. 40, Wallingford CT 06492
  
  
 ---------------------------------------------------------------
 Warning -- This program may not be used in any manner that
 competes with the business of Gaussian, Inc. or will provide
 assistance to any competitor of Gaussian, Inc.  The licensee
 of this program is prohibited from giving any competitor of
 Gaussian, Inc. access to this program.  By using this program,
 the user acknowledges that Gaussian, Inc. is engaged in the
 business of creating and licensing software in the field of
 computational chemistry and represents and warrants to the
 licensee that it is not a competitor of Gaussian, Inc. and that
 it will not use this program in any manner prohibited above.
 ---------------------------------------------------------------
  

 Cite this work as:
 Gaussian 16, Revision C.01,
 M. J. Frisch, G. W. Trucks, H. B. Schlegel, G. E. Scuseria, 
 M. A. Robb, J. R. Cheeseman, G. Scalmani, V. Barone, 
 G. A. Petersson, H. Nakatsuji, X. Li, M. Caricato, A. V. Marenich, 
 J. Bloino, B. G. Janesko, R. Gomperts, B. Mennucci, H. P. Hratchian, 
 J. V. Ortiz, A. F. Izmaylov, J. L. Sonnenberg, D. Williams-Young, 
 F. Ding, F. Lipparini, F. Egidi, J. Goings, B. Peng, A. Petrone, 
 T. Henderson, D. Ranasinghe, V. G. Zakrzewski, J. Gao, N. Rega, 
 G. Zheng, W. Liang, M. Hada, M. Ehara, K. Toyota, R. Fukuda, 
 J. Hasegawa, M. Ishida, T. Nakajima, Y. Honda, O. Kitao, H. Nakai, 
 T. Vreven, K. Throssell, J. A. Montgomery, Jr., J. E. Peralta, 
 F. Ogliaro, M. J. Bearpark, J. J. Heyd, E. N. Brothers, K. N. Kudin, 
 V. N. Staroverov, T. A. Keith, R. Kobayashi, J. Normand, 
 K. Raghavachari, A. P. Rendell, J. C. Burant, S. S. Iyengar, 
 J. Tomasi, M. Cossi, J. M. Millam, M. Klene, C. Adamo, R. Cammi, 
 J. W. Ochterski, R. L. Martin, K. Morokuma, O. Farkas, 
 J. B. Foresman, and D. J. Fox, Gaussian, Inc., Wallingford CT, 2019.
 
 ******************************************
 Gaussian 16:  ES64L-G16RevC.01  3-Jul-2019
                 9-Apr-2025 
 ******************************************
 %nprocs=16
 Will use up to   16 processors via shared memory.
 %mem=30GB
 %chk=BH10_159_forward_mol1.chk
 ----------------------------------------------------------------------
 #t hf aug-cc-pvdz symm=none int=(grid=ultrafine) guess=(read,tcheck) s
 table=opt
 ----------------------------------------------------------------------
 -----
 title
 -----
 Symbolic Z-matrix:
 Charge =  0 Multiplicity = 2
 H                     0.63135   0.69762  -0.23787 
 C                     0.84717  -1.52259  -0.22731 
 H                     0.42901  -2.46003   0.15336 
 C                     2.90706  -0.03225  -0.15963 
 H                     3.81742   0.18303   0.40091 
 H                     1.06555  -1.6834   -1.2871 
 H                     3.19864  -0.31763  -1.17254 
 C                     2.14761  -1.17851   0.50286 
 H                     2.78975  -2.06384   0.50747 
 H                     1.9372   -0.92923   1.54634 
 C                    -0.1965   -0.43179  -0.11135 
 C                    -2.77319   0.30486  -0.45398 
 C                    -2.22424   0.89531   0.83408 
 H                    -3.29652   1.05779  -1.04297 
 H                    -3.45038  -0.52243  -0.24416 
 H                    -1.75717   1.86557   0.66114 
 H                    -3.00359   1.00659   1.58776 
 S                    -1.37593  -0.32781  -1.44859 
 S                    -0.97549  -0.25516   1.47638 
 S                     1.93837   1.51771  -0.22656 
 
                    Distance matrix (angstroms):
                    1          2          3          4          5
     1  H    0.000000
     2  C    2.230702   0.000000
     3  H    3.188222   1.094785   0.000000
     4  C    2.391172   2.543398   3.483217   0.000000
     5  H    3.289966   3.482274   4.304458   1.090549   0.000000
     6  H    2.637930   1.093933   1.755917   2.718207   3.729037
     7  H    2.914668   2.806205   3.744153   1.091991   1.763319
     8  C    2.523407   1.530589   2.172101   1.526291   2.156955
     9  H    3.583281   2.146275   2.419803   2.141526   2.473035
    10  H    2.745052   2.164739   2.560927   2.157672   2.466657
    11  C    1.406033   1.514110   2.138942   3.129550   4.092919
    12  C    3.433929   4.061762   4.274056   5.697856   6.646940
    13  C    3.056561   4.050471   4.331442   5.308303   6.098901
    14  H    4.025678   4.949119   5.261733   6.360263   7.311507
    15  H    4.260170   4.412422   4.354534   6.376868   7.330391
    16  H    2.806668   4.364809   4.873196   5.102009   5.828785
    17  H    4.079364   4.951722   5.085044   6.250471   6.972305
    18  S    2.558613   2.803773   3.220311   4.482496   5.536464
    19  S    2.535426   2.798391   2.929917   4.219051   4.931591
    20  S    1.543032   3.230189   4.271400   1.828996   2.388707
                    6          7          8          9         10
     6  H    0.000000
     7  H    2.535448   0.000000
     8  C    2.151676   2.157017   0.000000
     9  H    2.517547   2.457406   1.093703   0.000000
    10  H    3.058905   3.059018   1.093281   1.758822   0.000000
    11  C    2.131126   3.558950   2.535683   3.458934   2.747370
    12  C    4.402634   6.047025   5.227827   6.122208   5.264220
    13  C    4.687415   5.908072   4.850098   5.831238   4.599325
    14  H    5.157654   6.640453   6.085159   7.013640   6.168030
    15  H    4.777990   6.716634   5.685587   6.471482   5.691863
    16  H    4.935444   5.717412   4.953663   6.011523   4.716233
    17  H    5.662046   6.916677   5.699692   6.645102   5.306645
    18  S    2.797235   4.582894   4.116690   4.918620   4.506450
    19  S    3.720549   4.944082   3.399120   4.288021   2.990481
    20  S    3.483336   2.419012   2.800966   3.753817   3.021706
                   11         12         13         14         15
    11  C    0.000000
    12  C    2.701735   0.000000
    13  C    2.601296   1.519571   0.000000
    14  H    3.563270   1.089812   2.167842   0.000000
    15  H    3.257843   1.089498   2.162403   1.777317   0.000000
    16  H    2.882760   2.170625   1.090625   2.434361   3.064151
    17  H    3.582686   2.171228   1.089864   2.647490   2.427637
    18  S    1.786077   1.828074   2.725114   2.402725   2.406631
    19  S    1.777323   2.696601   1.815353   3.668539   3.026012
    20  S    2.893351   4.870468   4.340462   5.318089   5.762028
                   16         17         18         19         20
    16  H    0.000000
    17  H    1.774832   0.000000
    18  S    3.067120   3.694500   0.000000
    19  S    2.402738   2.391156   2.953144   0.000000
    20  S    3.816547   5.289229   3.985447   3.812296   0.000000
 Symmetry turned off by external request.
 Rotational constants (GHZ):           1.5794462           0.6658360           0.6593158
   318 basis functions,   622 primitive gaussians,   336 cartesian basis functions
    48 alpha electrons       47 beta electrons
       nuclear repulsion energy       741.6246772717 Hartrees.
 NAtoms=   20 NActive=   20 NUniq=   20 SFac= 1.00D+00 NAtFMM=   60 NAOKFM=F Big=F
 ExpMin= 2.97D-02 ExpMax= 1.11D+05 ExpMxC= 1.07D+03 IAcc=3 IRadAn=         5 AccDes= 0.00D+00
 Harris functional with IExCor=  205 and IRadAn=       5 diagonalized for initial guess.
 HarFok:  IExCor=  205 AccDes= 0.00D+00 IRadAn=         5 IDoV= 1 UseB2=F ITyADJ=14
 ICtDFT=  3500011 ScaDFX=  1.000000  1.000000  1.000000  1.000000
 FoFCou: FMM=F IPFlag=           0 FMFlag=      100000 FMFlg1=           0
         NFxFlg=           0 DoJE=T BraDBF=F KetDBF=T FulRan=T
         wScrn=  0.000000 ICntrl=       500 IOpCl=  0 I1Cent=   200000004 NGrid=           0
         NMat0=    1 NMatS0=      1 NMatT0=    0 NMatD0=    1 NMtDS0=    0 NMtDT0=    0
 Symmetry not used in FoFCou.
 Initial guess <Sx>= 0.0000 <Sy>= 0.0000 <Sz>= 0.5000 <S**2>= 0.7500 S= 0.5000
 SCF Done:  E(UHF) =  -1426.17203727     A.U. after   20 cycles
            NFock= 20  Conv=0.87D-08     -V/T= 2.0001
 <Sx>= 0.0000 <Sy>= 0.0000 <Sz>= 0.5000 <S**2>= 0.8004 S= 0.5249
 <L.S>=  0.00000000000    
 Annihilation of the first spin contaminant:
 S**2 before annihilation     0.8004,   after     0.7513

 **********************************************************************

            Population analysis using the SCF Density.

 **********************************************************************

 Alpha  occ. eigenvalues --  -91.97153 -91.97029 -91.93412 -11.32107 -11.28700
 Alpha  occ. eigenvalues --  -11.28502 -11.25964 -11.25414 -11.24399  -8.97369
 Alpha  occ. eigenvalues --   -8.97222  -8.93595  -6.65535  -6.65426  -6.65408
 Alpha  occ. eigenvalues --   -6.65266  -6.65257  -6.65118  -6.62526  -6.61535
 Alpha  occ. eigenvalues --   -6.61289  -1.17052  -1.10431  -1.03462  -0.99954
 Alpha  occ. eigenvalues --   -0.97546  -0.89225  -0.82150  -0.79928  -0.76278
 Alpha  occ. eigenvalues --   -0.66547  -0.66163  -0.64081  -0.60609  -0.59027
 Alpha  occ. eigenvalues --   -0.56999  -0.55530  -0.52510  -0.51969  -0.51382
 Alpha  occ. eigenvalues --   -0.48843  -0.47991  -0.44628  -0.44051  -0.40206
 Alpha  occ. eigenvalues --   -0.36685  -0.33781  -0.29668
 Alpha virt. eigenvalues --    0.03313   0.03665   0.04758   0.04946   0.05539
 Alpha virt. eigenvalues --    0.05671   0.06391   0.07092   0.07767   0.08153
 Alpha virt. eigenvalues --    0.09131   0.09882   0.10858   0.11676   0.12382
 Alpha virt. eigenvalues --    0.13165   0.13731   0.13968   0.14985   0.15176
 Alpha virt. eigenvalues --    0.15350   0.15680   0.15986   0.16420   0.16899
 Alpha virt. eigenvalues --    0.17138   0.17469   0.17768   0.18461   0.18713
 Alpha virt. eigenvalues --    0.18983   0.19729   0.20363   0.20606   0.20956
 Alpha virt. eigenvalues --    0.21375   0.22139   0.22514   0.23009   0.23287
 Alpha virt. eigenvalues --    0.24142   0.24811   0.25176   0.25873   0.26243
 Alpha virt. eigenvalues --    0.26879   0.27884   0.28920   0.30260   0.31470
 Alpha virt. eigenvalues --    0.32154   0.33408   0.34193   0.34613   0.35314
 Alpha virt. eigenvalues --    0.35966   0.36420   0.37434   0.38074   0.38593
 Alpha virt. eigenvalues --    0.39388   0.39771   0.40438   0.41317   0.42111
 Alpha virt. eigenvalues --    0.42463   0.43116   0.43977   0.44017   0.44233
 Alpha virt. eigenvalues --    0.45037   0.46078   0.46295   0.46942   0.47238
 Alpha virt. eigenvalues --    0.48273   0.48437   0.49169   0.49499   0.49960
 Alpha virt. eigenvalues --    0.50725   0.52178   0.52637   0.54208   0.54318
 Alpha virt. eigenvalues --    0.54430   0.55595   0.56046   0.56871   0.57841
 Alpha virt. eigenvalues --    0.58199   0.58773   0.59555   0.59867   0.61114
 Alpha virt. eigenvalues --    0.61783   0.62333   0.63811   0.64824   0.64886
 Alpha virt. eigenvalues --    0.65417   0.66353   0.67469   0.67922   0.69066
 Alpha virt. eigenvalues --    0.69389   0.69780   0.70212   0.71575   0.72273
 Alpha virt. eigenvalues --    0.72701   0.73224   0.74261   0.75593   0.75964
 Alpha virt. eigenvalues --    0.76648   0.76958   0.77084   0.77458   0.78425
 Alpha virt. eigenvalues --    0.80193   0.81137   0.81936   0.82449   0.83112
 Alpha virt. eigenvalues --    0.83482   0.84734   0.85039   0.85941   0.87412
 Alpha virt. eigenvalues --    0.87882   0.88741   0.88950   0.90526   0.90964
 Alpha virt. eigenvalues --    0.91257   0.93238   0.94367   0.95209   0.95673
 Alpha virt. eigenvalues --    0.96748   0.97950   0.98492   1.00597   1.01068
 Alpha virt. eigenvalues --    1.03438   1.05073   1.07663   1.08646   1.10370
 Alpha virt. eigenvalues --    1.11324   1.11877   1.14361   1.15310   1.16341
 Alpha virt. eigenvalues --    1.17930   1.18918   1.20364   1.21539   1.22276
 Alpha virt. eigenvalues --    1.23999   1.24605   1.25264   1.26454   1.26862
 Alpha virt. eigenvalues --    1.27972   1.28433   1.30538   1.31059   1.32667
 Alpha virt. eigenvalues --    1.33070   1.33800   1.35741   1.37881   1.38145
 Alpha virt. eigenvalues --    1.40084   1.40395   1.41549   1.44217   1.45013
 Alpha virt. eigenvalues --    1.48074   1.49134   1.49925   1.50122   1.52890
 Alpha virt. eigenvalues --    1.56266   1.57828   1.60696   1.61758   1.63787
 Alpha virt. eigenvalues --    1.67791   1.69625   1.70796   1.73833   1.75517
 Alpha virt. eigenvalues --    1.76303   1.78756   1.80842   1.84335   1.85163
 Alpha virt. eigenvalues --    1.86361   1.87801   1.88194   1.92036   1.93730
 Alpha virt. eigenvalues --    1.94028   1.96764   1.97621   1.99564   2.01369
 Alpha virt. eigenvalues --    2.02212   2.04598   2.05572   2.06864   2.08355
 Alpha virt. eigenvalues --    2.09371   2.10380   2.12676   2.13933   2.15958
 Alpha virt. eigenvalues --    2.17612   2.18030   2.19150   2.20484   2.22978
 Alpha virt. eigenvalues --    2.23665   2.24662   2.25610   2.28857   2.30519
 Alpha virt. eigenvalues --    2.32424   2.33776   2.35186   2.36848   2.37394
 Alpha virt. eigenvalues --    2.38007   2.39546   2.42350   2.44234   2.45230
 Alpha virt. eigenvalues --    2.46818   2.49552   2.52603   2.53911   2.60200
 Alpha virt. eigenvalues --    2.62652   2.63673   2.65201   2.66901   2.67120
 Alpha virt. eigenvalues --    2.69686   2.74244   2.74841   2.78514   2.80374
 Alpha virt. eigenvalues --    2.84193   2.89305   2.91452   2.93669   2.97685
 Alpha virt. eigenvalues --    3.03394   3.07215   3.09512   3.11293   3.13012
 Alpha virt. eigenvalues --    3.16213   3.21174   3.26355   3.44114   3.66089
  Beta  occ. eigenvalues --  -91.97136 -91.96985 -91.92898 -11.30189 -11.28690
  Beta  occ. eigenvalues --  -11.28506 -11.26035 -11.25551 -11.24323  -8.97351
  Beta  occ. eigenvalues --   -8.97172  -8.93025  -6.65575  -6.65436  -6.65402
  Beta  occ. eigenvalues --   -6.65258  -6.65107  -6.64901  -6.61265  -6.60968
  Beta  occ. eigenvalues --   -6.60292  -1.15548  -1.10017  -1.01874  -0.99634
  Beta  occ. eigenvalues --   -0.95850  -0.87761  -0.81904  -0.78804  -0.72340
  Beta  occ. eigenvalues --   -0.66077  -0.64825  -0.63666  -0.60315  -0.58758
  Beta  occ. eigenvalues --   -0.56131  -0.52203  -0.51854  -0.50527  -0.50021
  Beta  occ. eigenvalues --   -0.48401  -0.47724  -0.43796  -0.43401  -0.36517
  Beta  occ. eigenvalues --   -0.35469  -0.32637
  Beta virt. eigenvalues --    0.03199   0.03535   0.04273   0.04954   0.05048
  Beta virt. eigenvalues --    0.05572   0.05706   0.06623   0.07133   0.07810
  Beta virt. eigenvalues --    0.08258   0.09233   0.09981   0.10938   0.11863
  Beta virt. eigenvalues --    0.12563   0.13269   0.13842   0.14073   0.15119
  Beta virt. eigenvalues --    0.15253   0.15575   0.15854   0.16024   0.16501
  Beta virt. eigenvalues --    0.17110   0.17237   0.17521   0.17846   0.18534
  Beta virt. eigenvalues --    0.18811   0.19046   0.19920   0.20469   0.20766
  Beta virt. eigenvalues --    0.21164   0.21455   0.22501   0.22657   0.23211
  Beta virt. eigenvalues --    0.23593   0.24355   0.25006   0.25265   0.26219
  Beta virt. eigenvalues --    0.26666   0.26959   0.28302   0.29441   0.30606
  Beta virt. eigenvalues --    0.31715   0.32391   0.33763   0.34329   0.34942
  Beta virt. eigenvalues --    0.35449   0.36359   0.36676   0.38109   0.38324
  Beta virt. eigenvalues --    0.39119   0.39711   0.40331   0.40858   0.41971
  Beta virt. eigenvalues --    0.42238   0.42652   0.43472   0.44109   0.44334
  Beta virt. eigenvalues --    0.44558   0.45346   0.46331   0.46513   0.47017
  Beta virt. eigenvalues --    0.47486   0.48455   0.48600   0.49431   0.49586
  Beta virt. eigenvalues --    0.50428   0.50826   0.52315   0.53202   0.54416
  Beta virt. eigenvalues --    0.54905   0.55530   0.55916   0.56311   0.57589
  Beta virt. eigenvalues --    0.58216   0.58624   0.58891   0.59971   0.60127
  Beta virt. eigenvalues --    0.61223   0.61943   0.62790   0.64193   0.65087
  Beta virt. eigenvalues --    0.65343   0.65895   0.66835   0.67930   0.68152
  Beta virt. eigenvalues --    0.69214   0.69704   0.69948   0.70285   0.71856
  Beta virt. eigenvalues --    0.72549   0.72940   0.73450   0.74468   0.75903
  Beta virt. eigenvalues --    0.76516   0.76971   0.77160   0.77250   0.77630
  Beta virt. eigenvalues --    0.78545   0.80408   0.81358   0.82136   0.82748
  Beta virt. eigenvalues --    0.83229   0.83649   0.84978   0.85264   0.86121
  Beta virt. eigenvalues --    0.87831   0.88001   0.89090   0.89380   0.90739
  Beta virt. eigenvalues --    0.91167   0.91695   0.93401   0.94843   0.95330
  Beta virt. eigenvalues --    0.96068   0.97308   0.98075   0.98972   1.00816
  Beta virt. eigenvalues --    1.01232   1.03743   1.05607   1.07803   1.08973
  Beta virt. eigenvalues --    1.10596   1.11457   1.12106   1.14502   1.15629
  Beta virt. eigenvalues --    1.16582   1.18185   1.19336   1.20958   1.21831
  Beta virt. eigenvalues --    1.22817   1.24276   1.25130   1.25885   1.26736
  Beta virt. eigenvalues --    1.28274   1.28686   1.29925   1.31070   1.32080
  Beta virt. eigenvalues --    1.33296   1.33627   1.34442   1.36325   1.38119
  Beta virt. eigenvalues --    1.38477   1.40611   1.40798   1.41832   1.44387
  Beta virt. eigenvalues --    1.45386   1.48366   1.49272   1.50192   1.50394
  Beta virt. eigenvalues --    1.53130   1.56502   1.58128   1.61038   1.62190
  Beta virt. eigenvalues --    1.64206   1.68123   1.69918   1.70988   1.74149
  Beta virt. eigenvalues --    1.75674   1.76397   1.79137   1.81498   1.84392
  Beta virt. eigenvalues --    1.85200   1.87049   1.88409   1.88642   1.92460
  Beta virt. eigenvalues --    1.93972   1.94408   1.97044   1.98089   1.99808
  Beta virt. eigenvalues --    2.01469   2.02425   2.05014   2.06555   2.07627
  Beta virt. eigenvalues --    2.08567   2.09705   2.11139   2.13244   2.14124
  Beta virt. eigenvalues --    2.16258   2.17751   2.18249   2.19369   2.20791
  Beta virt. eigenvalues --    2.23161   2.23866   2.24669   2.25691   2.29109
  Beta virt. eigenvalues --    2.30657   2.32504   2.33968   2.35341   2.37064
  Beta virt. eigenvalues --    2.37615   2.38272   2.39669   2.42364   2.44365
  Beta virt. eigenvalues --    2.45203   2.47053   2.49807   2.52864   2.54117
  Beta virt. eigenvalues --    2.60260   2.62828   2.64046   2.65403   2.66952
  Beta virt. eigenvalues --    2.67294   2.69740   2.74372   2.74904   2.78618
  Beta virt. eigenvalues --    2.80717   2.84747   2.89506   2.91553   2.93794
  Beta virt. eigenvalues --    2.97736   3.03516   3.07247   3.09531   3.11407
  Beta virt. eigenvalues --    3.13251   3.16266   3.21237   3.26449   3.44251
  Beta virt. eigenvalues --    3.66488
          Condensed to atoms (all electrons):
          Atomic-Atomic Spin Densities.
 Mulliken charges and spin densities:
               1          2
     1  H    0.723039  -0.332999
     2  C    0.489576  -0.132266
     3  H   -0.141464   0.029805
     4  C   -0.025391  -0.056319
     5  H   -0.064322   0.006487
     6  H   -0.109205  -0.000213
     7  H   -0.092315   0.002049
     8  C    0.317980   0.032813
     9  H   -0.075339  -0.003351
    10  H   -0.163366   0.000744
    11  C   -1.204723   0.907721
    12  C   -0.093673  -0.008029
    13  C    0.111523  -0.015366
    14  H   -0.062947   0.000361
    15  H   -0.063200  -0.003532
    16  H   -0.126835  -0.000186
    17  H   -0.101872  -0.001130
    18  S    0.380938   0.029697
    19  S    0.316473   0.009315
    20  S   -0.014879   0.534397
 Sum of Mulliken charges =  -0.00000   1.00000
 Mulliken charges and spin densities with hydrogens summed into heavy atoms:
               1          2
     2  C    0.238908  -0.102673
     4  C   -0.182028  -0.047783
     8  C    0.079275   0.030206
    11  C   -0.481684   0.574721
    12  C   -0.219820  -0.011199
    13  C   -0.117184  -0.016682
    18  S    0.380938   0.029697
    19  S    0.316473   0.009315
    20  S   -0.014879   0.534397
 Electronic spatial extent (au):  <R**2>=           2004.9204
 Charge=             -0.0000 electrons
 Dipole moment (field-independent basis, Debye):
    X=             -1.8718    Y=             -1.5232    Z=              0.5620  Tot=              2.4778
                          Isotropic Fermi Contact Couplings
        Atom                 a.u.       MegaHertz       Gauss      10(-4) cm-1
     1  H(1)              -0.06306    -281.88468    -100.58346     -94.02661
     2  C(13)             -0.02425     -27.26553      -9.72902      -9.09480
     3  H(1)               0.01252      55.98124      19.97550      18.67333
     4  C(13)             -0.01338     -15.03775      -5.36584      -5.01605
     5  H(1)               0.00509      22.77083       8.12520       7.59553
     6  H(1)               0.00131       5.83877       2.08342       1.94760
     7  H(1)               0.00027       1.19007       0.42464       0.39696
     8  C(13)              0.00893      10.04365       3.58382       3.35020
     9  H(1)              -0.00098      -4.38348      -1.56413      -1.46217
    10  H(1)              -0.00062      -2.79003      -0.99555      -0.93065
    11  C(13)              0.25146     282.68384     100.86862      94.29318
    12  C(13)             -0.00105      -1.18142      -0.42156      -0.39408
    13  C(13)              0.00061       0.68282       0.24365       0.22776
    14  H(1)              -0.00064      -2.85387      -1.01833      -0.95195
    15  H(1)               0.00093       4.13730       1.47629       1.38005
    16  H(1)               0.00032       1.44289       0.51486       0.48130
    17  H(1)              -0.00047      -2.09577      -0.74782      -0.69907
    18  S(33)              0.02870       9.85632       3.51698       3.28771
    19  S(33)              0.00284       0.97545       0.34807       0.32538
    20  S(33)              0.12491      42.90199      15.30850      14.31056
 --------------------------------------------------------
       Center         ----  Spin Dipole Couplings  ----
                      3XX-RR        3YY-RR        3ZZ-RR
 --------------------------------------------------------
     1   Atom        0.041385      0.058600     -0.099985
     2   Atom       -0.004182      0.007767     -0.003585
     3   Atom       -0.001522      0.005415     -0.003893
     4   Atom        0.003070     -0.000175     -0.002894
     5   Atom        0.002802      0.001107     -0.003909
     6   Atom       -0.000133      0.004335     -0.004202
     7   Atom        0.001975      0.002249     -0.004224
     8   Atom        0.010781      0.005283     -0.016064
     9   Atom        0.001856      0.002176     -0.004031
    10   Atom        0.000352     -0.002151      0.001799
    11   Atom       -0.093320      0.444710     -0.351390
    12   Atom        0.006118     -0.003287     -0.002831
    13   Atom        0.003326     -0.003288     -0.000037
    14   Atom        0.003115     -0.000962     -0.002153
    15   Atom        0.004036     -0.002276     -0.001760
    16   Atom        0.001500      0.001628     -0.003128
    17   Atom        0.002574     -0.001155     -0.001419
    18   Atom        0.052866      0.184206     -0.237072
    19   Atom        0.182374      0.026128     -0.208502
    20   Atom        1.441274     -0.398070     -1.043204
 --------------------------------------------------------
                        XY            XZ            YZ
 --------------------------------------------------------
     1   Atom        0.147339     -0.011804     -0.014003
     2   Atom       -0.006172      0.002823      0.004395
     3   Atom       -0.005343     -0.000047     -0.000230
     4   Atom        0.007583      0.000678      0.001362
     5   Atom       -0.004818      0.001938     -0.002123
     6   Atom       -0.005052     -0.004990      0.006188
     7   Atom       -0.002859     -0.002532      0.002757
     8   Atom        0.013349      0.005083     -0.002062
     9   Atom       -0.003881      0.000863     -0.001015
    10   Atom       -0.001409      0.003357     -0.003365
    11   Atom        0.468980     -0.054813     -0.093216
    12   Atom       -0.001283     -0.001355     -0.001079
    13   Atom       -0.005831     -0.000852     -0.001817
    14   Atom       -0.002127      0.000849     -0.000098
    15   Atom        0.000573     -0.000472      0.000481
    16   Atom       -0.004232     -0.001495      0.002069
    17   Atom       -0.001967     -0.002216      0.000753
    18   Atom        0.326921     -0.034055      0.139479
    19   Atom        0.227622     -0.041172     -0.153257
    20   Atom        1.371215      0.055243      0.039628
 --------------------------------------------------------


 ---------------------------------------------------------------------------------
              Anisotropic Spin Dipole Couplings in Principal Axis System
 ---------------------------------------------------------------------------------

       Atom             a.u.   MegaHertz   Gauss  10(-4) cm-1        Axes

              Baa    -0.1014   -54.091   -19.301   -18.043 -0.1490  0.2216  0.9637
     1 H(1)   Bbb    -0.0973   -51.927   -18.529   -17.321  0.7134 -0.6508  0.2599
              Bcc     0.1987   106.018    37.830    35.364  0.6847  0.7262 -0.0611
 
              Baa    -0.0099    -1.334    -0.476    -0.445  0.7085  0.3926 -0.5864
     2 C(13)  Bbb    -0.0011    -0.146    -0.052    -0.049  0.6219  0.0454  0.7818
              Bcc     0.0110     1.479     0.528     0.493 -0.3336  0.9186  0.2119
 
              Baa    -0.0045    -2.382    -0.850    -0.794  0.8473  0.4643  0.2579
     3 H(1)   Bbb    -0.0039    -2.057    -0.734    -0.686 -0.2335 -0.1106  0.9661
              Bcc     0.0083     4.439     1.584     1.481 -0.4770  0.8788 -0.0147
 
              Baa    -0.0064    -0.862    -0.308    -0.288 -0.6056  0.7746 -0.1825
     4 C(13)  Bbb    -0.0029    -0.394    -0.140    -0.131 -0.2018  0.0724  0.9767
              Bcc     0.0094     1.256     0.448     0.419  0.7698  0.6283  0.1125
 
              Baa    -0.0047    -2.505    -0.894    -0.836 -0.0476  0.3081  0.9502
     5 H(1)   Bbb    -0.0029    -1.526    -0.545    -0.509  0.6736  0.7123 -0.1972
              Bcc     0.0076     4.031     1.438     1.345  0.7376 -0.6306  0.2415
 
              Baa    -0.0083    -4.413    -1.575    -1.472  0.3636 -0.2890  0.8856
     6 H(1)   Bbb    -0.0033    -1.774    -0.633    -0.592  0.7811  0.6127 -0.1207
              Bcc     0.0116     6.187     2.208     2.064 -0.5077  0.7356  0.4485
 
              Baa    -0.0056    -2.964    -1.058    -0.989  0.2213 -0.2517  0.9422
     7 H(1)   Bbb    -0.0007    -0.400    -0.143    -0.133  0.7290  0.6844  0.0116
              Bcc     0.0063     3.364     1.200     1.122 -0.6477  0.6843  0.3350
 
              Baa    -0.0181    -2.428    -0.866    -0.810 -0.2744  0.2389  0.9315
     8 C(13)  Bbb    -0.0038    -0.504    -0.180    -0.168 -0.5610  0.7469 -0.3569
              Bcc     0.0218     2.932     1.046     0.978  0.7810  0.6205  0.0710
 
              Baa    -0.0042    -2.246    -0.801    -0.749 -0.0657  0.1176  0.9909
     9 H(1)   Bbb    -0.0019    -0.996    -0.355    -0.332  0.7251  0.6878 -0.0336
              Bcc     0.0061     3.241     1.157     1.081 -0.6855  0.7163 -0.1305
 
              Baa    -0.0041    -2.213    -0.790    -0.738 -0.1543  0.8200  0.5512
    10 H(1)   Bbb    -0.0019    -1.005    -0.359    -0.335  0.8288  0.4111 -0.3796
              Bcc     0.0060     3.219     1.148     1.074  0.5379 -0.3982  0.7430
 
              Baa    -0.3651   -48.998   -17.484   -16.344  0.8526 -0.4667  0.2351
    11 C(13)  Bbb    -0.3621   -48.585   -17.336   -16.206 -0.1559  0.2023  0.9668
              Bcc     0.7272    97.583    34.820    32.550  0.4988  0.8610 -0.0998
 
              Baa    -0.0045    -0.602    -0.215    -0.201  0.1723  0.7546  0.6332
    12 C(13)  Bbb    -0.0020    -0.263    -0.094    -0.088  0.0253 -0.6460  0.7629
              Bcc     0.0064     0.865     0.309     0.289  0.9847 -0.1154 -0.1304
 
              Baa    -0.0072    -0.971    -0.347    -0.324  0.4820  0.8343  0.2675
    13 C(13)  Bbb     0.0005     0.069     0.025     0.023 -0.1585 -0.2173  0.9632
              Bcc     0.0067     0.903     0.322     0.301  0.8617 -0.5067  0.0275
 
              Baa    -0.0024    -1.267    -0.452    -0.423 -0.2745 -0.3511  0.8952
    14 H(1)   Bbb    -0.0018    -0.936    -0.334    -0.312  0.2986  0.8538  0.4264
              Bcc     0.0041     2.204     0.786     0.735  0.9140 -0.3844  0.1296
 
              Baa    -0.0026    -1.411    -0.503    -0.471 -0.1093  0.8477 -0.5191
    15 H(1)   Bbb    -0.0015    -0.787    -0.281    -0.262  0.0184  0.5239  0.8516
              Bcc     0.0041     2.198     0.784     0.733  0.9938  0.0835 -0.0729
 
              Baa    -0.0039    -2.083    -0.743    -0.695 -0.0372 -0.3748  0.9264
    16 H(1)   Bbb    -0.0026    -1.364    -0.487    -0.455  0.7407  0.6120  0.2773
              Bcc     0.0065     3.448     1.230     1.150 -0.6708  0.6965  0.2548
 
              Baa    -0.0024    -1.296    -0.462    -0.432  0.4622  0.2032  0.8632
    17 H(1)   Bbb    -0.0019    -1.032    -0.368    -0.344  0.2314  0.9120 -0.3387
              Bcc     0.0044     2.327     0.830     0.776  0.8560 -0.3563 -0.3745
 
              Baa    -0.3465   -14.205    -5.069    -4.738  0.4553 -0.4779  0.7512
    18 S(33)  Bbb    -0.1165    -4.775    -1.704    -1.593 -0.6466  0.4024  0.6480
              Bcc     0.4629    18.980     6.773     6.331  0.6120  0.7808  0.1258
 
              Baa    -0.2957   -12.124    -4.326    -4.044 -0.1768  0.5223  0.8342
    19 S(33)  Bbb    -0.0760    -3.116    -1.112    -1.039  0.6134 -0.6043  0.5084
              Bcc     0.3717    15.240     5.438     5.084  0.7697  0.6016 -0.2135
 
              Baa    -1.1304   -46.345   -16.537   -15.459 -0.4662  0.8786 -0.1039
    20 S(33)  Bbb    -1.0437   -42.790   -15.268   -14.273 -0.0673  0.0819  0.9944
              Bcc     2.1741    89.135    31.806    29.732  0.8821  0.4706  0.0209
 

 ---------------------------------------------------------------------------------

 NROrb=    318 NOA=    48 NOB=    47 NVA=   270 NVB=   271

 **** Warning!!: The largest alpha MO coefficient is  0.50213465D+02


 **** Warning!!: The largest beta MO coefficient is  0.51449882D+02

    12 initial guesses have been made.
 Iteration     1 Dimension    12 NMult     0 NNew     12
 Iteration     2 Dimension    24 NMult    12 NNew     12
 Iteration     3 Dimension    27 NMult    24 NNew      3
 Iteration     4 Dimension    30 NMult    27 NNew      3
 Iteration     5 Dimension    33 NMult    30 NNew      3
 Iteration     6 Dimension    36 NMult    33 NNew      3
 Iteration     7 Dimension    39 NMult    36 NNew      3
 Iteration     8 Dimension    42 NMult    39 NNew      3
 ***********************************************************************
 Stability analysis using <AA,BB:AA,BB> singles matrix:
 ***********************************************************************
 Ground to excited state transition densities written to RWF  633

 Eigenvectors of the stability matrix:
 
 Excited state symmetry could not be determined.
 Eigenvector   1:  2.256-?Sym  Eigenvalue= 0.0870865  <S**2>=1.022
     46B -> 50B       -0.14591
     46B -> 52B        0.11573
     47B -> 48B       -0.32463
     47B -> 49B        0.28659
     47B -> 50B        0.55233
     47B -> 52B       -0.42966
     47B -> 53B       -0.10431
     47B -> 55B       -0.23473
 The wavefunction is stable under the perturbations considered.
 The wavefunction is already stable.

 **********************************************************************

            Population analysis using the SCF Density.

 **********************************************************************

 Alpha  occ. eigenvalues --  -91.97153 -91.97029 -91.93412 -11.32107 -11.28700
 Alpha  occ. eigenvalues --  -11.28502 -11.25964 -11.25414 -11.24399  -8.97369
 Alpha  occ. eigenvalues --   -8.97222  -8.93595  -6.65535  -6.65426  -6.65408
 Alpha  occ. eigenvalues --   -6.65266  -6.65257  -6.65118  -6.62526  -6.61535
 Alpha  occ. eigenvalues --   -6.61289  -1.17052  -1.10431  -1.03462  -0.99954
 Alpha  occ. eigenvalues --   -0.97546  -0.89225  -0.82150  -0.79928  -0.76278
 Alpha  occ. eigenvalues --   -0.66547  -0.66163  -0.64081  -0.60609  -0.59027
 Alpha  occ. eigenvalues --   -0.56999  -0.55530  -0.52510  -0.51969  -0.51382
 Alpha  occ. eigenvalues --   -0.48843  -0.47991  -0.44628  -0.44051  -0.40206
 Alpha  occ. eigenvalues --   -0.36685  -0.33781  -0.29668
 Alpha virt. eigenvalues --    0.03313   0.03665   0.04758   0.04946   0.05539
 Alpha virt. eigenvalues --    0.05671   0.06391   0.07092   0.07767   0.08153
 Alpha virt. eigenvalues --    0.09131   0.09882   0.10858   0.11676   0.12382
 Alpha virt. eigenvalues --    0.13165   0.13731   0.13968   0.14985   0.15176
 Alpha virt. eigenvalues --    0.15350   0.15680   0.15986   0.16420   0.16899
 Alpha virt. eigenvalues --    0.17138   0.17469   0.17768   0.18461   0.18713
 Alpha virt. eigenvalues --    0.18983   0.19729   0.20363   0.20606   0.20956
 Alpha virt. eigenvalues --    0.21375   0.22139   0.22514   0.23009   0.23287
 Alpha virt. eigenvalues --    0.24142   0.24811   0.25176   0.25873   0.26243
 Alpha virt. eigenvalues --    0.26879   0.27884   0.28920   0.30260   0.31470
 Alpha virt. eigenvalues --    0.32154   0.33408   0.34193   0.34613   0.35314
 Alpha virt. eigenvalues --    0.35966   0.36420   0.37434   0.38074   0.38593
 Alpha virt. eigenvalues --    0.39388   0.39771   0.40438   0.41317   0.42111
 Alpha virt. eigenvalues --    0.42463   0.43116   0.43977   0.44017   0.44233
 Alpha virt. eigenvalues --    0.45037   0.46078   0.46295   0.46942   0.47238
 Alpha virt. eigenvalues --    0.48273   0.48437   0.49169   0.49499   0.49960
 Alpha virt. eigenvalues --    0.50725   0.52178   0.52637   0.54208   0.54318
 Alpha virt. eigenvalues --    0.54430   0.55595   0.56046   0.56871   0.57841
 Alpha virt. eigenvalues --    0.58199   0.58773   0.59555   0.59867   0.61114
 Alpha virt. eigenvalues --    0.61783   0.62333   0.63811   0.64824   0.64886
 Alpha virt. eigenvalues --    0.65417   0.66353   0.67469   0.67922   0.69066
 Alpha virt. eigenvalues --    0.69389   0.69780   0.70212   0.71575   0.72273
 Alpha virt. eigenvalues --    0.72701   0.73224   0.74261   0.75593   0.75964
 Alpha virt. eigenvalues --    0.76648   0.76958   0.77084   0.77458   0.78425
 Alpha virt. eigenvalues --    0.80193   0.81137   0.81936   0.82449   0.83112
 Alpha virt. eigenvalues --    0.83482   0.84734   0.85039   0.85941   0.87412
 Alpha virt. eigenvalues --    0.87882   0.88741   0.88950   0.90526   0.90964
 Alpha virt. eigenvalues --    0.91257   0.93238   0.94367   0.95209   0.95673
 Alpha virt. eigenvalues --    0.96748   0.97950   0.98492   1.00597   1.01068
 Alpha virt. eigenvalues --    1.03438   1.05073   1.07663   1.08646   1.10370
 Alpha virt. eigenvalues --    1.11324   1.11877   1.14361   1.15310   1.16341
 Alpha virt. eigenvalues --    1.17930   1.18918   1.20364   1.21539   1.22276
 Alpha virt. eigenvalues --    1.23999   1.24605   1.25264   1.26454   1.26862
 Alpha virt. eigenvalues --    1.27972   1.28433   1.30538   1.31059   1.32667
 Alpha virt. eigenvalues --    1.33070   1.33800   1.35741   1.37881   1.38145
 Alpha virt. eigenvalues --    1.40084   1.40395   1.41549   1.44217   1.45013
 Alpha virt. eigenvalues --    1.48074   1.49134   1.49925   1.50122   1.52890
 Alpha virt. eigenvalues --    1.56266   1.57828   1.60696   1.61758   1.63787
 Alpha virt. eigenvalues --    1.67791   1.69625   1.70796   1.73833   1.75517
 Alpha virt. eigenvalues --    1.76303   1.78756   1.80842   1.84335   1.85163
 Alpha virt. eigenvalues --    1.86361   1.87801   1.88194   1.92036   1.93730
 Alpha virt. eigenvalues --    1.94028   1.96764   1.97621   1.99564   2.01369
 Alpha virt. eigenvalues --    2.02212   2.04598   2.05572   2.06864   2.08355
 Alpha virt. eigenvalues --    2.09371   2.10380   2.12676   2.13933   2.15958
 Alpha virt. eigenvalues --    2.17612   2.18030   2.19150   2.20484   2.22978
 Alpha virt. eigenvalues --    2.23665   2.24662   2.25610   2.28857   2.30519
 Alpha virt. eigenvalues --    2.32424   2.33776   2.35186   2.36848   2.37394
 Alpha virt. eigenvalues --    2.38007   2.39546   2.42350   2.44234   2.45230
 Alpha virt. eigenvalues --    2.46818   2.49552   2.52603   2.53911   2.60200
 Alpha virt. eigenvalues --    2.62652   2.63673   2.65201   2.66901   2.67120
 Alpha virt. eigenvalues --    2.69686   2.74244   2.74841   2.78514   2.80374
 Alpha virt. eigenvalues --    2.84193   2.89305   2.91452   2.93669   2.97685
 Alpha virt. eigenvalues --    3.03394   3.07215   3.09512   3.11293   3.13012
 Alpha virt. eigenvalues --    3.16213   3.21174   3.26355   3.44114   3.66089
  Beta  occ. eigenvalues --  -91.97136 -91.96985 -91.92898 -11.30189 -11.28690
  Beta  occ. eigenvalues --  -11.28506 -11.26035 -11.25551 -11.24323  -8.97351
  Beta  occ. eigenvalues --   -8.97172  -8.93025  -6.65575  -6.65436  -6.65402
  Beta  occ. eigenvalues --   -6.65258  -6.65107  -6.64901  -6.61265  -6.60968
  Beta  occ. eigenvalues --   -6.60292  -1.15548  -1.10017  -1.01874  -0.99634
  Beta  occ. eigenvalues --   -0.95850  -0.87761  -0.81904  -0.78804  -0.72340
  Beta  occ. eigenvalues --   -0.66077  -0.64825  -0.63666  -0.60315  -0.58758
  Beta  occ. eigenvalues --   -0.56131  -0.52203  -0.51854  -0.50527  -0.50021
  Beta  occ. eigenvalues --   -0.48401  -0.47724  -0.43796  -0.43401  -0.36517
  Beta  occ. eigenvalues --   -0.35469  -0.32637
  Beta virt. eigenvalues --    0.03199   0.03535   0.04273   0.04954   0.05048
  Beta virt. eigenvalues --    0.05572   0.05706   0.06623   0.07133   0.07810
  Beta virt. eigenvalues --    0.08258   0.09233   0.09981   0.10938   0.11863
  Beta virt. eigenvalues --    0.12563   0.13269   0.13842   0.14073   0.15119
  Beta virt. eigenvalues --    0.15253   0.15575   0.15854   0.16024   0.16501
  Beta virt. eigenvalues --    0.17110   0.17237   0.17521   0.17846   0.18534
  Beta virt. eigenvalues --    0.18811   0.19046   0.19920   0.20469   0.20766
  Beta virt. eigenvalues --    0.21164   0.21455   0.22501   0.22657   0.23211
  Beta virt. eigenvalues --    0.23593   0.24355   0.25006   0.25265   0.26219
  Beta virt. eigenvalues --    0.26666   0.26959   0.28302   0.29441   0.30606
  Beta virt. eigenvalues --    0.31715   0.32391   0.33763   0.34329   0.34942
  Beta virt. eigenvalues --    0.35449   0.36359   0.36676   0.38109   0.38324
  Beta virt. eigenvalues --    0.39119   0.39711   0.40331   0.40858   0.41971
  Beta virt. eigenvalues --    0.42238   0.42652   0.43472   0.44109   0.44334
  Beta virt. eigenvalues --    0.44558   0.45346   0.46331   0.46513   0.47017
  Beta virt. eigenvalues --    0.47486   0.48455   0.48600   0.49431   0.49586
  Beta virt. eigenvalues --    0.50428   0.50826   0.52315   0.53202   0.54416
  Beta virt. eigenvalues --    0.54905   0.55530   0.55916   0.56311   0.57589
  Beta virt. eigenvalues --    0.58216   0.58624   0.58891   0.59971   0.60127
  Beta virt. eigenvalues --    0.61223   0.61943   0.62790   0.64193   0.65087
  Beta virt. eigenvalues --    0.65343   0.65895   0.66835   0.67930   0.68152
  Beta virt. eigenvalues --    0.69214   0.69704   0.69948   0.70285   0.71856
  Beta virt. eigenvalues --    0.72549   0.72940   0.73450   0.74468   0.75903
  Beta virt. eigenvalues --    0.76516   0.76971   0.77160   0.77250   0.77630
  Beta virt. eigenvalues --    0.78545   0.80408   0.81358   0.82136   0.82748
  Beta virt. eigenvalues --    0.83229   0.83649   0.84978   0.85264   0.86121
  Beta virt. eigenvalues --    0.87831   0.88001   0.89090   0.89380   0.90739
  Beta virt. eigenvalues --    0.91167   0.91695   0.93401   0.94843   0.95330
  Beta virt. eigenvalues --    0.96068   0.97308   0.98075   0.98972   1.00816
  Beta virt. eigenvalues --    1.01232   1.03743   1.05607   1.07803   1.08973
  Beta virt. eigenvalues --    1.10596   1.11457   1.12106   1.14502   1.15629
  Beta virt. eigenvalues --    1.16582   1.18185   1.19336   1.20958   1.21831
  Beta virt. eigenvalues --    1.22817   1.24276   1.25130   1.25885   1.26736
  Beta virt. eigenvalues --    1.28274   1.28686   1.29925   1.31070   1.32080
  Beta virt. eigenvalues --    1.33296   1.33627   1.34442   1.36325   1.38119
  Beta virt. eigenvalues --    1.38477   1.40611   1.40798   1.41832   1.44387
  Beta virt. eigenvalues --    1.45386   1.48366   1.49272   1.50192   1.50394
  Beta virt. eigenvalues --    1.53130   1.56502   1.58128   1.61038   1.62190
  Beta virt. eigenvalues --    1.64206   1.68123   1.69918   1.70988   1.74149
  Beta virt. eigenvalues --    1.75674   1.76397   1.79137   1.81498   1.84392
  Beta virt. eigenvalues --    1.85200   1.87049   1.88409   1.88642   1.92460
  Beta virt. eigenvalues --    1.93972   1.94408   1.97044   1.98089   1.99808
  Beta virt. eigenvalues --    2.01469   2.02425   2.05014   2.06555   2.07627
  Beta virt. eigenvalues --    2.08567   2.09705   2.11139   2.13244   2.14124
  Beta virt. eigenvalues --    2.16258   2.17751   2.18249   2.19369   2.20791
  Beta virt. eigenvalues --    2.23161   2.23866   2.24669   2.25691   2.29109
  Beta virt. eigenvalues --    2.30657   2.32504   2.33968   2.35341   2.37064
  Beta virt. eigenvalues --    2.37615   2.38272   2.39669   2.42364   2.44365
  Beta virt. eigenvalues --    2.45203   2.47053   2.49807   2.52864   2.54117
  Beta virt. eigenvalues --    2.60260   2.62828   2.64046   2.65403   2.66952
  Beta virt. eigenvalues --    2.67294   2.69740   2.74372   2.74904   2.78618
  Beta virt. eigenvalues --    2.80717   2.84747   2.89506   2.91553   2.93794
  Beta virt. eigenvalues --    2.97736   3.03516   3.07247   3.09531   3.11407
  Beta virt. eigenvalues --    3.13251   3.16266   3.21237   3.26449   3.44251
  Beta virt. eigenvalues --    3.66488
          Condensed to atoms (all electrons):
          Atomic-Atomic Spin Densities.
 Mulliken charges and spin densities:
               1          2
     1  H    0.723039  -0.332999
     2  C    0.489576  -0.132266
     3  H   -0.141464   0.029805
     4  C   -0.025391  -0.056319
     5  H   -0.064322   0.006487
     6  H   -0.109205  -0.000213
     7  H   -0.092315   0.002049
     8  C    0.317980   0.032813
     9  H   -0.075339  -0.003351
    10  H   -0.163366   0.000744
    11  C   -1.204723   0.907721
    12  C   -0.093673  -0.008029
    13  C    0.111523  -0.015366
    14  H   -0.062947   0.000361
    15  H   -0.063200  -0.003532
    16  H   -0.126835  -0.000186
    17  H   -0.101872  -0.001130
    18  S    0.380938   0.029697
    19  S    0.316473   0.009315
    20  S   -0.014879   0.534397
 Sum of Mulliken charges =  -0.00000   1.00000
 Mulliken charges and spin densities with hydrogens summed into heavy atoms:
               1          2
     2  C    0.238908  -0.102673
     4  C   -0.182028  -0.047783
     8  C    0.079275   0.030206
    11  C   -0.481684   0.574721
    12  C   -0.219820  -0.011199
    13  C   -0.117184  -0.016682
    18  S    0.380938   0.029697
    19  S    0.316473   0.009315
    20  S   -0.014879   0.534397
 Electronic spatial extent (au):  <R**2>=           2004.9204
 Charge=             -0.0000 electrons
 Dipole moment (field-independent basis, Debye):
    X=             -1.8718    Y=             -1.5232    Z=              0.5620  Tot=              2.4778
                          Isotropic Fermi Contact Couplings
        Atom                 a.u.       MegaHertz       Gauss      10(-4) cm-1
     1  H(1)              -0.06306    -281.88468    -100.58346     -94.02661
     2  C(13)             -0.02425     -27.26553      -9.72902      -9.09480
     3  H(1)               0.01252      55.98124      19.97550      18.67333
     4  C(13)             -0.01338     -15.03775      -5.36584      -5.01605
     5  H(1)               0.00509      22.77083       8.12520       7.59553
     6  H(1)               0.00131       5.83877       2.08342       1.94760
     7  H(1)               0.00027       1.19007       0.42464       0.39696
     8  C(13)              0.00893      10.04365       3.58382       3.35020
     9  H(1)              -0.00098      -4.38348      -1.56413      -1.46217
    10  H(1)              -0.00062      -2.79003      -0.99555      -0.93065
    11  C(13)              0.25146     282.68384     100.86862      94.29318
    12  C(13)             -0.00105      -1.18142      -0.42156      -0.39408
    13  C(13)              0.00061       0.68282       0.24365       0.22776
    14  H(1)              -0.00064      -2.85387      -1.01833      -0.95195
    15  H(1)               0.00093       4.13730       1.47629       1.38005
    16  H(1)               0.00032       1.44289       0.51486       0.48130
    17  H(1)              -0.00047      -2.09577      -0.74782      -0.69907
    18  S(33)              0.02870       9.85632       3.51698       3.28771
    19  S(33)              0.00284       0.97545       0.34807       0.32538
    20  S(33)              0.12491      42.90199      15.30850      14.31056
 --------------------------------------------------------
       Center         ----  Spin Dipole Couplings  ----
                      3XX-RR        3YY-RR        3ZZ-RR
 --------------------------------------------------------
     1   Atom        0.041385      0.058600     -0.099985
     2   Atom       -0.004182      0.007767     -0.003585
     3   Atom       -0.001522      0.005415     -0.003893
     4   Atom        0.003070     -0.000175     -0.002894
     5   Atom        0.002802      0.001107     -0.003909
     6   Atom       -0.000133      0.004335     -0.004202
     7   Atom        0.001975      0.002249     -0.004224
     8   Atom        0.010781      0.005283     -0.016064
     9   Atom        0.001856      0.002176     -0.004031
    10   Atom        0.000352     -0.002151      0.001799
    11   Atom       -0.093320      0.444710     -0.351390
    12   Atom        0.006118     -0.003287     -0.002831
    13   Atom        0.003326     -0.003288     -0.000037
    14   Atom        0.003115     -0.000962     -0.002153
    15   Atom        0.004036     -0.002276     -0.001760
    16   Atom        0.001500      0.001628     -0.003128
    17   Atom        0.002574     -0.001155     -0.001419
    18   Atom        0.052866      0.184206     -0.237072
    19   Atom        0.182374      0.026128     -0.208502
    20   Atom        1.441274     -0.398070     -1.043204
 --------------------------------------------------------
                        XY            XZ            YZ
 --------------------------------------------------------
     1   Atom        0.147339     -0.011804     -0.014003
     2   Atom       -0.006172      0.002823      0.004395
     3   Atom       -0.005343     -0.000047     -0.000230
     4   Atom        0.007583      0.000678      0.001362
     5   Atom       -0.004818      0.001938     -0.002123
     6   Atom       -0.005052     -0.004990      0.006188
     7   Atom       -0.002859     -0.002532      0.002757
     8   Atom        0.013349      0.005083     -0.002062
     9   Atom       -0.003881      0.000863     -0.001015
    10   Atom       -0.001409      0.003357     -0.003365
    11   Atom        0.468980     -0.054813     -0.093216
    12   Atom       -0.001283     -0.001355     -0.001079
    13   Atom       -0.005831     -0.000852     -0.001817
    14   Atom       -0.002127      0.000849     -0.000098
    15   Atom        0.000573     -0.000472      0.000481
    16   Atom       -0.004232     -0.001495      0.002069
    17   Atom       -0.001967     -0.002216      0.000753
    18   Atom        0.326921     -0.034055      0.139479
    19   Atom        0.227622     -0.041172     -0.153257
    20   Atom        1.371215      0.055243      0.039628
 --------------------------------------------------------


 ---------------------------------------------------------------------------------
              Anisotropic Spin Dipole Couplings in Principal Axis System
 ---------------------------------------------------------------------------------

       Atom             a.u.   MegaHertz   Gauss  10(-4) cm-1        Axes

              Baa    -0.1014   -54.091   -19.301   -18.043 -0.1490  0.2216  0.9637
     1 H(1)   Bbb    -0.0973   -51.927   -18.529   -17.321  0.7134 -0.6508  0.2599
              Bcc     0.1987   106.018    37.830    35.364  0.6847  0.7262 -0.0611
 
              Baa    -0.0099    -1.334    -0.476    -0.445  0.7085  0.3926 -0.5864
     2 C(13)  Bbb    -0.0011    -0.146    -0.052    -0.049  0.6219  0.0454  0.7818
              Bcc     0.0110     1.479     0.528     0.493 -0.3336  0.9186  0.2119
 
              Baa    -0.0045    -2.382    -0.850    -0.794  0.8473  0.4643  0.2579
     3 H(1)   Bbb    -0.0039    -2.057    -0.734    -0.686 -0.2335 -0.1106  0.9661
              Bcc     0.0083     4.439     1.584     1.481 -0.4770  0.8788 -0.0147
 
              Baa    -0.0064    -0.862    -0.308    -0.288 -0.6056  0.7746 -0.1825
     4 C(13)  Bbb    -0.0029    -0.394    -0.140    -0.131 -0.2018  0.0724  0.9767
              Bcc     0.0094     1.256     0.448     0.419  0.7698  0.6283  0.1125
 
              Baa    -0.0047    -2.505    -0.894    -0.836 -0.0476  0.3081  0.9502
     5 H(1)   Bbb    -0.0029    -1.526    -0.545    -0.509  0.6736  0.7123 -0.1972
              Bcc     0.0076     4.031     1.438     1.345  0.7376 -0.6306  0.2415
 
              Baa    -0.0083    -4.413    -1.575    -1.472  0.3636 -0.2890  0.8856
     6 H(1)   Bbb    -0.0033    -1.774    -0.633    -0.592  0.7811  0.6127 -0.1207
              Bcc     0.0116     6.187     2.208     2.064 -0.5077  0.7356  0.4485
 
              Baa    -0.0056    -2.964    -1.058    -0.989  0.2213 -0.2517  0.9422
     7 H(1)   Bbb    -0.0007    -0.400    -0.143    -0.133  0.7290  0.6844  0.0116
              Bcc     0.0063     3.364     1.200     1.122 -0.6477  0.6843  0.3350
 
              Baa    -0.0181    -2.428    -0.866    -0.810 -0.2744  0.2389  0.9315
     8 C(13)  Bbb    -0.0038    -0.504    -0.180    -0.168 -0.5610  0.7469 -0.3569
              Bcc     0.0218     2.932     1.046     0.978  0.7810  0.6205  0.0710
 
              Baa    -0.0042    -2.246    -0.801    -0.749 -0.0657  0.1176  0.9909
     9 H(1)   Bbb    -0.0019    -0.996    -0.355    -0.332  0.7251  0.6878 -0.0336
              Bcc     0.0061     3.241     1.157     1.081 -0.6855  0.7163 -0.1305
 
              Baa    -0.0041    -2.213    -0.790    -0.738 -0.1543  0.8200  0.5512
    10 H(1)   Bbb    -0.0019    -1.005    -0.359    -0.335  0.8288  0.4111 -0.3796
              Bcc     0.0060     3.219     1.148     1.074  0.5379 -0.3982  0.7430
 
              Baa    -0.3651   -48.998   -17.484   -16.344  0.8526 -0.4667  0.2351
    11 C(13)  Bbb    -0.3621   -48.585   -17.336   -16.206 -0.1559  0.2023  0.9668
              Bcc     0.7272    97.583    34.820    32.550  0.4988  0.8610 -0.0998
 
              Baa    -0.0045    -0.602    -0.215    -0.201  0.1723  0.7546  0.6332
    12 C(13)  Bbb    -0.0020    -0.263    -0.094    -0.088  0.0253 -0.6460  0.7629
              Bcc     0.0064     0.865     0.309     0.289  0.9847 -0.1154 -0.1304
 
              Baa    -0.0072    -0.971    -0.347    -0.324  0.4820  0.8343  0.2675
    13 C(13)  Bbb     0.0005     0.069     0.025     0.023 -0.1585 -0.2173  0.9632
              Bcc     0.0067     0.903     0.322     0.301  0.8617 -0.5067  0.0275
 
              Baa    -0.0024    -1.267    -0.452    -0.423 -0.2745 -0.3511  0.8952
    14 H(1)   Bbb    -0.0018    -0.936    -0.334    -0.312  0.2986  0.8538  0.4264
              Bcc     0.0041     2.204     0.786     0.735  0.9140 -0.3844  0.1296
 
              Baa    -0.0026    -1.411    -0.503    -0.471 -0.1093  0.8477 -0.5191
    15 H(1)   Bbb    -0.0015    -0.787    -0.281    -0.262  0.0184  0.5239  0.8516
              Bcc     0.0041     2.198     0.784     0.733  0.9938  0.0835 -0.0729
 
              Baa    -0.0039    -2.083    -0.743    -0.695 -0.0372 -0.3748  0.9264
    16 H(1)   Bbb    -0.0026    -1.364    -0.487    -0.455  0.7407  0.6120  0.2773
              Bcc     0.0065     3.448     1.230     1.150 -0.6708  0.6965  0.2548
 
              Baa    -0.0024    -1.296    -0.462    -0.432  0.4622  0.2032  0.8632
    17 H(1)   Bbb    -0.0019    -1.032    -0.368    -0.344  0.2314  0.9120 -0.3387
              Bcc     0.0044     2.327     0.830     0.776  0.8560 -0.3563 -0.3745
 
              Baa    -0.3465   -14.205    -5.069    -4.738  0.4553 -0.4779  0.7512
    18 S(33)  Bbb    -0.1165    -4.775    -1.704    -1.593 -0.6466  0.4024  0.6480
              Bcc     0.4629    18.980     6.773     6.331  0.6120  0.7808  0.1258
 
              Baa    -0.2957   -12.124    -4.326    -4.044 -0.1768  0.5223  0.8342
    19 S(33)  Bbb    -0.0760    -3.116    -1.112    -1.039  0.6134 -0.6043  0.5084
              Bcc     0.3717    15.240     5.438     5.084  0.7697  0.6016 -0.2135
 
              Baa    -1.1304   -46.345   -16.537   -15.459 -0.4662  0.8786 -0.1039
    20 S(33)  Bbb    -1.0437   -42.790   -15.268   -14.273 -0.0673  0.0819  0.9944
              Bcc     2.1741    89.135    31.806    29.732  0.8821  0.4706  0.0209
 

 ---------------------------------------------------------------------------------

 Unable to Open any file for archive entry.
 1\1\GINC-SE073\Stability\UHF\Aug-CC-pVDZ\C6H11S3\OHZDE\09-Apr-2025\0\\
 #t hf aug-cc-pvdz symm=none int=(grid=ultrafine) guess=(read,tcheck) s
 table=opt\\title\\0,2\H,0,0.631352,0.697623,-0.237874\C,0,0.847165,-1.
 52259,-0.227314\H,0,0.429012,-2.460027,0.153362\C,0,2.907064,-0.032251
 ,-0.159627\H,0,3.81742,0.183034,0.400909\H,0,1.065552,-1.683402,-1.287
 095\H,0,3.198636,-0.317632,-1.172538\C,0,2.147609,-1.178506,0.502861\H
 ,0,2.789752,-2.063841,0.507465\H,0,1.937196,-0.929232,1.546342\C,0,-0.
 196502,-0.431792,-0.111345\C,0,-2.773189,0.304859,-0.453983\C,0,-2.224
 237,0.895309,0.834084\H,0,-3.29652,1.057789,-1.042974\H,0,-3.450375,-0
 .522425,-0.244157\H,0,-1.757173,1.86557,0.661143\H,0,-3.00359,1.006587
 ,1.587762\S,0,-1.375925,-0.327808,-1.448589\S,0,-0.975485,-0.255162,1.
 476378\S,0,1.938365,1.517707,-0.226564\\Version=ES64L-G16RevC.01\HF=-1
 426.1720373\S2=0.800429\S2-1=0.\S2A=0.751281\RMSD=8.690e-09\Dipole=-0.
 7364177,-0.5992895,0.2210883\Quadrupole=7.3251362,-2.7893635,-4.535772
 7,-7.6971805,-0.6783592,0.9791606\PG=Unknown\\@
 The archive entry for this job was punched.


 IN THE WOODS WE RETURN TO REASON AND FAITH.

                                 -- EMERSON
 Job cpu time:       0 days  0 hours 45 minutes 20.2 seconds.
 Elapsed time:       0 days  0 hours  3 minutes  1.8 seconds.
 File lengths (MBytes):  RWF=    538 Int=      0 D2E=      0 Chk=     17 Scr=      1
 Normal termination of Gaussian 16 at Wed Apr  9 01:00:00 2025.
 Initial command:
 /arc/software/Gaussian/g16.c01/l1.exe "/tmp/slurm/4855903/Gau-2404143.inp" -scrdir="/tmp/slurm/4855903/"
 Entering Link 1 = /arc/software/Gaussian/g16.c01/l1.exe PID=   2404456.
  
 Copyright (c) 1988-2019, Gaussian, Inc.  All Rights Reserved.
  
 This is part of the Gaussian(R) 16 program.  It is based on
 the Gaussian(R) 09 system (copyright 2009, Gaussian, Inc.),
 the Gaussian(R) 03 system (copyright 2003, Gaussian, Inc.),
 the Gaussian(R) 98 system (copyright 1998, Gaussian, Inc.),
 the Gaussian(R) 94 system (copyright 1995, Gaussian, Inc.),
 the Gaussian 92(TM) system (copyright 1992, Gaussian, Inc.),
 the Gaussian 90(TM) system (copyright 1990, Gaussian, Inc.),
 the Gaussian 88(TM) system (copyright 1988, Gaussian, Inc.),
 the Gaussian 86(TM) system (copyright 1986, Carnegie Mellon
 University), and the Gaussian 82(TM) system (copyright 1983,
 Carnegie Mellon University). Gaussian is a federally registered
 trademark of Gaussian, Inc.
  
 This software contains proprietary and confidential information,
 including trade secrets, belonging to Gaussian, Inc.
  
 This software is provided under written license and may be
 used, copied, transmitted, or stored only in accord with that
 written license.
  
 The following legend is applicable only to US Government
 contracts under FAR:
  
                    RESTRICTED RIGHTS LEGEND
  
 Use, reproduction and disclosure by the US Government is
 subject to restrictions as set forth in subparagraphs (a)
 and (c) of the Commercial Computer Software - Restricted
 Rights clause in FAR 52.227-19.
  
 Gaussian, Inc.
 340 Quinnipiac St., Bldg. 40, Wallingford CT 06492
  
  
 ---------------------------------------------------------------
 Warning -- This program may not be used in any manner that
 competes with the business of Gaussian, Inc. or will provide
 assistance to any competitor of Gaussian, Inc.  The licensee
 of this program is prohibited from giving any competitor of
 Gaussian, Inc. access to this program.  By using this program,
 the user acknowledges that Gaussian, Inc. is engaged in the
 business of creating and licensing software in the field of
 computational chemistry and represents and warrants to the
 licensee that it is not a competitor of Gaussian, Inc. and that
 it will not use this program in any manner prohibited above.
 ---------------------------------------------------------------
  

 Cite this work as:
 Gaussian 16, Revision C.01,
 M. J. Frisch, G. W. Trucks, H. B. Schlegel, G. E. Scuseria, 
 M. A. Robb, J. R. Cheeseman, G. Scalmani, V. Barone, 
 G. A. Petersson, H. Nakatsuji, X. Li, M. Caricato, A. V. Marenich, 
 J. Bloino, B. G. Janesko, R. Gomperts, B. Mennucci, H. P. Hratchian, 
 J. V. Ortiz, A. F. Izmaylov, J. L. Sonnenberg, D. Williams-Young, 
 F. Ding, F. Lipparini, F. Egidi, J. Goings, B. Peng, A. Petrone, 
 T. Henderson, D. Ranasinghe, V. G. Zakrzewski, J. Gao, N. Rega, 
 G. Zheng, W. Liang, M. Hada, M. Ehara, K. Toyota, R. Fukuda, 
 J. Hasegawa, M. Ishida, T. Nakajima, Y. Honda, O. Kitao, H. Nakai, 
 T. Vreven, K. Throssell, J. A. Montgomery, Jr., J. E. Peralta, 
 F. Ogliaro, M. J. Bearpark, J. J. Heyd, E. N. Brothers, K. N. Kudin, 
 V. N. Staroverov, T. A. Keith, R. Kobayashi, J. Normand, 
 K. Raghavachari, A. P. Rendell, J. C. Burant, S. S. Iyengar, 
 J. Tomasi, M. Cossi, J. M. Millam, M. Klene, C. Adamo, R. Cammi, 
 J. W. Ochterski, R. L. Martin, K. Morokuma, O. Farkas, 
 J. B. Foresman, and D. J. Fox, Gaussian, Inc., Wallingford CT, 2019.
 
 ******************************************
 Gaussian 16:  ES64L-G16RevC.01  3-Jul-2019
                 9-Apr-2025 
 ******************************************
 %nprocs=16
 Will use up to   16 processors via shared memory.
 %mem=30GB
 %chk=BH10_159_forward_mol1.chk
 ----------------------------------------------------------------------
 #t hf aug-cc-pvdz iop(5/13=1,5/36=2,99/5=2) pseudo=read geom=check gue
 ss=(read,tcheck) scf=(maxcycle=1)
 ----------------------------------------------------------------------
 -----
 title
 -----
 Structure from the checkpoint file:  "BH10_159_forward_mol1.chk"
 Charge =  0 Multiplicity = 2
 Z-Matrix found in chk file.
 H,0,0.631352,0.697623,-0.237874
 C,0,0.847165,-1.52259,-0.227314
 H,0,0.429012,-2.460027,0.153362
 C,0,2.907064,-0.032251,-0.159627
 H,0,3.81742,0.183034,0.400909
 H,0,1.065552,-1.683402,-1.287095
 H,0,3.198636,-0.317632,-1.172538
 C,0,2.147609,-1.178506,0.502861
 H,0,2.789752,-2.063841,0.507465
 H,0,1.937196,-0.929232,1.546342
 C,0,-0.196502,-0.431792,-0.111345
 C,0,-2.773189,0.304859,-0.453983
 C,0,-2.224237,0.895309,0.834084
 H,0,-3.29652,1.057789,-1.042974
 H,0,-3.450375,-0.522425,-0.244157
 H,0,-1.757173,1.86557,0.661143
 H,0,-3.00359,1.006587,1.587762
 S,0,-1.375925,-0.327808,-1.448589
 S,0,-0.975485,-0.255162,1.476378
 S,0,1.938365,1.517707,-0.226564
 Recover connectivity data from disk.
                    Distance matrix (angstroms):
                    1          2          3          4          5
     1  H    0.000000
     2  C    2.230702   0.000000
     3  H    3.188222   1.094785   0.000000
     4  C    2.391172   2.543398   3.483217   0.000000
     5  H    3.289966   3.482274   4.304458   1.090549   0.000000
     6  H    2.637930   1.093933   1.755917   2.718207   3.729037
     7  H    2.914668   2.806205   3.744153   1.091991   1.763319
     8  C    2.523407   1.530589   2.172101   1.526291   2.156955
     9  H    3.583281   2.146275   2.419803   2.141526   2.473035
    10  H    2.745052   2.164739   2.560927   2.157672   2.466657
    11  C    1.406033   1.514110   2.138942   3.129550   4.092919
    12  C    3.433929   4.061762   4.274056   5.697856   6.646940
    13  C    3.056561   4.050471   4.331442   5.308303   6.098901
    14  H    4.025678   4.949119   5.261733   6.360263   7.311507
    15  H    4.260170   4.412422   4.354534   6.376868   7.330391
    16  H    2.806668   4.364809   4.873196   5.102009   5.828785
    17  H    4.079364   4.951722   5.085044   6.250471   6.972305
    18  S    2.558613   2.803773   3.220311   4.482496   5.536464
    19  S    2.535426   2.798391   2.929917   4.219051   4.931591
    20  S    1.543032   3.230189   4.271400   1.828996   2.388707
                    6          7          8          9         10
     6  H    0.000000
     7  H    2.535448   0.000000
     8  C    2.151676   2.157017   0.000000
     9  H    2.517547   2.457406   1.093703   0.000000
    10  H    3.058905   3.059018   1.093281   1.758822   0.000000
    11  C    2.131126   3.558950   2.535683   3.458934   2.747370
    12  C    4.402634   6.047025   5.227827   6.122208   5.264220
    13  C    4.687415   5.908072   4.850098   5.831238   4.599325
    14  H    5.157654   6.640453   6.085159   7.013640   6.168030
    15  H    4.777990   6.716634   5.685587   6.471482   5.691863
    16  H    4.935444   5.717412   4.953663   6.011523   4.716233
    17  H    5.662046   6.916677   5.699692   6.645102   5.306645
    18  S    2.797235   4.582894   4.116690   4.918620   4.506450
    19  S    3.720549   4.944082   3.399120   4.288021   2.990481
    20  S    3.483336   2.419012   2.800966   3.753817   3.021706
                   11         12         13         14         15
    11  C    0.000000
    12  C    2.701735   0.000000
    13  C    2.601296   1.519571   0.000000
    14  H    3.563270   1.089812   2.167842   0.000000
    15  H    3.257843   1.089498   2.162403   1.777317   0.000000
    16  H    2.882760   2.170625   1.090625   2.434361   3.064151
    17  H    3.582686   2.171228   1.089864   2.647490   2.427637
    18  S    1.786077   1.828074   2.725114   2.402725   2.406631
    19  S    1.777323   2.696601   1.815353   3.668539   3.026012
    20  S    2.893351   4.870468   4.340462   5.318089   5.762028
                   16         17         18         19         20
    16  H    0.000000
    17  H    1.774832   0.000000
    18  S    3.067120   3.694500   0.000000
    19  S    2.402738   2.391156   2.953144   0.000000
    20  S    3.816547   5.289229   3.985447   3.812296   0.000000
 Framework group  C1[X(C6H11S3)]
 Deg. of freedom    54
                         Standard orientation:                         
 ---------------------------------------------------------------------
 Center     Atomic      Atomic             Coordinates (Angstroms)
 Number     Number       Type             X           Y           Z
 ---------------------------------------------------------------------
      1          1           0        0.631352    0.697623   -0.237874
      2          6           0        0.847165   -1.522590   -0.227314
      3          1           0        0.429012   -2.460027    0.153362
      4          6           0        2.907064   -0.032251   -0.159627
      5          1           0        3.817420    0.183034    0.400909
      6          1           0        1.065552   -1.683402   -1.287095
      7          1           0        3.198636   -0.317632   -1.172538
      8          6           0        2.147609   -1.178506    0.502861
      9          1           0        2.789752   -2.063841    0.507465
     10          1           0        1.937196   -0.929232    1.546342
     11          6           0       -0.196502   -0.431792   -0.111345
     12          6           0       -2.773189    0.304859   -0.453983
     13          6           0       -2.224237    0.895309    0.834084
     14          1           0       -3.296520    1.057789   -1.042974
     15          1           0       -3.450375   -0.522425   -0.244157
     16          1           0       -1.757173    1.865570    0.661143
     17          1           0       -3.003590    1.006587    1.587762
     18         16           0       -1.375925   -0.327808   -1.448589
     19         16           0       -0.975485   -0.255162    1.476378
     20         16           0        1.938365    1.517707   -0.226564
 ---------------------------------------------------------------------
 Rotational constants (GHZ):           1.5794462           0.6658360           0.6593158
 ======================================================================================================
                                       Pseudopotential Parameters
 ======================================================================================================
  Center     Atomic      Valence      Angular      Power
  Number     Number     Electrons     Momentum     of R      Exponent        Coefficient   SO-Coeffient
 ======================================================================================================
    1          1            1
                                      F and up 
                                                     0        0.0000010       -0.00007675    0.00000000
                                                     2        0.1200000        0.05352699    0.00000000
                                                     2        0.1400000       -0.25123645    0.00000000
                                                     2        0.1600000        0.32188106    0.00000000
                                                     2        0.2200000       -0.25206857    0.00000000
                                                     2        0.3000000        0.19290477    0.00000000
                                                     2        0.5000000       -0.10129770    0.00000000
                                                     2        0.9000000        0.00314995    0.00000000
                                                     2        1.5000000        0.18401192    0.00000000
                                      S - F
                                                     0        0.0000010        0.08065976    0.00000000
                                                     2        0.1200000       -0.09231673    0.00000000
                                                     2        0.1600000       -0.03278082    0.00000000
                                                     2        0.2800000        0.38423402    0.00000000
                                                     2        0.6000000       -1.09357590    0.00000000
                                                     2        1.1000000        1.53099489    0.00000000
                                                     2        3.0000000       -2.63300202    0.00000000
                                      P - F
                                                     0        0.0000010       -0.11638665    0.00000000
                                                     2        0.1200000        0.35468655    0.00000000
                                                     2        0.1600000       -0.59160923    0.00000000
                                                     2        0.3000000        0.49390547    0.00000000
                                                     2        0.6000000       -0.37949835    0.00000000
                                                     2        1.6000000        0.89304688    0.00000000
                                      D - F
                                                     0        0.0000010        0.05443663    0.00000000
                                                     2        0.1200000       -0.29679479    0.00000000
                                                     2        0.1400000        0.36849872    0.00000000
                                                     2        0.2400000        0.02793449    0.00000000
                                                     2        0.4000000       -0.46312857    0.00000000
                                                     2        0.7000000        0.97587598    0.00000000
                                                     2        1.5000000       -2.43431102    0.00000000
    2          6            6
                                      G and up 
                                                     0        0.0000010       -0.00007288    0.00000000
                                                     2        0.1200000        0.10466671    0.00000000
                                                     2        0.1400000       -0.65716157    0.00000000
                                                     2        0.1600000        1.18890794    0.00000000
                                                     2        0.2000000       -1.25772850    0.00000000
                                                     2        0.2600000        1.01188378    0.00000000
                                                     2        0.4000000       -1.09380874    0.00000000
                                                     2        0.5000000        0.96944888    0.00000000
                                                     2        1.0000000       -0.79256938    0.00000000
                                                     2        3.0000000        1.06443276    0.00000000
                                      S - G
                                                     0        0.0000010       -0.00635295    0.00000000
                                                     2        0.1200000        0.16918955    0.00000000
                                                     2        0.1600000       -0.38862576    0.00000000
                                                     2        0.2800000        0.25638263    0.00000000
                                                     2        0.5000000        0.29628419    0.00000000
                                                     2        0.9000000       -0.28791512    0.00000000
                                      P - G
                                                     0        0.0000010       -0.04756931    0.00000000
                                                     2        0.1200000        0.28430375    0.00000000
                                                     2        0.1600000       -0.69640032    0.00000000
                                                     2        0.2600000        1.13005668    0.00000000
                                                     2        0.4000000       -1.31433324    0.00000000
                                                     2        0.7000000        0.91526469    0.00000000
                                      D - G
                                                     0        0.0000010       -0.11496411    0.00000000
                                                     2        0.1200000        0.16620776    0.00000000
                                                     2        0.1800000       -0.30959819    0.00000000
                                                     2        0.3000000        0.16621458    0.00000000
                                                     2        0.6000000        0.27350556    0.00000000
                                      F - G
                                                     0        0.0000010        0.12037550    0.00000000
                                                     2        0.1200000       -0.48737077    0.00000000
                                                     2        0.1400000        0.58315350    0.00000000
                                                     2        0.3000000        0.00005188    0.00000000
                                                     2        0.5000000       -1.16063549    0.00000000
                                                     2        0.8000000        2.09053308    0.00000000
    3          1            1
                                      F and up 
                                                     0        0.0000010       -0.00007675    0.00000000
                                                     2        0.1200000        0.05352699    0.00000000
                                                     2        0.1400000       -0.25123645    0.00000000
                                                     2        0.1600000        0.32188106    0.00000000
                                                     2        0.2200000       -0.25206857    0.00000000
                                                     2        0.3000000        0.19290477    0.00000000
                                                     2        0.5000000       -0.10129770    0.00000000
                                                     2        0.9000000        0.00314995    0.00000000
                                                     2        1.5000000        0.18401192    0.00000000
                                      S - F
                                                     0        0.0000010        0.08065976    0.00000000
                                                     2        0.1200000       -0.09231673    0.00000000
                                                     2        0.1600000       -0.03278082    0.00000000
                                                     2        0.2800000        0.38423402    0.00000000
                                                     2        0.6000000       -1.09357590    0.00000000
                                                     2        1.1000000        1.53099489    0.00000000
                                                     2        3.0000000       -2.63300202    0.00000000
                                      P - F
                                                     0        0.0000010       -0.11638665    0.00000000
                                                     2        0.1200000        0.35468655    0.00000000
                                                     2        0.1600000       -0.59160923    0.00000000
                                                     2        0.3000000        0.49390547    0.00000000
                                                     2        0.6000000       -0.37949835    0.00000000
                                                     2        1.6000000        0.89304688    0.00000000
                                      D - F
                                                     0        0.0000010        0.05443663    0.00000000
                                                     2        0.1200000       -0.29679479    0.00000000
                                                     2        0.1400000        0.36849872    0.00000000
                                                     2        0.2400000        0.02793449    0.00000000
                                                     2        0.4000000       -0.46312857    0.00000000
                                                     2        0.7000000        0.97587598    0.00000000
                                                     2        1.5000000       -2.43431102    0.00000000
    4          6            6
                                      G and up 
                                                     0        0.0000010       -0.00007288    0.00000000
                                                     2        0.1200000        0.10466671    0.00000000
                                                     2        0.1400000       -0.65716157    0.00000000
                                                     2        0.1600000        1.18890794    0.00000000
                                                     2        0.2000000       -1.25772850    0.00000000
                                                     2        0.2600000        1.01188378    0.00000000
                                                     2        0.4000000       -1.09380874    0.00000000
                                                     2        0.5000000        0.96944888    0.00000000
                                                     2        1.0000000       -0.79256938    0.00000000
                                                     2        3.0000000        1.06443276    0.00000000
                                      S - G
                                                     0        0.0000010       -0.00635295    0.00000000
                                                     2        0.1200000        0.16918955    0.00000000
                                                     2        0.1600000       -0.38862576    0.00000000
                                                     2        0.2800000        0.25638263    0.00000000
                                                     2        0.5000000        0.29628419    0.00000000
                                                     2        0.9000000       -0.28791512    0.00000000
                                      P - G
                                                     0        0.0000010       -0.04756931    0.00000000
                                                     2        0.1200000        0.28430375    0.00000000
                                                     2        0.1600000       -0.69640032    0.00000000
                                                     2        0.2600000        1.13005668    0.00000000
                                                     2        0.4000000       -1.31433324    0.00000000
                                                     2        0.7000000        0.91526469    0.00000000
                                      D - G
                                                     0        0.0000010       -0.11496411    0.00000000
                                                     2        0.1200000        0.16620776    0.00000000
                                                     2        0.1800000       -0.30959819    0.00000000
                                                     2        0.3000000        0.16621458    0.00000000
                                                     2        0.6000000        0.27350556    0.00000000
[...]
 Alpha virt. eigenvalues --    0.97705   0.98583   0.99252   1.01557   1.01899
 Alpha virt. eigenvalues --    1.05133   1.06770   1.09470   1.10276   1.11854
 Alpha virt. eigenvalues --    1.12828   1.13911   1.16319   1.17135   1.19312
 Alpha virt. eigenvalues --    1.20325   1.21094   1.23595   1.23984   1.25383
 Alpha virt. eigenvalues --    1.27010   1.28141   1.29270   1.30783   1.31304
 Alpha virt. eigenvalues --    1.31954   1.33337   1.34224   1.35493   1.36359
 Alpha virt. eigenvalues --    1.36809   1.38196   1.39367   1.41028   1.41570
 Alpha virt. eigenvalues --    1.42974   1.44663   1.45233   1.47603   1.49158
 Alpha virt. eigenvalues --    1.51750   1.52682   1.53181   1.53844   1.56114
 Alpha virt. eigenvalues --    1.58778   1.60175   1.63631   1.64431   1.66368
 Alpha virt. eigenvalues --    1.70160   1.71737   1.73854   1.76458   1.77897
 Alpha virt. eigenvalues --    1.79054   1.81037   1.82732   1.85378   1.86425
 Alpha virt. eigenvalues --    1.87470   1.88947   1.89248   1.92442   1.94938
 Alpha virt. eigenvalues --    1.95551   1.98104   1.99185   2.01318   2.03578
 Alpha virt. eigenvalues --    2.04654   2.06935   2.08196   2.09728   2.11064
 Alpha virt. eigenvalues --    2.11997   2.13376   2.15566   2.16529   2.18391
 Alpha virt. eigenvalues --    2.20917   2.21291   2.22544   2.23252   2.26495
 Alpha virt. eigenvalues --    2.27511   2.28620   2.29956   2.32661   2.34831
 Alpha virt. eigenvalues --    2.36468   2.37633   2.38904   2.40545   2.41044
 Alpha virt. eigenvalues --    2.41816   2.42477   2.45461   2.47182   2.49081
 Alpha virt. eigenvalues --    2.50128   2.53324   2.55756   2.56757   2.62338
 Alpha virt. eigenvalues --    2.65084   2.66729   2.68024   2.68752   2.69299
 Alpha virt. eigenvalues --    2.72425   2.76256   2.78228   2.81935   2.83216
 Alpha virt. eigenvalues --    2.89163   2.95908   2.98351   3.00234   3.03319
 Alpha virt. eigenvalues --    3.09034   3.13427   3.15367   3.17782   3.19056
 Alpha virt. eigenvalues --    3.23189   3.24265   3.32043   3.43915   3.65713
  Beta  occ. eigenvalues --  -93.96382 -93.96233 -93.92210 -11.30326 -11.28954
  Beta  occ. eigenvalues --  -11.28783 -11.26301 -11.25793 -11.24564  -8.24525
  Beta  occ. eigenvalues --   -8.24349  -8.20221  -6.22369  -6.22221  -6.22202
  Beta  occ. eigenvalues --   -6.22048  -6.21872  -6.21672  -6.18117  -6.17794
  Beta  occ. eigenvalues --   -6.17134  -1.17502  -1.10810  -1.02777  -1.02588
  Beta  occ. eigenvalues --   -0.97227  -0.89475  -0.83075  -0.79895  -0.73766
  Beta  occ. eigenvalues --   -0.67032  -0.65810  -0.65085  -0.61366  -0.59723
  Beta  occ. eigenvalues --   -0.57076  -0.53223  -0.52941  -0.51687  -0.51173
  Beta  occ. eigenvalues --   -0.49423  -0.48765  -0.44845  -0.44311  -0.37390
  Beta  occ. eigenvalues --   -0.36246  -0.33381
  Beta virt. eigenvalues --    0.03003   0.03021   0.03855   0.04290   0.04401
  Beta virt. eigenvalues --    0.05086   0.05234   0.06328   0.06850   0.07670
  Beta virt. eigenvalues --    0.08233   0.09275   0.09882   0.10977   0.11778
  Beta virt. eigenvalues --    0.12072   0.13326   0.13791   0.14090   0.15075
  Beta virt. eigenvalues --    0.15234   0.15486   0.15784   0.16121   0.16579
  Beta virt. eigenvalues --    0.16994   0.17177   0.17501   0.17935   0.18410
  Beta virt. eigenvalues --    0.18857   0.19028   0.19834   0.20489   0.20712
  Beta virt. eigenvalues --    0.21006   0.21444   0.22305   0.22498   0.23136
  Beta virt. eigenvalues --    0.23441   0.24193   0.24963   0.25101   0.26081
  Beta virt. eigenvalues --    0.26531   0.26818   0.28333   0.29197   0.30292
  Beta virt. eigenvalues --    0.31408   0.32243   0.33505   0.34004   0.34630
  Beta virt. eigenvalues --    0.35179   0.36098   0.36385   0.37860   0.38111
  Beta virt. eigenvalues --    0.38861   0.39463   0.40070   0.40631   0.41775
  Beta virt. eigenvalues --    0.41958   0.42433   0.43378   0.43935   0.44173
  Beta virt. eigenvalues --    0.44386   0.45214   0.46235   0.46363   0.46878
  Beta virt. eigenvalues --    0.47405   0.48414   0.48471   0.49342   0.49472
  Beta virt. eigenvalues --    0.50313   0.50742   0.52226   0.53170   0.54353
  Beta virt. eigenvalues --    0.54907   0.55518   0.55898   0.56241   0.57630
  Beta virt. eigenvalues --    0.58278   0.58703   0.58856   0.60060   0.60171
  Beta virt. eigenvalues --    0.61313   0.61970   0.62920   0.64253   0.65244
  Beta virt. eigenvalues --    0.65448   0.66050   0.66953   0.67996   0.68248
  Beta virt. eigenvalues --    0.69334   0.69902   0.70164   0.70470   0.72061
  Beta virt. eigenvalues --    0.72786   0.73131   0.73616   0.74743   0.76111
  Beta virt. eigenvalues --    0.76731   0.77214   0.77422   0.77547   0.78087
  Beta virt. eigenvalues --    0.78824   0.80629   0.81596   0.82413   0.83130
  Beta virt. eigenvalues --    0.83753   0.83975   0.85130   0.85740   0.86431
  Beta virt. eigenvalues --    0.88298   0.88395   0.89693   0.89876   0.91136
  Beta virt. eigenvalues --    0.91623   0.92307   0.94108   0.95498   0.95871
  Beta virt. eigenvalues --    0.96658   0.98241   0.98703   0.99740   1.01776
  Beta virt. eigenvalues --    1.02057   1.05489   1.07385   1.09623   1.10608
  Beta virt. eigenvalues --    1.12021   1.12991   1.14170   1.16435   1.17410
  Beta virt. eigenvalues --    1.19603   1.20507   1.21463   1.23742   1.24757
  Beta virt. eigenvalues --    1.25742   1.27237   1.28476   1.29635   1.31105
  Beta virt. eigenvalues --    1.32250   1.33553   1.34186   1.34823   1.36701
  Beta virt. eigenvalues --    1.37147   1.38193   1.38642   1.39910   1.41434
  Beta virt. eigenvalues --    1.41966   1.43575   1.45006   1.45601   1.47879
  Beta virt. eigenvalues --    1.49525   1.52046   1.52842   1.53465   1.54142
  Beta virt. eigenvalues --    1.56391   1.59087   1.60485   1.63774   1.64957
  Beta virt. eigenvalues --    1.66801   1.70499   1.72090   1.74071   1.76735
  Beta virt. eigenvalues --    1.78045   1.79132   1.81347   1.83525   1.85515
  Beta virt. eigenvalues --    1.86518   1.87746   1.89718   1.89768   1.92916
  Beta virt. eigenvalues --    1.95473   1.95892   1.98583   1.99748   2.01521
  Beta virt. eigenvalues --    2.03751   2.04770   2.07438   2.09067   2.10373
  Beta virt. eigenvalues --    2.11480   2.12197   2.13932   2.16086   2.16711
  Beta virt. eigenvalues --    2.18726   2.21147   2.21489   2.22674   2.23601
  Beta virt. eigenvalues --    2.26680   2.27767   2.28695   2.29974   2.32838
  Beta virt. eigenvalues --    2.34957   2.36536   2.37783   2.39100   2.40741
  Beta virt. eigenvalues --    2.41277   2.41954   2.42616   2.45526   2.47307
  Beta virt. eigenvalues --    2.49031   2.50381   2.53572   2.55961   2.56901
  Beta virt. eigenvalues --    2.62390   2.65245   2.67033   2.68147   2.68869
  Beta virt. eigenvalues --    2.69496   2.72475   2.76373   2.78323   2.82003
  Beta virt. eigenvalues --    2.83488   2.89929   2.95988   2.98449   3.00325
  Beta virt. eigenvalues --    3.03356   3.09162   3.13564   3.15392   3.17924
  Beta virt. eigenvalues --    3.19141   3.23236   3.24377   3.32091   3.44048
  Beta virt. eigenvalues --    3.66119
          Condensed to atoms (all electrons):
          Atomic-Atomic Spin Densities.
 Mulliken charges and spin densities:
               1          2
     1  H    1.148120  -0.330603
     2  C   -0.247687  -0.144853
     3  H    0.130099   0.025139
     4  C   -0.638601  -0.059210
     5  H    0.171202   0.005227
     6  H    0.205412  -0.001075
     7  H    0.183971   0.001659
     8  C   -0.283025   0.031882
     9  H    0.144978  -0.003166
    10  H    0.158485   0.002045
    11  C   -1.387407   0.927574
    12  C   -0.692589  -0.005239
    13  C   -0.458936  -0.017516
    14  H    0.190669   0.000303
    15  H    0.203646  -0.003453
    16  H    0.171262   0.000351
    17  H    0.151871  -0.001044
    18  S    0.520166   0.028353
    19  S    0.436157   0.008106
    20  S   -0.107793   0.535518
 Sum of Mulliken charges =   0.00000   1.00000
 Mulliken charges and spin densities with hydrogens summed into heavy atoms:
               1          2
     2  C    0.087825  -0.120789
     4  C   -0.283427  -0.052323
     8  C    0.020437   0.030761
    11  C   -0.239287   0.596971
    12  C   -0.298274  -0.008389
    13  C   -0.135804  -0.018208
    18  S    0.520166   0.028353
    19  S    0.436157   0.008106
    20  S   -0.107793   0.535518
 Electronic spatial extent (au):  <R**2>=           2004.6533
 Charge=              0.0000 electrons
 Dipole moment (field-independent basis, Debye):
    X=             -1.8998    Y=             -1.5202    Z=              0.5578  Tot=              2.4963
                          Isotropic Fermi Contact Couplings
        Atom                 a.u.       MegaHertz       Gauss      10(-4) cm-1
     1  H(1)              -0.05956    -266.24371     -95.00238     -88.80934
     2  C(13)             -0.02395     -26.92297      -9.60678      -8.98053
     3  H(1)               0.01189      53.15102      18.96561      17.72927
     4  C(13)             -0.01288     -14.48461      -5.16847      -4.83155
     5  H(1)               0.00482      21.55253       7.69048       7.18915
     6  H(1)               0.00123       5.48851       1.95844       1.83077
     7  H(1)               0.00025       1.12898       0.40285       0.37659
     8  C(13)              0.00880       9.89215       3.52976       3.29966
     9  H(1)              -0.00091      -4.05578      -1.44720      -1.35286
    10  H(1)              -0.00059      -2.61679      -0.93373      -0.87287
    11  C(13)              0.25098     282.14920     100.67785      94.11484
    12  C(13)             -0.00098      -1.10176      -0.39313      -0.36751
    13  C(13)              0.00056       0.63004       0.22481       0.21016
    14  H(1)              -0.00061      -2.70808      -0.96631      -0.90332
    15  H(1)               0.00087       3.89261       1.38898       1.29843
    16  H(1)               0.00031       1.38837       0.49541       0.46311
    17  H(1)              -0.00045      -1.99721      -0.71265      -0.66620
    18  S(33)              0.02665       9.15301       3.26602       3.05311
    19  S(33)              0.00251       0.86190       0.30755       0.28750
    20  S(33)              0.11736      40.31061      14.38383      13.44617
 --------------------------------------------------------
       Center         ----  Spin Dipole Couplings  ----
                      3XX-RR        3YY-RR        3ZZ-RR
 --------------------------------------------------------
     1   Atom        0.040609      0.057997     -0.098606
     2   Atom       -0.004142      0.008168     -0.004025
     3   Atom       -0.001545      0.005428     -0.003883
     4   Atom        0.002928      0.000223     -0.003152
     5   Atom        0.002827      0.001095     -0.003922
     6   Atom       -0.000158      0.004295     -0.004137
     7   Atom        0.001932      0.002243     -0.004175
     8   Atom        0.010362      0.005417     -0.015779
     9   Atom        0.001881      0.002131     -0.004011
    10   Atom        0.000371     -0.002134      0.001763
    11   Atom       -0.091618      0.436179     -0.344560
    12   Atom        0.006066     -0.003263     -0.002802
    13   Atom        0.003290     -0.003210     -0.000081
    14   Atom        0.003107     -0.000958     -0.002149
    15   Atom        0.004033     -0.002280     -0.001753
    16   Atom        0.001500      0.001618     -0.003119
    17   Atom        0.002573     -0.001148     -0.001425
    18   Atom        0.052792      0.190463     -0.243255
    19   Atom        0.185967      0.027127     -0.213095
    20   Atom        1.466112     -0.404832     -1.061280
 --------------------------------------------------------
                        XY            XZ            YZ
 --------------------------------------------------------
     1   Atom        0.145333     -0.011680     -0.013825
     2   Atom       -0.006404      0.002832      0.004084
     3   Atom       -0.005202     -0.000065     -0.000299
     4   Atom        0.007338      0.000710      0.001316
     5   Atom       -0.004791      0.001974     -0.002117
     6   Atom       -0.005034     -0.004972      0.006146
     7   Atom       -0.002837     -0.002527      0.002745
     8   Atom        0.012969      0.005016     -0.002045
     9   Atom       -0.003856      0.000862     -0.001011
    10   Atom       -0.001410      0.003340     -0.003351
    11   Atom        0.460005     -0.053742     -0.091421
    12   Atom       -0.001286     -0.001373     -0.001033
    13   Atom       -0.005826     -0.000840     -0.001863
    14   Atom       -0.002123      0.000846     -0.000097
    15   Atom        0.000576     -0.000479      0.000485
    16   Atom       -0.004219     -0.001484      0.002067
    17   Atom       -0.001970     -0.002207      0.000748
    18   Atom        0.335660     -0.034708      0.141150
    19   Atom        0.234346     -0.042634     -0.156308
    20   Atom        1.396070      0.056001      0.040291
 --------------------------------------------------------


 ---------------------------------------------------------------------------------
              Anisotropic Spin Dipole Couplings in Principal Axis System
 ---------------------------------------------------------------------------------

       Atom             a.u.   MegaHertz   Gauss  10(-4) cm-1        Axes

              Baa    -0.1000   -53.341   -19.033   -17.793 -0.1459  0.2187  0.9648
     1 H(1)   Bbb    -0.0960   -51.238   -18.283   -17.091  0.7145 -0.6512  0.2557
              Bcc     0.1960   104.579    37.316    34.884  0.6842  0.7267 -0.0612
 
              Baa    -0.0100    -1.342    -0.479    -0.448  0.7060  0.3827 -0.5959
     2 C(13)  Bbb    -0.0014    -0.185    -0.066    -0.062  0.6175  0.0794  0.7826
              Bcc     0.0114     1.527     0.545     0.509 -0.3468  0.9204  0.1803
 
              Baa    -0.0044    -2.346    -0.837    -0.783  0.8192  0.4447  0.3620
     3 H(1)   Bbb    -0.0038    -2.033    -0.726    -0.678 -0.3279 -0.1545  0.9320
              Bcc     0.0082     4.379     1.563     1.461 -0.4704  0.8822 -0.0193
 
              Baa    -0.0060    -0.805    -0.287    -0.269 -0.6125  0.7646 -0.2006
     4 C(13)  Bbb    -0.0032    -0.429    -0.153    -0.143 -0.2137  0.0841  0.9733
              Bcc     0.0092     1.234     0.440     0.412  0.7610  0.6390  0.1119
 
              Baa    -0.0047    -2.512    -0.896    -0.838 -0.0604  0.2977  0.9528
     5 H(1)   Bbb    -0.0028    -1.516    -0.541    -0.506  0.6710  0.7188 -0.1821
              Bcc     0.0076     4.028     1.437     1.344  0.7390 -0.6283  0.2431
 
              Baa    -0.0082    -4.373    -1.561    -1.459  0.3673 -0.2873  0.8846
     6 H(1)   Bbb    -0.0033    -1.779    -0.635    -0.593  0.7793  0.6142 -0.1241
              Bcc     0.0115     6.152     2.195     2.052 -0.5077  0.7350  0.4495
 
              Baa    -0.0055    -2.939    -1.049    -0.980  0.2238 -0.2515  0.9416
     7 H(1)   Bbb    -0.0008    -0.402    -0.144    -0.134  0.7301  0.6832  0.0089
              Bcc     0.0063     3.341     1.192     1.115 -0.6456  0.6855  0.3366
 
              Baa    -0.0178    -2.385    -0.851    -0.796 -0.2749  0.2359  0.9321
     8 C(13)  Bbb    -0.0035    -0.469    -0.167    -0.157 -0.5669  0.7432 -0.3553
              Bcc     0.0213     2.855     1.019     0.952  0.7766  0.6261  0.0706
 
              Baa    -0.0042    -2.235    -0.798    -0.746 -0.0651  0.1188  0.9908
     9 H(1)   Bbb    -0.0018    -0.987    -0.352    -0.329  0.7222  0.6907 -0.0354
              Bcc     0.0060     3.222     1.150     1.075 -0.6886  0.7133 -0.1308
 
              Baa    -0.0041    -2.204    -0.787    -0.735 -0.1533  0.8192  0.5526
    10 H(1)   Bbb    -0.0019    -0.997    -0.356    -0.333  0.8277  0.4119 -0.3811
              Bcc     0.0060     3.201     1.142     1.068  0.5398 -0.3990  0.7412
 
              Baa    -0.3582   -48.067   -17.152   -16.033  0.8550 -0.4698  0.2199
    11 C(13)  Bbb    -0.3550   -47.643   -17.000   -15.892 -0.1425  0.1949  0.9704
              Bcc     0.7132    95.710    34.152    31.925  0.4987  0.8610 -0.0998
 
              Baa    -0.0044    -0.594    -0.212    -0.198  0.1753  0.7561  0.6306
    12 C(13)  Bbb    -0.0020    -0.266    -0.095    -0.089  0.0275 -0.6440  0.7645
              Bcc     0.0064     0.859     0.307     0.287  0.9841 -0.1167 -0.1337
 
              Baa    -0.0072    -0.968    -0.345    -0.323  0.4832  0.8314  0.2743
    13 C(13)  Bbb     0.0005     0.066     0.024     0.022 -0.1681 -0.2194  0.9611
              Bcc     0.0067     0.902     0.322     0.301  0.8592 -0.5105  0.0337
 
              Baa    -0.0024    -1.265    -0.451    -0.422 -0.2744 -0.3511  0.8952
    14 H(1)   Bbb    -0.0017    -0.933    -0.333    -0.311  0.2989  0.8537  0.4264
              Bcc     0.0041     2.198     0.784     0.733  0.9140 -0.3846  0.1293
 
              Baa    -0.0027    -1.415    -0.505    -0.472 -0.1102  0.8486 -0.5174
    15 H(1)   Bbb    -0.0015    -0.782    -0.279    -0.261  0.0196  0.5223  0.8525
              Bcc     0.0041     2.197     0.784     0.733  0.9937  0.0838 -0.0742
 
              Baa    -0.0039    -2.079    -0.742    -0.694 -0.0413 -0.3781  0.9248
    16 H(1)   Bbb    -0.0025    -1.357    -0.484    -0.453  0.7402  0.6101  0.2825
              Bcc     0.0064     3.437     1.226     1.146 -0.6711  0.6963  0.2547
 
              Baa    -0.0024    -1.296    -0.462    -0.432  0.4620  0.2069  0.8624
    17 H(1)   Bbb    -0.0019    -1.029    -0.367    -0.343  0.2309  0.9108 -0.3422
              Bcc     0.0044     2.325     0.830     0.775  0.8563 -0.3572 -0.3731
 
              Baa    -0.3540   -14.513    -5.179    -4.841  0.4573 -0.4766  0.7508
    18 S(33)  Bbb    -0.1212    -4.970    -1.773    -1.658 -0.6461  0.4020  0.6488
              Bcc     0.4752    19.483     6.952     6.499  0.6110  0.7818  0.1241
 
              Baa    -0.3020   -12.382    -4.418    -4.130 -0.1782  0.5228  0.8336
    19 S(33)  Bbb    -0.0795    -3.259    -1.163    -1.087  0.6140 -0.6029  0.5094
              Bcc     0.3815    15.641     5.581     5.217  0.7689  0.6027 -0.2136
 
              Baa    -1.1508   -47.183   -16.836   -15.739 -0.4664  0.8785 -0.1036
    20 S(33)  Bbb    -1.0618   -43.531   -15.533   -14.520 -0.0671  0.0816  0.9944
              Bcc     2.2126    90.714    32.369    30.259  0.8820  0.4708  0.0209
 

 ---------------------------------------------------------------------------------


 Test job not archived.
 1\1\GINC-SE073\SP\UHF\Aug-CC-pVDZ\C6H11S3(2)\OHZDE\09-Apr-2025\0\\#t h
 f aug-cc-pvdz iop(5/13=1,5/36=2,99/5=2) pseudo=read geom=check guess=(
 read,tcheck) scf=(maxcycle=1)\\title\\0,2\H,0,0.631352,0.697623,-0.237
 874\C,0,0.847165,-1.52259,-0.227314\H,0,0.429012,-2.460027,0.153362\C,
 0,2.907064,-0.032251,-0.159627\H,0,3.81742,0.183034,0.400909\H,0,1.065
 552,-1.683402,-1.287095\H,0,3.198636,-0.317632,-1.172538\C,0,2.147609,
 -1.178506,0.502861\H,0,2.789752,-2.063841,0.507465\H,0,1.937196,-0.929
 232,1.546342\C,0,-0.196502,-0.431792,-0.111345\C,0,-2.773189,0.304859,
 -0.453983\C,0,-2.224237,0.895309,0.834084\H,0,-3.29652,1.057789,-1.042
 974\H,0,-3.450375,-0.522425,-0.244157\H,0,-1.757173,1.86557,0.661143\H
 ,0,-3.00359,1.006587,1.587762\S,0,-1.375925,-0.327808,-1.448589\S,0,-0
 .975485,-0.255162,1.476378\S,0,1.938365,1.517707,-0.226564\\Version=ES
 64L-G16RevC.01\State=2-A\HF=-1426.6000983\S2=0.798902\S2-1=0.\S2A=0.75
 1204\RMSD=8.635e-03\Dipole=-0.7474345,-0.5980837,0.2194573\Quadrupole=
 7.411885,-2.843744,-4.5681409,-7.815015,-0.6761148,0.986477\PG=C01 [X(
 C6H11S3)]\\@


 EXPERIENCE IS THE FRUIT OF THE TREE OF ERRORS.
 Job cpu time:       0 days  0 hours  3 minutes  8.4 seconds.
 Elapsed time:       0 days  0 hours  0 minutes 13.7 seconds.
 File lengths (MBytes):  RWF=     18 Int=      0 D2E=      0 Chk=     17 Scr=      1
 Normal termination of Gaussian 16 at Wed Apr  9 01:00:14 2025.
