 Entering Gaussian System, Link 0=g16
 Input=E2SN2_377_mol1.gjf
 Output=E2SN2_377_mol1.log
 Initial command:
 /arc/software/Gaussian/g16.c01/l1.exe "/tmp/slurm/4860069/Gau-4052394.inp" -scrdir="/tmp/slurm/4860069/"
 Entering Link 1 = /arc/software/Gaussian/g16.c01/l1.exe PID=   4052395.
  
 Copyright (c) 1988-2019, Gaussian, Inc.  All Rights Reserved.
  
 This is part of the Gaussian(R) 16 program.  It is based on
 the Gaussian(R) 09 system (copyright 2009, Gaussian, Inc.),
 the Gaussian(R) 03 system (copyright 2003, Gaussian, Inc.),
 the Gaussian(R) 98 system (copyright 1998, Gaussian, Inc.),
 the Gaussian(R) 94 system (copyright 1995, Gaussian, Inc.),
 the Gaussian 92(TM) system (copyright 1992, Gaussian, Inc.),
 the Gaussian 90(TM) system (copyright 1990, Gaussian, Inc.),
 the Gaussian 88(TM) system (copyright 1988, Gaussian, Inc.),
 the Gaussian 86(TM) system (copyright 1986, Carnegie Mellon
 University), and the Gaussian 82(TM) system (copyright 1983,
 Carnegie Mellon University). Gaussian is a federally registered
 trademark of Gaussian, Inc.
  
 This software contains proprietary and confidential information,
 including trade secrets, belonging to Gaussian, Inc.
  
 This software is provided under written license and may be
 used, copied, transmitted, or stored only in accord with that
 written license.
  
 The following legend is applicable only to US Government
 contracts under FAR:
  
                    RESTRICTED RIGHTS LEGEND
  
 Use, reproduction and disclosure by the US Government is
 subject to restrictions as set forth in subparagraphs (a)
 and (c) of the Commercial Computer Software - Restricted
 Rights clause in FAR 52.227-19.
  
 Gaussian, Inc.
 340 Quinnipiac St., Bldg. 40, Wallingford CT 06492
  
  
 ---------------------------------------------------------------
 Warning -- This program may not be used in any manner that
 competes with the business of Gaussian, Inc. or will provide
 assistance to any competitor of Gaussian, Inc.  The licensee
 of this program is prohibited from giving any competitor of
 Gaussian, Inc. access to this program.  By using this program,
 the user acknowledges that Gaussian, Inc. is engaged in the
 business of creating and licensing software in the field of
 computational chemistry and represents and warrants to the
 licensee that it is not a competitor of Gaussian, Inc. and that
 it will not use this program in any manner prohibited above.
 ---------------------------------------------------------------
  

 Cite this work as:
 Gaussian 16, Revision C.01,
 M. J. Frisch, G. W. Trucks, H. B. Schlegel, G. E. Scuseria, 
 M. A. Robb, J. R. Cheeseman, G. Scalmani, V. Barone, 
 G. A. Petersson, H. Nakatsuji, X. Li, M. Caricato, A. V. Marenich, 
 J. Bloino, B. G. Janesko, R. Gomperts, B. Mennucci, H. P. Hratchian, 
 J. V. Ortiz, A. F. Izmaylov, J. L. Sonnenberg, D. Williams-Young, 
 F. Ding, F. Lipparini, F. Egidi, J. Goings, B. Peng, A. Petrone, 
 T. Henderson, D. Ranasinghe, V. G. Zakrzewski, J. Gao, N. Rega, 
 G. Zheng, W. Liang, M. Hada, M. Ehara, K. Toyota, R. Fukuda, 
 J. Hasegawa, M. Ishida, T. Nakajima, Y. Honda, O. Kitao, H. Nakai, 
 T. Vreven, K. Throssell, J. A. Montgomery, Jr., J. E. Peralta, 
 F. Ogliaro, M. J. Bearpark, J. J. Heyd, E. N. Brothers, K. N. Kudin, 
 V. N. Staroverov, T. A. Keith, R. Kobayashi, J. Normand, 
 K. Raghavachari, A. P. Rendell, J. C. Burant, S. S. Iyengar, 
 J. Tomasi, M. Cossi, J. M. Millam, M. Klene, C. Adamo, R. Cammi, 
 J. W. Ochterski, R. L. Martin, K. Morokuma, O. Farkas, 
 J. B. Foresman, and D. J. Fox, Gaussian, Inc., Wallingford CT, 2019.
 
 ******************************************
 Gaussian 16:  ES64L-G16RevC.01  3-Jul-2019
                 9-Apr-2025 
 ******************************************
 %nprocs=16
 Will use up to   16 processors via shared memory.
 %mem=30GB
 %chk=E2SN2_377_mol1.chk
 ----------------------------------------------------------------------
 #t hf aug-cc-pvdz symm=none int=(grid=ultrafine) guess=(read,tcheck) s
 table=(opt,rrhf)
 ----------------------------------------------------------------------
 -----
 title
 -----
 Symbolic Z-matrix:
 Charge = -1 Multiplicity = 1
 C                     0.72653  -0.00768  -0.23193 
 H                     1.14806   1.53011  -1.56359 
 F                    -0.87699  -0.09797  -0.95659 
 F                     2.2599   -0.08224   0.71609 
 C                     0.87139   1.49716  -0.50679 
 H                     1.70725   1.86321   0.08213 
 N                     1.22726  -0.98401  -1.12762 
 H                     0.44987  -1.55937  -1.414 
 H                     1.92038  -1.51577  -0.62461 
 N                     0.08858  -0.4581    1.06491 
 O                    -0.23937   0.40113   1.87821 
 O                    -0.06683  -1.66196   1.2281 
 N                    -0.28054   2.36697  -0.29909 
 H                    -0.4797    2.34701   0.69341 
 H                    -1.05341   1.87882  -0.73537 
 
                    Distance matrix (angstroms):
                    1          2          3          4          5
     1  C    0.000000
     2  H    2.077447   0.000000
     3  F    1.761982   2.668321   0.000000
     4  F    1.804305   3.005462   3.555026   0.000000
     5  C    1.536580   1.092910   2.409072   2.432674   0.000000
     6  H    2.135571   1.769756   3.406390   2.119458   1.086037
     7  N    1.416409   2.552872   2.289582   2.297571   2.582307
     8  H    1.970174   3.170920   2.026197   3.161555   3.216071
     9  H    1.963116   3.279568   3.153678   1.991927   3.192498
    10  N    1.513825   3.461860   2.269027   2.231049   2.627942
    11  O    2.356437   3.878856   2.948181   2.798303   2.850140
    12  O    2.344737   4.411217   2.806300   2.858557   3.724271
    13  N    2.580247   2.083309   2.619927   3.671929   1.458304
    14  H    2.802824   2.900167   2.976284   3.661585   1.997042
    15  H    2.642071   2.377818   1.996937   4.114676   1.975549
                    6          7          8          9         10
     6  H    0.000000
     7  N    3.130587   0.000000
     8  H    3.941253   1.008653   0.000000
     9  H    3.458674   1.008075   1.669567   0.000000
    10  N    2.995734   2.525942   2.736485   2.707154   0.000000
    11  O    3.025376   3.620034   3.893236   3.821409   1.227712
    12  O    4.109436   2.771953   2.694110   2.720835   1.224777
    13  N    2.085765   3.766831   4.146407   4.475012   3.158761
    14  H    2.321746   4.162401   4.534875   4.734838   2.886101
    15  H    2.879208   3.681184   3.813336   4.514310   3.163281
                   11         12         13         14         15
    11  O    0.000000
    12  O    2.169970   0.000000
    13  N    2.933748   4.313969   0.000000
    14  H    2.290843   4.065493   1.012483   0.000000
    15  H    3.110799   4.167222   1.012906   1.609276   0.000000
 Symmetry turned off by external request.
 Rotational constants (GHZ):           1.9326733           1.5321418           1.4482440
   261 basis functions,   453 primitive gaussians,   279 cartesian basis functions
    37 alpha electrons       37 beta electrons
       nuclear repulsion energy       538.5387626977 Hartrees.
 NAtoms=   15 NActive=   15 NUniq=   15 SFac= 1.00D+00 NAtFMM=   60 NAOKFM=F Big=F
 ExpMin= 2.97D-02 ExpMax= 1.47D+04 ExpMxC= 5.03D+02 IAcc=3 IRadAn=         5 AccDes= 0.00D+00
 Harris functional with IExCor=  205 and IRadAn=       5 diagonalized for initial guess.
 HarFok:  IExCor=  205 AccDes= 0.00D+00 IRadAn=         5 IDoV= 1 UseB2=F ITyADJ=14
 ICtDFT=  3500011 ScaDFX=  1.000000  1.000000  1.000000  1.000000
 FoFCou: FMM=F IPFlag=           0 FMFlag=      100000 FMFlg1=           0
         NFxFlg=           0 DoJE=T BraDBF=F KetDBF=T FulRan=T
         wScrn=  0.000000 ICntrl=       500 IOpCl=  0 I1Cent=   200000004 NGrid=           0
         NMat0=    1 NMatS0=      1 NMatT0=    0 NMatD0=    1 NMtDS0=    0 NMtDT0=    0
 Symmetry not used in FoFCou.
 SCF Done:  E(RHF) =  -591.119438992     A.U. after   15 cycles
            NFock= 15  Conv=0.92D-08     -V/T= 2.0014

 **********************************************************************

            Population analysis using the SCF Density.

 **********************************************************************

 Alpha  occ. eigenvalues --  -26.04499 -26.02241 -20.46156 -20.46084 -15.70731
 Alpha  occ. eigenvalues --  -15.42087 -15.40015 -11.28626 -11.12039  -1.45640
 Alpha  occ. eigenvalues --   -1.31870  -1.29306  -1.24966  -1.07153  -1.03606
 Alpha  occ. eigenvalues --   -0.88872  -0.78563  -0.66420  -0.59553  -0.58090
 Alpha  occ. eigenvalues --   -0.57405  -0.54347  -0.52681  -0.48973  -0.44358
 Alpha  occ. eigenvalues --   -0.41440  -0.39468  -0.38587  -0.37755  -0.36739
 Alpha  occ. eigenvalues --   -0.36049  -0.34296  -0.34060  -0.31180  -0.30497
 Alpha  occ. eigenvalues --   -0.29558  -0.25274
 Alpha virt. eigenvalues --    0.13863   0.14868   0.15676   0.15943   0.17354
 Alpha virt. eigenvalues --    0.18229   0.22107   0.23216   0.23441   0.24908
 Alpha virt. eigenvalues --    0.26811   0.27087   0.27651   0.29135   0.30179
 Alpha virt. eigenvalues --    0.30909   0.31415   0.31707   0.32839   0.33747
 Alpha virt. eigenvalues --    0.34897   0.35611   0.36562   0.38702   0.38872
 Alpha virt. eigenvalues --    0.39376   0.42285   0.43333   0.44013   0.44438
 Alpha virt. eigenvalues --    0.44670   0.46403   0.47519   0.48610   0.49287
 Alpha virt. eigenvalues --    0.49818   0.50871   0.52388   0.54221   0.55028
 Alpha virt. eigenvalues --    0.55423   0.56516   0.57117   0.57623   0.59023
 Alpha virt. eigenvalues --    0.59565   0.59813   0.61420   0.61827   0.62948
 Alpha virt. eigenvalues --    0.63670   0.64579   0.64934   0.66964   0.67581
 Alpha virt. eigenvalues --    0.68189   0.69208   0.70844   0.71821   0.73821
 Alpha virt. eigenvalues --    0.74466   0.74587   0.75913   0.77371   0.78058
 Alpha virt. eigenvalues --    0.80228   0.81034   0.81757   0.83269   0.83787
 Alpha virt. eigenvalues --    0.85418   0.86514   0.87956   0.88704   0.92065
 Alpha virt. eigenvalues --    0.93065   0.93876   0.94611   0.96705   0.98299
 Alpha virt. eigenvalues --    1.00878   1.01214   1.02710   1.03801   1.06121
 Alpha virt. eigenvalues --    1.08745   1.09220   1.12236   1.13182   1.16198
 Alpha virt. eigenvalues --    1.17078   1.20091   1.20456   1.23416   1.25670
 Alpha virt. eigenvalues --    1.27065   1.27911   1.29981   1.32511   1.36036
 Alpha virt. eigenvalues --    1.36974   1.38541   1.39448   1.41718   1.42577
 Alpha virt. eigenvalues --    1.44538   1.45891   1.46439   1.47857   1.48462
 Alpha virt. eigenvalues --    1.49196   1.52040   1.54198   1.56736   1.58917
 Alpha virt. eigenvalues --    1.62429   1.63963   1.65888   1.68190   1.69476
 Alpha virt. eigenvalues --    1.70903   1.74682   1.77192   1.78294   1.80070
 Alpha virt. eigenvalues --    1.81706   1.83795   1.86610   1.87045   1.89137
 Alpha virt. eigenvalues --    1.90210   1.91049   1.94006   1.96810   1.99274
 Alpha virt. eigenvalues --    2.01225   2.02527   2.03330   2.04548   2.08069
 Alpha virt. eigenvalues --    2.09063   2.10054   2.12248   2.17107   2.18057
 Alpha virt. eigenvalues --    2.21373   2.24550   2.28828   2.29710   2.31408
 Alpha virt. eigenvalues --    2.35463   2.37119   2.38960   2.39775   2.41823
 Alpha virt. eigenvalues --    2.42833   2.48042   2.48095   2.50678   2.51434
 Alpha virt. eigenvalues --    2.52698   2.55898   2.59209   2.60962   2.61882
 Alpha virt. eigenvalues --    2.65050   2.65567   2.70008   2.70712   2.73310
 Alpha virt. eigenvalues --    2.74202   2.75559   2.76206   2.78685   2.79843
 Alpha virt. eigenvalues --    2.84163   2.84845   2.88172   2.91776   2.94427
 Alpha virt. eigenvalues --    2.95669   2.99553   3.03746   3.07977   3.10799
 Alpha virt. eigenvalues --    3.15138   3.17474   3.17960   3.22132   3.25952
 Alpha virt. eigenvalues --    3.31625   3.33364   3.35566   3.54969   3.55721
 Alpha virt. eigenvalues --    3.61645   3.76641   3.78405   3.86849   3.89232
 Alpha virt. eigenvalues --    3.90187   3.91681   3.95812   3.98002   3.98607
 Alpha virt. eigenvalues --    4.00102   4.04360   4.07821   4.12290   4.18273
 Alpha virt. eigenvalues --    4.36454   4.38764   4.51249   5.28812   5.32754
 Alpha virt. eigenvalues --    5.34636   5.36986   5.37840   5.41495   5.44604
 Alpha virt. eigenvalues --    5.45057   5.45900   5.49501   5.68723
          Condensed to atoms (all electrons):
 Mulliken charges:
               1
     1  C    1.494660
     2  H   -0.003840
     3  F   -0.886803
     4  F   -0.875305
     5  C    1.020902
     6  H    0.013087
     7  N   -0.487823
     8  H    0.063534
     9  H    0.054576
    10  N    0.882162
    11  O   -0.984641
    12  O   -0.925109
    13  N   -0.529730
    14  H    0.077520
    15  H    0.086808
 Sum of Mulliken charges =  -1.00000
 Mulliken charges with hydrogens summed into heavy atoms:
               1
     1  C    1.494660
     3  F   -0.886803
     4  F   -0.875305
     5  C    1.030150
     7  N   -0.369713
    10  N    0.882162
    11  O   -0.984641
    12  O   -0.925109
    13  N   -0.365401
 Electronic spatial extent (au):  <R**2>=           1090.2499
 Charge=             -1.0000 electrons
 Dipole moment (field-independent basis, Debye):
    X=             -2.2766    Y=             -0.9407    Z=             -1.9040  Tot=              3.1134
 NROrb=    261 NOA=    37 NOB=    37 NVA=   224 NVB=   224

 **** Warning!!: The largest alpha MO coefficient is  0.59223481D+02

    12 initial guesses have been made.
 Iteration     1 Dimension    12 NMult     0 NNew     12
 New state      1 was old state     10
 Iteration     2 Dimension    24 NMult    12 NNew     12
 Iteration     3 Dimension    27 NMult    24 NNew      3
 Iteration     4 Dimension    30 NMult    27 NNew      3
 Iteration     5 Dimension    33 NMult    30 NNew      3
 Iteration     6 Dimension    36 NMult    33 NNew      3
 Iteration     7 Dimension    39 NMult    36 NNew      3
 ***********************************************************************
 Stability analysis using <AA,BB:AA,BB> singles matrix:
 ***********************************************************************
 Ground to excited state transition densities written to RWF  633

 Eigenvectors of the stability matrix:
 
 Excited state symmetry could not be determined.
 Eigenvector   1:      Singlet-?Sym  Eigenvalue= 0.1988235  <S**2>=0.000
      30 -> 45        -0.15518
      30 -> 46         0.10249
      30 -> 47         0.13881
      32 -> 45         0.22448
      32 -> 46        -0.14828
      32 -> 47        -0.19964
      33 -> 45        -0.12379
      33 -> 47         0.10761
      34 -> 45        -0.19855
      34 -> 46         0.12695
      34 -> 47         0.17294
      36 -> 45         0.12002
      36 -> 47        -0.10271
      37 -> 45         0.16350
      37 -> 46        -0.10897
      37 -> 47        -0.14136
 The wavefunction is stable under the perturbations considered.
 The wavefunction is already stable.

 **********************************************************************

            Population analysis using the SCF Density.

 **********************************************************************

 Alpha  occ. eigenvalues --  -26.04499 -26.02241 -20.46156 -20.46084 -15.70731
 Alpha  occ. eigenvalues --  -15.42087 -15.40015 -11.28626 -11.12039  -1.45640
 Alpha  occ. eigenvalues --   -1.31870  -1.29306  -1.24966  -1.07153  -1.03606
 Alpha  occ. eigenvalues --   -0.88872  -0.78563  -0.66420  -0.59553  -0.58090
 Alpha  occ. eigenvalues --   -0.57405  -0.54347  -0.52681  -0.48973  -0.44358
 Alpha  occ. eigenvalues --   -0.41440  -0.39468  -0.38587  -0.37755  -0.36739
 Alpha  occ. eigenvalues --   -0.36049  -0.34296  -0.34060  -0.31180  -0.30497
 Alpha  occ. eigenvalues --   -0.29558  -0.25274
 Alpha virt. eigenvalues --    0.13863   0.14868   0.15676   0.15943   0.17354
 Alpha virt. eigenvalues --    0.18229   0.22107   0.23216   0.23441   0.24908
 Alpha virt. eigenvalues --    0.26811   0.27087   0.27651   0.29135   0.30179
 Alpha virt. eigenvalues --    0.30909   0.31415   0.31707   0.32839   0.33747
 Alpha virt. eigenvalues --    0.34897   0.35611   0.36562   0.38702   0.38872
 Alpha virt. eigenvalues --    0.39376   0.42285   0.43333   0.44013   0.44438
 Alpha virt. eigenvalues --    0.44670   0.46403   0.47519   0.48610   0.49287
 Alpha virt. eigenvalues --    0.49818   0.50871   0.52388   0.54221   0.55028
 Alpha virt. eigenvalues --    0.55423   0.56516   0.57117   0.57623   0.59023
 Alpha virt. eigenvalues --    0.59565   0.59813   0.61420   0.61827   0.62948
 Alpha virt. eigenvalues --    0.63670   0.64579   0.64934   0.66964   0.67581
 Alpha virt. eigenvalues --    0.68189   0.69208   0.70844   0.71821   0.73821
 Alpha virt. eigenvalues --    0.74466   0.74587   0.75913   0.77371   0.78058
 Alpha virt. eigenvalues --    0.80228   0.81034   0.81757   0.83269   0.83787
 Alpha virt. eigenvalues --    0.85418   0.86514   0.87956   0.88704   0.92065
 Alpha virt. eigenvalues --    0.93065   0.93876   0.94611   0.96705   0.98299
 Alpha virt. eigenvalues --    1.00878   1.01214   1.02710   1.03801   1.06121
 Alpha virt. eigenvalues --    1.08745   1.09220   1.12236   1.13182   1.16198
 Alpha virt. eigenvalues --    1.17078   1.20091   1.20456   1.23416   1.25670
 Alpha virt. eigenvalues --    1.27065   1.27911   1.29981   1.32511   1.36036
 Alpha virt. eigenvalues --    1.36974   1.38541   1.39448   1.41718   1.42577
 Alpha virt. eigenvalues --    1.44538   1.45891   1.46439   1.47857   1.48462
 Alpha virt. eigenvalues --    1.49196   1.52040   1.54198   1.56736   1.58917
 Alpha virt. eigenvalues --    1.62429   1.63963   1.65888   1.68190   1.69476
 Alpha virt. eigenvalues --    1.70903   1.74682   1.77192   1.78294   1.80070
 Alpha virt. eigenvalues --    1.81706   1.83795   1.86610   1.87045   1.89137
 Alpha virt. eigenvalues --    1.90210   1.91049   1.94006   1.96810   1.99274
 Alpha virt. eigenvalues --    2.01225   2.02527   2.03330   2.04548   2.08069
 Alpha virt. eigenvalues --    2.09063   2.10054   2.12248   2.17107   2.18057
 Alpha virt. eigenvalues --    2.21373   2.24550   2.28828   2.29710   2.31408
 Alpha virt. eigenvalues --    2.35463   2.37119   2.38960   2.39775   2.41823
 Alpha virt. eigenvalues --    2.42833   2.48042   2.48095   2.50678   2.51434
 Alpha virt. eigenvalues --    2.52698   2.55898   2.59209   2.60962   2.61882
 Alpha virt. eigenvalues --    2.65050   2.65567   2.70008   2.70712   2.73310
 Alpha virt. eigenvalues --    2.74202   2.75559   2.76206   2.78685   2.79843
 Alpha virt. eigenvalues --    2.84163   2.84845   2.88172   2.91776   2.94427
 Alpha virt. eigenvalues --    2.95669   2.99553   3.03746   3.07977   3.10799
 Alpha virt. eigenvalues --    3.15138   3.17474   3.17960   3.22132   3.25952
 Alpha virt. eigenvalues --    3.31625   3.33364   3.35566   3.54969   3.55721
 Alpha virt. eigenvalues --    3.61645   3.76641   3.78405   3.86849   3.89232
 Alpha virt. eigenvalues --    3.90187   3.91681   3.95812   3.98002   3.98607
 Alpha virt. eigenvalues --    4.00102   4.04360   4.07821   4.12290   4.18273
 Alpha virt. eigenvalues --    4.36454   4.38764   4.51249   5.28812   5.32754
 Alpha virt. eigenvalues --    5.34636   5.36986   5.37840   5.41495   5.44604
 Alpha virt. eigenvalues --    5.45057   5.45900   5.49501   5.68723
          Condensed to atoms (all electrons):
 Mulliken charges:
               1
     1  C    1.494660
     2  H   -0.003840
     3  F   -0.886803
     4  F   -0.875305
     5  C    1.020902
     6  H    0.013087
     7  N   -0.487823
     8  H    0.063534
     9  H    0.054576
    10  N    0.882162
    11  O   -0.984641
    12  O   -0.925109
    13  N   -0.529730
    14  H    0.077520
    15  H    0.086808
 Sum of Mulliken charges =  -1.00000
 Mulliken charges with hydrogens summed into heavy atoms:
               1
     1  C    1.494660
     3  F   -0.886803
     4  F   -0.875305
     5  C    1.030150
     7  N   -0.369713
    10  N    0.882162
    11  O   -0.984641
    12  O   -0.925109
    13  N   -0.365401
 Electronic spatial extent (au):  <R**2>=           1090.2499
 Charge=             -1.0000 electrons
 Dipole moment (field-independent basis, Debye):
    X=             -2.2766    Y=             -0.9407    Z=             -1.9040  Tot=              3.1134
 Unable to Open any file for archive entry.
 1\1\GINC-SE398\Stability\RHF\Aug-CC-pVDZ\C2H6F2N3O2\OHZDE\09-Apr-2025\
 0\\#t hf aug-cc-pvdz symm=none int=(grid=ultrafine) guess=(read,tcheck
 ) stable=(opt,rrhf)\\title\\-1,1\C,0,0.72653425,-0.00767812,-0.2319308
 6\H,0,1.14805929,1.53011114,-1.56358604\F,0,-0.87699318,-0.09797147,-0
 .95658856\F,0,2.25989958,-0.08224043,0.71609288\C,0,0.87139247,1.49716
 297,-0.50678789\H,0,1.70725211,1.86320911,0.08213119\N,0,1.22725588,-0
 .98401291,-1.12762207\H,0,0.44986822,-1.55936952,-1.41400252\H,0,1.920
 38406,-1.5157725,-0.62461165\N,0,0.0885781,-0.45809655,1.06491237\O,0,
 -0.23936556,0.40113128,1.87821279\O,0,-0.06682892,-1.66196393,1.228104
 53\N,0,-0.2805371,2.36697341,-0.29909\H,0,-0.47970487,2.34700935,0.693
 40992\H,0,-1.05341434,1.87881816,-0.73537408\\Version=ES64L-G16RevC.01
 \HF=-591.119439\RMSD=9.205e-09\Dipole=-0.1055327,-0.156636,-0.4343175\
 Quadrupole=-1.4170112,1.2076772,0.209334,-0.5967609,-2.678991,3.596613
 5\PG=Unknown\\@
 The archive entry for this job was punched.


 HE WHO LAUGHS LAST PROBABLY DIDN'T GET THE JOKE.
 Job cpu time:       0 days  0 hours 12 minutes 24.3 seconds.
 Elapsed time:       0 days  0 hours  0 minutes 51.5 seconds.
 File lengths (MBytes):  RWF=    353 Int=      0 D2E=      0 Chk=     10 Scr=      1
 Normal termination of Gaussian 16 at Wed Apr  9 02:57:14 2025.
 Initial command:
 /arc/software/Gaussian/g16.c01/l1.exe "/tmp/slurm/4860069/Gau-4052394.inp" -scrdir="/tmp/slurm/4860069/"
 Entering Link 1 = /arc/software/Gaussian/g16.c01/l1.exe PID=   4052631.
  
 Copyright (c) 1988-2019, Gaussian, Inc.  All Rights Reserved.
  
 This is part of the Gaussian(R) 16 program.  It is based on
 the Gaussian(R) 09 system (copyright 2009, Gaussian, Inc.),
 the Gaussian(R) 03 system (copyright 2003, Gaussian, Inc.),
 the Gaussian(R) 98 system (copyright 1998, Gaussian, Inc.),
 the Gaussian(R) 94 system (copyright 1995, Gaussian, Inc.),
 the Gaussian 92(TM) system (copyright 1992, Gaussian, Inc.),
 the Gaussian 90(TM) system (copyright 1990, Gaussian, Inc.),
 the Gaussian 88(TM) system (copyright 1988, Gaussian, Inc.),
 the Gaussian 86(TM) system (copyright 1986, Carnegie Mellon
 University), and the Gaussian 82(TM) system (copyright 1983,
 Carnegie Mellon University). Gaussian is a federally registered
 trademark of Gaussian, Inc.
  
 This software contains proprietary and confidential information,
 including trade secrets, belonging to Gaussian, Inc.
  
 This software is provided under written license and may be
 used, copied, transmitted, or stored only in accord with that
 written license.
  
 The following legend is applicable only to US Government
 contracts under FAR:
  
                    RESTRICTED RIGHTS LEGEND
  
 Use, reproduction and disclosure by the US Government is
 subject to restrictions as set forth in subparagraphs (a)
 and (c) of the Commercial Computer Software - Restricted
 Rights clause in FAR 52.227-19.
  
 Gaussian, Inc.
 340 Quinnipiac St., Bldg. 40, Wallingford CT 06492
  
  
 ---------------------------------------------------------------
 Warning -- This program may not be used in any manner that
 competes with the business of Gaussian, Inc. or will provide
 assistance to any competitor of Gaussian, Inc.  The licensee
 of this program is prohibited from giving any competitor of
 Gaussian, Inc. access to this program.  By using this program,
 the user acknowledges that Gaussian, Inc. is engaged in the
 business of creating and licensing software in the field of
 computational chemistry and represents and warrants to the
 licensee that it is not a competitor of Gaussian, Inc. and that
 it will not use this program in any manner prohibited above.
 ---------------------------------------------------------------
  

 Cite this work as:
 Gaussian 16, Revision C.01,
 M. J. Frisch, G. W. Trucks, H. B. Schlegel, G. E. Scuseria, 
 M. A. Robb, J. R. Cheeseman, G. Scalmani, V. Barone, 
 G. A. Petersson, H. Nakatsuji, X. Li, M. Caricato, A. V. Marenich, 
 J. Bloino, B. G. Janesko, R. Gomperts, B. Mennucci, H. P. Hratchian, 
 J. V. Ortiz, A. F. Izmaylov, J. L. Sonnenberg, D. Williams-Young, 
 F. Ding, F. Lipparini, F. Egidi, J. Goings, B. Peng, A. Petrone, 
 T. Henderson, D. Ranasinghe, V. G. Zakrzewski, J. Gao, N. Rega, 
 G. Zheng, W. Liang, M. Hada, M. Ehara, K. Toyota, R. Fukuda, 
 J. Hasegawa, M. Ishida, T. Nakajima, Y. Honda, O. Kitao, H. Nakai, 
 T. Vreven, K. Throssell, J. A. Montgomery, Jr., J. E. Peralta, 
 F. Ogliaro, M. J. Bearpark, J. J. Heyd, E. N. Brothers, K. N. Kudin, 
 V. N. Staroverov, T. A. Keith, R. Kobayashi, J. Normand, 
 K. Raghavachari, A. P. Rendell, J. C. Burant, S. S. Iyengar, 
 J. Tomasi, M. Cossi, J. M. Millam, M. Klene, C. Adamo, R. Cammi, 
 J. W. Ochterski, R. L. Martin, K. Morokuma, O. Farkas, 
 J. B. Foresman, and D. J. Fox, Gaussian, Inc., Wallingford CT, 2019.
 
 ******************************************
 Gaussian 16:  ES64L-G16RevC.01  3-Jul-2019
                 9-Apr-2025 
 ******************************************
 %nprocs=16
 Will use up to   16 processors via shared memory.
 %mem=30GB
 %chk=E2SN2_377_mol1.chk
 ----------------------------------------------------------------------
 #t hf aug-cc-pvdz iop(5/13=1,5/36=2,99/5=2) pseudo=read geom=check gue
 ss=(read,tcheck) scf=(maxcycle=1)
 ----------------------------------------------------------------------
 -----
 title
 -----
 Structure from the checkpoint file:  "E2SN2_377_mol1.chk"
 Charge = -1 Multiplicity = 1
 Z-Matrix found in chk file.
 C,0,0.72653425,-0.00767812,-0.23193086
 H,0,1.14805929,1.53011114,-1.56358604
 F,0,-0.87699318,-0.09797147,-0.95658856
 F,0,2.25989958,-0.08224043,0.71609288
 C,0,0.87139247,1.49716297,-0.50678789
 H,0,1.70725211,1.86320911,0.08213119
 N,0,1.22725588,-0.98401291,-1.12762207
 H,0,0.44986822,-1.55936952,-1.41400252
 H,0,1.92038406,-1.5157725,-0.62461165
 N,0,0.0885781,-0.45809655,1.06491237
 O,0,-0.23936556,0.40113128,1.87821279
 O,0,-0.06682892,-1.66196393,1.22810453
 N,0,-0.2805371,2.36697341,-0.29909
 H,0,-0.47970487,2.34700935,0.69340992
 H,0,-1.05341434,1.87881816,-0.73537408
 Recover connectivity data from disk.
                    Distance matrix (angstroms):
                    1          2          3          4          5
     1  C    0.000000
     2  H    2.077447   0.000000
     3  F    1.761982   2.668321   0.000000
     4  F    1.804305   3.005462   3.555026   0.000000
     5  C    1.536580   1.092910   2.409072   2.432674   0.000000
     6  H    2.135571   1.769756   3.406390   2.119458   1.086037
     7  N    1.416409   2.552872   2.289582   2.297571   2.582307
     8  H    1.970174   3.170920   2.026197   3.161555   3.216071
     9  H    1.963116   3.279568   3.153678   1.991927   3.192498
    10  N    1.513825   3.461860   2.269027   2.231049   2.627942
    11  O    2.356437   3.878856   2.948181   2.798303   2.850140
    12  O    2.344737   4.411217   2.806300   2.858557   3.724271
    13  N    2.580247   2.083309   2.619927   3.671929   1.458304
    14  H    2.802824   2.900167   2.976284   3.661585   1.997042
    15  H    2.642071   2.377818   1.996937   4.114676   1.975549
                    6          7          8          9         10
     6  H    0.000000
     7  N    3.130587   0.000000
     8  H    3.941253   1.008653   0.000000
     9  H    3.458674   1.008075   1.669567   0.000000
    10  N    2.995734   2.525942   2.736485   2.707154   0.000000
    11  O    3.025376   3.620034   3.893236   3.821409   1.227712
    12  O    4.109436   2.771953   2.694110   2.720835   1.224777
    13  N    2.085765   3.766831   4.146407   4.475012   3.158761
    14  H    2.321746   4.162401   4.534875   4.734838   2.886101
    15  H    2.879208   3.681184   3.813336   4.514310   3.163281
                   11         12         13         14         15
    11  O    0.000000
    12  O    2.169970   0.000000
    13  N    2.933748   4.313969   0.000000
    14  H    2.290843   4.065493   1.012483   0.000000
    15  H    3.110799   4.167222   1.012906   1.609276   0.000000
 Framework group  C1[X(C2H6F2N3O2)]
 Deg. of freedom    39
                         Standard orientation:                         
 ---------------------------------------------------------------------
 Center     Atomic      Atomic             Coordinates (Angstroms)
 Number     Number       Type             X           Y           Z
 ---------------------------------------------------------------------
      1          6           0        0.029411   -0.516733    0.024194
      2          1           0       -1.757919   -1.549004   -0.211716
      3          9           0       -0.512642   -0.094509    1.646688
      4          9           0        0.787417   -0.750933   -1.596329
      5          6           0       -1.397800   -0.571583   -0.542495
      6          1           0       -1.324716   -0.577399   -1.626055
      7          7           0        0.689000   -1.674197    0.505273
      8          1           0        0.929782   -1.506520    1.470306
      9          1           0        1.508503   -1.804274   -0.067185
     10          7           0        0.775088    0.800587    0.006859
     11          8           0        0.228845    1.768618   -0.514499
     12          8           0        1.887093    0.825421    0.519602
     13          7           0       -2.360412    0.443648   -0.130993
     14          1           0       -2.018679    1.325812   -0.491724
     15          1           0       -2.252844    0.507685    0.874147
 ---------------------------------------------------------------------
 Rotational constants (GHZ):           1.9326733           1.5321418           1.4482440
 ======================================================================================================
                                       Pseudopotential Parameters
 ======================================================================================================
  Center     Atomic      Valence      Angular      Power
  Number     Number     Electrons     Momentum     of R      Exponent        Coefficient   SO-Coeffient
 ======================================================================================================
    1          6            6
                                      G and up 
                                                     0        0.0000010       -0.00007288    0.00000000
                                                     2        0.1200000        0.10466671    0.00000000
                                                     2        0.1400000       -0.65716157    0.00000000
                                                     2        0.1600000        1.18890794    0.00000000
                                                     2        0.2000000       -1.25772850    0.00000000
                                                     2        0.2600000        1.01188378    0.00000000
                                                     2        0.4000000       -1.09380874    0.00000000
                                                     2        0.5000000        0.96944888    0.00000000
                                                     2        1.0000000       -0.79256938    0.00000000
                                                     2        3.0000000        1.06443276    0.00000000
                                      S - G
                                                     0        0.0000010       -0.00635295    0.00000000
                                                     2        0.1200000        0.16918955    0.00000000
                                                     2        0.1600000       -0.38862576    0.00000000
                                                     2        0.2800000        0.25638263    0.00000000
                                                     2        0.5000000        0.29628419    0.00000000
                                                     2        0.9000000       -0.28791512    0.00000000
                                      P - G
                                                     0        0.0000010       -0.04756931    0.00000000
                                                     2        0.1200000        0.28430375    0.00000000
                                                     2        0.1600000       -0.69640032    0.00000000
                                                     2        0.2600000        1.13005668    0.00000000
                                                     2        0.4000000       -1.31433324    0.00000000
                                                     2        0.7000000        0.91526469    0.00000000
                                      D - G
                                                     0        0.0000010       -0.11496411    0.00000000
                                                     2        0.1200000        0.16620776    0.00000000
                                                     2        0.1800000       -0.30959819    0.00000000
                                                     2        0.3000000        0.16621458    0.00000000
                                                     2        0.6000000        0.27350556    0.00000000
                                      F - G
                                                     0        0.0000010        0.12037550    0.00000000
                                                     2        0.1200000       -0.48737077    0.00000000
                                                     2        0.1400000        0.58315350    0.00000000
                                                     2        0.3000000        0.00005188    0.00000000
                                                     2        0.5000000       -1.16063549    0.00000000
                                                     2        0.8000000        2.09053308    0.00000000
    2          1            1
                                      F and up 
                                                     0        0.0000010       -0.00007675    0.00000000
                                                     2        0.1200000        0.05352699    0.00000000
                                                     2        0.1400000       -0.25123645    0.00000000
                                                     2        0.1600000        0.32188106    0.00000000
                                                     2        0.2200000       -0.25206857    0.00000000
                                                     2        0.3000000        0.19290477    0.00000000
                                                     2        0.5000000       -0.10129770    0.00000000
                                                     2        0.9000000        0.00314995    0.00000000
                                                     2        1.5000000        0.18401192    0.00000000
                                      S - F
                                                     0        0.0000010        0.08065976    0.00000000
                                                     2        0.1200000       -0.09231673    0.00000000
                                                     2        0.1600000       -0.03278082    0.00000000
                                                     2        0.2800000        0.38423402    0.00000000
                                                     2        0.6000000       -1.09357590    0.00000000
                                                     2        1.1000000        1.53099489    0.00000000
                                                     2        3.0000000       -2.63300202    0.00000000
                                      P - F
                                                     0        0.0000010       -0.11638665    0.00000000
                                                     2        0.1200000        0.35468655    0.00000000
                                                     2        0.1600000       -0.59160923    0.00000000
                                                     2        0.3000000        0.49390547    0.00000000
                                                     2        0.6000000       -0.37949835    0.00000000
                                                     2        1.6000000        0.89304688    0.00000000
                                      D - F
                                                     0        0.0000010        0.05443663    0.00000000
                                                     2        0.1200000       -0.29679479    0.00000000
                                                     2        0.1400000        0.36849872    0.00000000
                                                     2        0.2400000        0.02793449    0.00000000
                                                     2        0.4000000       -0.46312857    0.00000000
                                                     2        0.7000000        0.97587598    0.00000000
                                                     2        1.5000000       -2.43431102    0.00000000
    3          9            9
                                      G and up 
                                                     0        0.0000010        0.00055569    0.00000000
                                                     2        0.1200000       -0.17741904    0.00000000
                                                     2        0.1400000        1.01928615    0.00000000
                                                     2        0.1600000       -1.52148367    0.00000000
                                                     2        0.2200000        1.83718211    0.00000000
                                                     2        0.3000000       -2.87348318    0.00000000
                                                     2        0.4000000        2.99646231    0.00000000
                                                     2        0.6000000       -2.11894556    0.00000000
                                                     2        1.3000000        1.79216257    0.00000000
                                      S - G
                                                     0        0.0000010       -0.00623030    0.00000000
                                                     2        0.1200000        0.13717684    0.00000000
                                                     2        0.2200000       -0.32899255    0.00000000
                                      P - G
                                                     0        0.0000010       -0.03918431    0.00000000
                                                     2        0.1200000       -0.03806127    0.00000000
                                                     2        0.3000000        0.26895041    0.00000000
                                                     2        0.8000000       -0.57822379    0.00000000
                                      D - G
                                                     0        0.0000010        0.21590327    0.00000000
                                                     2        0.1200000       -0.34443966    0.00000000
                                                     2        0.1600000        0.69000806    0.00000000
                                                     2        0.2600000       -0.73210453    0.00000000
                                      F - G
                                                     0        0.0000010       -0.14642430    0.00000000
                                                     2        0.1200000        0.06245232    0.00000000
                                                     2        0.2800000       -0.60801466    0.00000000
                                                     2        0.5000000        2.37940491    0.00000000
    4          9            9
                                      G and up 
                                                     0        0.0000010        0.00055569    0.00000000
                                                     2        0.1200000       -0.17741904    0.00000000
                                                     2        0.1400000        1.01928615    0.00000000
                                                     2        0.1600000       -1.52148367    0.00000000
                                                     2        0.2200000        1.83718211    0.00000000
                                                     2        0.3000000       -2.87348318    0.00000000
                                                     2        0.4000000        2.99646231    0.00000000
                                                     2        0.6000000       -2.11894556    0.00000000
                                                     2        1.3000000        1.79216257    0.00000000
                                      S - G
                                                     0        0.0000010       -0.00623030    0.00000000
                                                     2        0.1200000        0.13717684    0.00000000
                                                     2        0.2200000       -0.32899255    0.00000000
                                      P - G
                                                     0        0.0000010       -0.03918431    0.00000000
                                                     2        0.1200000       -0.03806127    0.00000000
                                                     2        0.3000000        0.26895041    0.00000000
                                                     2        0.8000000       -0.57822379    0.00000000
                                      D - G
                                                     0        0.0000010        0.21590327    0.00000000
                                                     2        0.1200000       -0.34443966    0.00000000
                                                     2        0.1600000        0.69000806    0.00000000
                                                     2        0.2600000       -0.73210453    0.00000000
                                      F - G
                                                     0        0.0000010       -0.14642430    0.00000000
                                                     2        0.1200000        0.06245232    0.00000000
                                                     2        0.2800000       -0.60801466    0.00000000
                                                     2        0.5000000        2.37940491    0.00000000
    5          6            6
                                      G and up 
                                                     0        0.0000010       -0.00007288    0.00000000
                                                     2        0.1200000        0.10466671    0.00000000
                                                     2        0.1400000       -0.65716157    0.00000000
                                                     2        0.1600000        1.18890794    0.00000000
                                                     2        0.2000000       -1.25772850    0.00000000
                                                     2        0.2600000        1.01188378    0.00000000
                                                     2        0.4000000       -1.09380874    0.00000000
                                                     2        0.5000000        0.96944888    0.00000000
                                                     2        1.0000000       -0.79256938    0.00000000
                                                     2        3.0000000        1.06443276    0.00000000
                                      S - G
                                                     0        0.0000010       -0.00635295    0.00000000
                                                     2        0.1200000        0.16918955    0.00000000
                                                     2        0.1600000       -0.38862576    0.00000000
                                                     2        0.2800000        0.25638263    0.00000000
                                                     2        0.5000000        0.29628419    0.00000000
                                                     2        0.9000000       -0.28791512    0.00000000
                                      P - G
                                                     0        0.0000010       -0.04756931    0.00000000
                                                     2        0.1200000        0.28430375    0.00000000
                                                     2        0.1600000       -0.69640032    0.00000000
                                                     2        0.2600000        1.13005668    0.00000000
                                                     2        0.4000000       -1.31433324    0.00000000
                                                     2        0.7000000        0.91526469    0.00000000
                                      D - G
                                                     0        0.0000010       -0.11496411    0.00000000
                                                     2        0.1200000        0.16620776    0.00000000
                                                     2        0.1800000       -0.30959819    0.00000000
                                                     2        0.3000000        0.16621458    0.00000000
                                                     2        0.6000000        0.27350556    0.00000000
                                      F - G
                                                     0        0.0000010        0.12037550    0.00000000
                                                     2        0.1200000       -0.48737077    0.00000000
                                                     2        0.1400000        0.58315350    0.00000000
                                                     2        0.3000000        0.00005188    0.00000000
                                                     2        0.5000000       -1.16063549    0.00000000
                                                     2        0.8000000        2.09053308    0.00000000
    6          1            1
                                      F and up 
                                                     0        0.0000010       -0.00007675    0.00000000
                                                     2        0.1200000        0.05352699    0.00000000
                                                     2        0.1400000       -0.25123645    0.00000000
                                                     2        0.1600000        0.32188106    0.00000000
                                                     2        0.2200000       -0.25206857    0.00000000
                                                     2        0.3000000        0.19290477    0.00000000
                                                     2        0.5000000       -0.10129770    0.00000000
                                                     2        0.9000000        0.00314995    0.00000000
                                                     2        1.5000000        0.18401192    0.00000000
                                      S - F
                                                     0        0.0000010        0.08065976    0.00000000
                                                     2        0.1200000       -0.09231673    0.00000000
                                                     2        0.1600000       -0.03278082    0.00000000
                                                     2        0.2800000        0.38423402    0.00000000
                                                     2        0.6000000       -1.09357590    0.00000000
                                                     2        1.1000000        1.53099489    0.00000000
                                                     2        3.0000000       -2.63300202    0.00000000
                                      P - F
                                                     0        0.0000010       -0.11638665    0.00000000
                                                     2        0.1200000        0.35468655    0.00000000
                                                     2        0.1600000       -0.59160923    0.00000000
                                                     2        0.3000000        0.49390547    0.00000000
                                                     2        0.6000000       -0.37949835    0.00000000
                                                     2        1.6000000        0.89304688    0.00000000
                                      D - F
                                                     0        0.0000010        0.05443663    0.00000000
                                                     2        0.1200000       -0.29679479    0.00000000
                                                     2        0.1400000        0.36849872    0.00000000
                                                     2        0.2400000        0.02793449    0.00000000
                                                     2        0.4000000       -0.46312857    0.00000000
                                                     2        0.7000000        0.97587598    0.00000000
                                                     2        1.5000000       -2.43431102    0.00000000
    7          7            7
                                      G and up 
                                                     0        0.0000010       -0.00039818    0.00000000
                                                     2        0.1200000       -0.37616123    0.00000000
                                                     2        0.1400000        2.13837358    0.00000000
                                                     2        0.1600000       -3.36562035    0.00000000
                                                     2        0.2000000        2.53463289    0.00000000
                                                     2        0.3000000       -1.98118833    0.00000000
                                                     2        0.5000000        4.06642919    0.00000000
                                                     2        0.7000000       -6.15327959    0.00000000
                                                     2        1.2000000       10.22492851    0.00000000
                                                     2        2.0000000      -14.94707511    0.00000000
                                      S - G
                                                     0        0.0000010        0.02721443    0.00000000
                                                     2        0.1200000       -0.60186009    0.00000000
                                                     2        0.1600000        1.10088134    0.00000000
                                                     2        0.2600000       -0.59857981    0.00000000
                                                     2        0.6000000        0.21288222    0.00000000
                                                     2        3.0000000        5.09059205    0.00000000
                                      P - G
                                                     0        0.0000010        0.40558062    0.00000000
                                                     2        0.1200000        0.81809854    0.00000000
                                                     2        0.1600000       -2.44952728    0.00000000
                                                     2        0.2800000        4.16638749    0.00000000
                                                     2        0.5000000       -6.02944147    0.00000000
                                                     2        1.1000000        5.78262914    0.00000000
                                      D - G
                                                     0        0.0000010       -0.62770267    0.00000000
                                                     2        0.1600000        0.91438653    0.00000000
                                                     2        0.2600000       -2.00568466    0.00000000
                                                     2        0.5000000        3.30798839    0.00000000
                                                     2        1.1000000       -3.91526108    0.00000000
                                      F - G
                                                     0        0.0000010        0.29726344    0.00000000
                                                     2        0.1200000       -0.41591527    0.00000000
                                                     2        0.1600000        0.51444439    0.00000000
                                                     2        0.4000000       -0.69401726    0.00000000
                                                     2        0.7000000        0.51478123    0.00000000
    8          1            1
                                      F and up 
                                                     0        0.0000010       -0.00007675    0.00000000
                                                     2        0.1200000        0.05352699    0.00000000
                                                     2        0.1400000       -0.25123645    0.00000000
                                                     2        0.1600000        0.32188106    0.00000000
                                                     2        0.2200000       -0.25206857    0.00000000
                                                     2        0.3000000        0.19290477    0.00000000
                                                     2        0.5000000       -0.10129770    0.00000000
                                                     2        0.9000000        0.00314995    0.00000000
                                                     2        1.5000000        0.18401192    0.00000000
                                      S - F
                                                     0        0.0000010        0.08065976    0.00000000
                                                     2        0.1200000       -0.09231673    0.00000000
                                                     2        0.1600000       -0.03278082    0.00000000
                                                     2        0.2800000        0.38423402    0.00000000
                                                     2        0.6000000       -1.09357590    0.00000000
                                                     2        1.1000000        1.53099489    0.00000000
                                                     2        3.0000000       -2.63300202    0.00000000
                                      P - F
                                                     0        0.0000010       -0.11638665    0.00000000
                                                     2        0.1200000        0.35468655    0.00000000
                                                     2        0.1600000       -0.59160923    0.00000000
                                                     2        0.3000000        0.49390547    0.00000000
                                                     2        0.6000000       -0.37949835    0.00000000
                                                     2        1.6000000        0.89304688    0.00000000
                                      D - F
                                                     0        0.0000010        0.05443663    0.00000000
                                                     2        0.1200000       -0.29679479    0.00000000
                                                     2        0.1400000        0.36849872    0.00000000
                                                     2        0.2400000        0.02793449    0.00000000
                                                     2        0.4000000       -0.46312857    0.00000000
                                                     2        0.7000000        0.97587598    0.00000000
                                                     2        1.5000000       -2.43431102    0.00000000
    9          1            1
                                      F and up 
                                                     0        0.0000010       -0.00007675    0.00000000
                                                     2        0.1200000        0.05352699    0.00000000
                                                     2        0.1400000       -0.25123645    0.00000000
                                                     2        0.1600000        0.32188106    0.00000000
                                                     2        0.2200000       -0.25206857    0.00000000
                                                     2        0.3000000        0.19290477    0.00000000
                                                     2        0.5000000       -0.10129770    0.00000000
                                                     2        0.9000000        0.00314995    0.00000000
                                                     2        1.5000000        0.18401192    0.00000000
                                      S - F
                                                     0        0.0000010        0.08065976    0.00000000
                                                     2        0.1200000       -0.09231673    0.00000000
                                                     2        0.1600000       -0.03278082    0.00000000
                                                     2        0.2800000        0.38423402    0.00000000
                                                     2        0.6000000       -1.09357590    0.00000000
                                                     2        1.1000000        1.53099489    0.00000000
                                                     2        3.0000000       -2.63300202    0.00000000
                                      P - F
                                                     0        0.0000010       -0.11638665    0.00000000
                                                     2        0.1200000        0.35468655    0.00000000
                                                     2        0.1600000       -0.59160923    0.00000000
                                                     2        0.3000000        0.49390547    0.00000000
                                                     2        0.6000000       -0.37949835    0.00000000
                                                     2        1.6000000        0.89304688    0.00000000
                                      D - F
                                                     0        0.0000010        0.05443663    0.00000000
                                                     2        0.1200000       -0.29679479    0.00000000
                                                     2        0.1400000        0.36849872    0.00000000
                                                     2        0.2400000        0.02793449    0.00000000
                                                     2        0.4000000       -0.46312857    0.00000000
                                                     2        0.7000000        0.97587598    0.00000000
                                                     2        1.5000000       -2.43431102    0.00000000
   10          7            7
                                      G and up 
                                                     0        0.0000010       -0.00039818    0.00000000
                                                     2        0.1200000       -0.37616123    0.00000000
                                                     2        0.1400000        2.13837358    0.00000000
                                                     2        0.1600000       -3.36562035    0.00000000
                                                     2        0.2000000        2.53463289    0.00000000
                                                     2        0.3000000       -1.98118833    0.00000000
                                                     2        0.5000000        4.06642919    0.00000000
                                                     2        0.7000000       -6.15327959    0.00000000
                                                     2        1.2000000       10.22492851    0.00000000
                                                     2        2.0000000      -14.94707511    0.00000000
                                      S - G
                                                     0        0.0000010        0.02721443    0.00000000
                                                     2        0.1200000       -0.60186009    0.00000000
                                                     2        0.1600000        1.10088134    0.00000000
                                                     2        0.2600000       -0.59857981    0.00000000
                                                     2        0.6000000        0.21288222    0.00000000
                                                     2        3.0000000        5.09059205    0.00000000
                                      P - G
                                                     0        0.0000010        0.40558062    0.00000000
                                                     2        0.1200000        0.81809854    0.00000000
                                                     2        0.1600000       -2.44952728    0.00000000
                                                     2        0.2800000        4.16638749    0.00000000
                                                     2        0.5000000       -6.02944147    0.00000000
                                                     2        1.1000000        5.78262914    0.00000000
                                      D - G
                                                     0        0.0000010       -0.62770267    0.00000000
                                                     2        0.1600000        0.91438653    0.00000000
                                                     2        0.2600000       -2.00568466    0.00000000
                                                     2        0.5000000        3.30798839    0.00000000
                                                     2        1.1000000       -3.91526108    0.00000000
                                      F - G
                                                     0        0.0000010        0.29726344    0.00000000
                                                     2        0.1200000       -0.41591527    0.00000000
                                                     2        0.1600000        0.51444439    0.00000000
                                                     2        0.4000000       -0.69401726    0.00000000
                                                     2        0.7000000        0.51478123    0.00000000
   11          8            8
                                      G and up 
                                                     0        0.0000010        0.00049668    0.00000000
                                                     2        0.1200000       -0.01803391    0.00000000
                                                     2        0.1400000        0.04014195    0.00000000
                                                     2        0.2000000       -0.02692147    0.00000000
                                                     2        0.2800000       -0.04241843    0.00000000
                                                     2        0.4000000        0.15412145    0.00000000
                                                     2        0.7000000       -0.40587006    0.00000000
                                                     2        1.1000000        1.75666647    0.00000000
                                      S - G
                                                     0        0.0000010       -0.01088195    0.00000000
                                                     2        0.1200000        0.09867335    0.00000000
                                                     2        0.2400000       -0.08484177    0.00000000
                                                     2        0.6000000       -1.39011554    0.00000000
                                                     2        2.5000000        1.36225910    0.00000000
                                      P - G
                                                     0        0.0000010        0.05874028    0.00000000
                                                     2        0.1200000       -0.11700340    0.00000000
                                                     2        0.1600000        0.08847775    0.00000000
                                                     2        0.3000000        0.04709907    0.00000000
                                                     2        1.2000000       -1.80388338    0.00000000
                                      D - G
                                                     0        0.0000010       -0.00541262    0.00000000
                                                     2        0.1200000       -0.26547906    0.00000000
                                                     2        0.1600000        1.04289661    0.00000000
                                                     2        0.2400000       -1.92800913    0.00000000
                                                     2        0.4000000        2.26691633    0.00000000
                                                     2        0.7000000       -1.97391482    0.00000000
                                      F - G
                                                     0        0.0000010       -0.02604870    0.00000000
                                                     2        0.1200000        0.37362552    0.00000000
                                                     2        0.1600000       -1.43526367    0.00000000
                                                     2        0.2200000        1.76778079    0.00000000
                                                     2        0.5000000       -1.90846303    0.00000000
   12          8            8
                                      G and up 
                                                     0        0.0000010        0.00049668    0.00000000
                                                     2        0.1200000       -0.01803391    0.00000000
                                                     2        0.1400000        0.04014195    0.00000000
                                                     2        0.2000000       -0.02692147    0.00000000
                                                     2        0.2800000       -0.04241843    0.00000000
                                                     2        0.4000000        0.15412145    0.00000000
                                                     2        0.7000000       -0.40587006    0.00000000
                                                     2        1.1000000        1.75666647    0.00000000
                                      S - G
                                                     0        0.0000010       -0.01088195    0.00000000
                                                     2        0.1200000        0.09867335    0.00000000
                                                     2        0.2400000       -0.08484177    0.00000000
                                                     2        0.6000000       -1.39011554    0.00000000
                                                     2        2.5000000        1.36225910    0.00000000
                                      P - G
                                                     0        0.0000010        0.05874028    0.00000000
                                                     2        0.1200000       -0.11700340    0.00000000
                                                     2        0.1600000        0.08847775    0.00000000
                                                     2        0.3000000        0.04709907    0.00000000
                                                     2        1.2000000       -1.80388338    0.00000000
                                      D - G
                                                     0        0.0000010       -0.00541262    0.00000000
                                                     2        0.1200000       -0.26547906    0.00000000
                                                     2        0.1600000        1.04289661    0.00000000
                                                     2        0.2400000       -1.92800913    0.00000000
                                                     2        0.4000000        2.26691633    0.00000000
                                                     2        0.7000000       -1.97391482    0.00000000
                                      F - G
                                                     0        0.0000010       -0.02604870    0.00000000
                                                     2        0.1200000        0.37362552    0.00000000
                                                     2        0.1600000       -1.43526367    0.00000000
                                                     2        0.2200000        1.76778079    0.00000000
                                                     2        0.5000000       -1.90846303    0.00000000
   13          7            7
                                      G and up 
                                                     0        0.0000010       -0.00039818    0.00000000
                                                     2        0.1200000       -0.37616123    0.00000000
                                                     2        0.1400000        2.13837358    0.00000000
                                                     2        0.1600000       -3.36562035    0.00000000
                                                     2        0.2000000        2.53463289    0.00000000
                                                     2        0.3000000       -1.98118833    0.00000000
                                                     2        0.5000000        4.06642919    0.00000000
                                                     2        0.7000000       -6.15327959    0.00000000
                                                     2        1.2000000       10.22492851    0.00000000
                                                     2        2.0000000      -14.94707511    0.00000000
                                      S - G
                                                     0        0.0000010        0.02721443    0.00000000
                                                     2        0.1200000       -0.60186009    0.00000000
                                                     2        0.1600000        1.10088134    0.00000000
                                                     2        0.2600000       -0.59857981    0.00000000
                                                     2        0.6000000        0.21288222    0.00000000
                                                     2        3.0000000        5.09059205    0.00000000
                                      P - G
                                                     0        0.0000010        0.40558062    0.00000000
                                                     2        0.1200000        0.81809854    0.00000000
                                                     2        0.1600000       -2.44952728    0.00000000
                                                     2        0.2800000        4.16638749    0.00000000
                                                     2        0.5000000       -6.02944147    0.00000000
                                                     2        1.1000000        5.78262914    0.00000000
                                      D - G
                                                     0        0.0000010       -0.62770267    0.00000000
                                                     2        0.1600000        0.91438653    0.00000000
                                                     2        0.2600000       -2.00568466    0.00000000
                                                     2        0.5000000        3.30798839    0.00000000
                                                     2        1.1000000       -3.91526108    0.00000000
                                      F - G
                                                     0        0.0000010        0.29726344    0.00000000
                                                     2        0.1200000       -0.41591527    0.00000000
                                                     2        0.1600000        0.51444439    0.00000000
                                                     2        0.4000000       -0.69401726    0.00000000
                                                     2        0.7000000        0.51478123    0.00000000
   14          1            1
                                      F and up 
                                                     0        0.0000010       -0.00007675    0.00000000
                                                     2        0.1200000        0.05352699    0.00000000
                                                     2        0.1400000       -0.25123645    0.00000000
                                                     2        0.1600000        0.32188106    0.00000000
                                                     2        0.2200000       -0.25206857    0.00000000
                                                     2        0.3000000        0.19290477    0.00000000
                                                     2        0.5000000       -0.10129770    0.00000000
                                                     2        0.9000000        0.00314995    0.00000000
                                                     2        1.5000000        0.18401192    0.00000000
                                      S - F
                                                     0        0.0000010        0.08065976    0.00000000
                                                     2        0.1200000       -0.09231673    0.00000000
                                                     2        0.1600000       -0.03278082    0.00000000
                                                     2        0.2800000        0.38423402    0.00000000
                                                     2        0.6000000       -1.09357590    0.00000000
                                                     2        1.1000000        1.53099489    0.00000000
                                                     2        3.0000000       -2.63300202    0.00000000
                                      P - F
                                                     0        0.0000010       -0.11638665    0.00000000
                                                     2        0.1200000        0.35468655    0.00000000
                                                     2        0.1600000       -0.59160923    0.00000000
                                                     2        0.3000000        0.49390547    0.00000000
                                                     2        0.6000000       -0.37949835    0.00000000
                                                     2        1.6000000        0.89304688    0.00000000
                                      D - F
                                                     0        0.0000010        0.05443663    0.00000000
                                                     2        0.1200000       -0.29679479    0.00000000
                                                     2        0.1400000        0.36849872    0.00000000
                                                     2        0.2400000        0.02793449    0.00000000
                                                     2        0.4000000       -0.46312857    0.00000000
                                                     2        0.7000000        0.97587598    0.00000000
                                                     2        1.5000000       -2.43431102    0.00000000
   15          1            1
                                      F and up 
                                                     0        0.0000010       -0.00007675    0.00000000
                                                     2        0.1200000        0.05352699    0.00000000
                                                     2        0.1400000       -0.25123645    0.00000000
                                                     2        0.1600000        0.32188106    0.00000000
                                                     2        0.2200000       -0.25206857    0.00000000
                                                     2        0.3000000        0.19290477    0.00000000
                                                     2        0.5000000       -0.10129770    0.00000000
                                                     2        0.9000000        0.00314995    0.00000000
                                                     2        1.5000000        0.18401192    0.00000000
                                      S - F
                                                     0        0.0000010        0.08065976    0.00000000
                                                     2        0.1200000       -0.09231673    0.00000000
                                                     2        0.1600000       -0.03278082    0.00000000
                                                     2        0.2800000        0.38423402    0.00000000
                                                     2        0.6000000       -1.09357590    0.00000000
                                                     2        1.1000000        1.53099489    0.00000000
                                                     2        3.0000000       -2.63300202    0.00000000
                                      P - F
                                                     0        0.0000010       -0.11638665    0.00000000
                                                     2        0.1200000        0.35468655    0.00000000
                                                     2        0.1600000       -0.59160923    0.00000000
                                                     2        0.3000000        0.49390547    0.00000000
                                                     2        0.6000000       -0.37949835    0.00000000
                                                     2        1.6000000        0.89304688    0.00000000
                                      D - F
                                                     0        0.0000010        0.05443663    0.00000000
                                                     2        0.1200000       -0.29679479    0.00000000
                                                     2        0.1400000        0.36849872    0.00000000
                                                     2        0.2400000        0.02793449    0.00000000
                                                     2        0.4000000       -0.46312857    0.00000000
                                                     2        0.7000000        0.97587598    0.00000000
                                                     2        1.5000000       -2.43431102    0.00000000
 ======================================================================================================
   261 basis functions,   453 primitive gaussians,   279 cartesian basis functions
    37 alpha electrons       37 beta electrons
       nuclear repulsion energy       538.5387626977 Hartrees.
 NAtoms=   15 NActive=   15 NUniq=   15 SFac= 1.00D+00 NAtFMM=   60 NAOKFM=F Big=F
   1 Symmetry operations used in ECPInt.
 ECPInt:  NShTT=    6216 NPrTT=   31548 LenC2=    6200 LenP2D=   23180.
 LDataN:  DoStor=T MaxTD1= 6 Len=  172
 Initial guess from the checkpoint file:  "E2SN2_377_mol1.chk"
 B after Tr=    -0.098994    0.212937    0.844895
         Rot=    0.464260    0.628602   -0.605123   -0.152145 Ang= 124.68 deg.
 >>>>>>>>>> Convergence criterion not met.
 SCF Done:  E(RHF) =  -591.697886595     A.U. after    2 cycles
            NFock=  1  Conv=0.44D-01     -V/T= 2.0062

 **********************************************************************

            Population analysis using the SCF Density.

 **********************************************************************

 Orbital symmetries:
       Occupied  (A) (A) (A) (A) (A) (A) (A) (A) (A) (A) (A) (A)
                 (A) (A) (A) (A) (A) (A) (A) (A) (A) (A) (A) (A)
                 (A) (A) (A) (A) (A) (A) (A) (A) (A) (A) (A) (A)
                 (A)
       Virtual   (A) (A) (A) (A) (A) (A) (A) (A) (A) (A) (A) (A)
                 (A) (A) (A) (A) (A) (A) (A) (A) (A) (A) (A) (A)
                 (A) (A) (A) (A) (A) (A) (A) (A) (A) (A) (A) (A)
                 (A) (A) (A) (A) (A) (A) (A) (A) (A) (A) (A) (A)
                 (A) (A) (A) (A) (A) (A) (A) (A) (A) (A) (A) (A)
                 (A) (A) (A) (A) (A) (A) (A) (A) (A) (A) (A) (A)
                 (A) (A) (A) (A) (A) (A) (A) (A) (A) (A) (A) (A)
                 (A) (A) (A) (A) (A) (A) (A) (A) (A) (A) (A) (A)
                 (A) (A) (A) (A) (A) (A) (A) (A) (A) (A) (A) (A)
                 (A) (A) (A) (A) (A) (A) (A) (A) (A) (A) (A) (A)
                 (A) (A) (A) (A) (A) (A) (A) (A) (A) (A) (A) (A)
                 (A) (A) (A) (A) (A) (A) (A) (A) (A) (A) (A) (A)
                 (A) (A) (A) (A) (A) (A) (A) (A) (A) (A) (A) (A)
                 (A) (A) (A) (A) (A) (A) (A) (A) (A) (A) (A) (A)
                 (A) (A) (A) (A) (A) (A) (A) (A) (A) (A) (A) (A)
                 (A) (A) (A) (A) (A) (A) (A) (A) (A) (A) (A) (A)
                 (A) (A) (A) (A) (A) (A) (A) (A) (A) (A) (A) (A)
                 (A) (A) (A) (A) (A) (A) (A) (A) (A) (A) (A) (A)
                 (A) (A) (A) (A) (A) (A) (A) (A)
 The electronic state is 1-A.
 Alpha  occ. eigenvalues --  -26.19906 -26.17672 -20.43796 -20.43718 -15.63967
 Alpha  occ. eigenvalues --  -15.35791 -15.33509 -11.28566 -11.12120  -1.51373
 Alpha  occ. eigenvalues --   -1.35099  -1.29362  -1.26475  -1.06757  -1.03574
 Alpha  occ. eigenvalues --   -0.91883  -0.80238  -0.68724  -0.62453  -0.60028
 Alpha  occ. eigenvalues --   -0.59503  -0.57146  -0.55412  -0.51549  -0.45894
 Alpha  occ. eigenvalues --   -0.42559  -0.39400  -0.37733  -0.36273  -0.36078
 Alpha  occ. eigenvalues --   -0.35066  -0.33796  -0.33410  -0.32178  -0.30273
 Alpha  occ. eigenvalues --   -0.29705  -0.28112
 Alpha virt. eigenvalues --    0.14107   0.15124   0.15631   0.16194   0.16824
 Alpha virt. eigenvalues --    0.17595   0.21193   0.22059   0.23442   0.24043
 Alpha virt. eigenvalues --    0.26690   0.26921   0.27423   0.28782   0.29202
 Alpha virt. eigenvalues --    0.30834   0.31370   0.32004   0.32786   0.33687
 Alpha virt. eigenvalues --    0.34822   0.35540   0.36464   0.38309   0.38784
 Alpha virt. eigenvalues --    0.39179   0.41828   0.42952   0.43372   0.43464
 Alpha virt. eigenvalues --    0.44357   0.45815   0.46936   0.47422   0.48833
 Alpha virt. eigenvalues --    0.49016   0.49854   0.51525   0.53832   0.54484
 Alpha virt. eigenvalues --    0.54781   0.55987   0.56126   0.56784   0.58356
 Alpha virt. eigenvalues --    0.58828   0.59671   0.60699   0.61147   0.62317
 Alpha virt. eigenvalues --    0.62946   0.63779   0.64249   0.65819   0.66714
 Alpha virt. eigenvalues --    0.67709   0.68398   0.70201   0.70995   0.71929
 Alpha virt. eigenvalues --    0.73132   0.73726   0.75156   0.76672   0.77632
 Alpha virt. eigenvalues --    0.79256   0.80140   0.81143   0.82232   0.82629
 Alpha virt. eigenvalues --    0.84663   0.85190   0.85532   0.88155   0.91036
 Alpha virt. eigenvalues --    0.92387   0.92946   0.93794   0.95745   0.97416
 Alpha virt. eigenvalues --    0.99842   1.00349   1.01874   1.02756   1.04699
 Alpha virt. eigenvalues --    1.07710   1.08504   1.11274   1.12183   1.14923
 Alpha virt. eigenvalues --    1.15661   1.18156   1.19271   1.22768   1.24270
 Alpha virt. eigenvalues --    1.25889   1.26829   1.29222   1.31983   1.35305
 Alpha virt. eigenvalues --    1.35682   1.37682   1.38530   1.41432   1.41689
 Alpha virt. eigenvalues --    1.43374   1.44780   1.45784   1.46628   1.47987
 Alpha virt. eigenvalues --    1.48653   1.51404   1.52935   1.54976   1.56439
 Alpha virt. eigenvalues --    1.59571   1.62506   1.63859   1.66600   1.67961
 Alpha virt. eigenvalues --    1.68750   1.71305   1.74084   1.74753   1.78007
 Alpha virt. eigenvalues --    1.78790   1.80824   1.83670   1.84438   1.86603
 Alpha virt. eigenvalues --    1.87268   1.89388   1.91864   1.93347   1.95928
 Alpha virt. eigenvalues --    1.98487   1.98606   2.02225   2.03574   2.04021
 Alpha virt. eigenvalues --    2.05544   2.07575   2.09305   2.11625   2.13297
 Alpha virt. eigenvalues --    2.16013   2.16670   2.20546   2.23548   2.24074
 Alpha virt. eigenvalues --    2.27011   2.29049   2.30257   2.32662   2.33668
 Alpha virt. eigenvalues --    2.34273   2.35466   2.38566   2.39314   2.40431
 Alpha virt. eigenvalues --    2.41667   2.43445   2.46085   2.46584   2.48090
 Alpha virt. eigenvalues --    2.49678   2.50821   2.54062   2.56804   2.57899
 Alpha virt. eigenvalues --    2.59181   2.62774   2.64274   2.65586   2.67931
 Alpha virt. eigenvalues --    2.72382   2.74797   2.77486   2.80894   2.83512
 Alpha virt. eigenvalues --    2.84518   2.86450   2.87120   2.90685   2.93766
 Alpha virt. eigenvalues --    2.95583   2.99348   3.02670   3.09140   3.19442
 Alpha virt. eigenvalues --    3.26388   3.30871   3.32335   3.34783   3.38793
 Alpha virt. eigenvalues --    3.59874   3.72083   3.74425   3.80287   3.83152
 Alpha virt. eigenvalues --    3.96332   3.99725   4.00968   4.01854   4.04485
 Alpha virt. eigenvalues --    4.07613   4.09321   4.11392   4.19052   4.21754
 Alpha virt. eigenvalues --    4.35829   4.37268   4.54683   5.38855   5.53882
 Alpha virt. eigenvalues --    5.55623   5.58059   5.58664   5.62779   5.65897
 Alpha virt. eigenvalues --    5.66416   5.67230   5.70865   5.80839
          Condensed to atoms (all electrons):
 Mulliken charges:
               1
     1  C   -1.532174
     2  H    0.217587
     3  F   -0.976054
     4  F   -0.941122
     5  C   -0.593192
     6  H    0.204125
     7  N    0.772600
     8  H    0.408112
     9  H    0.386350
    10  N    3.794898
    11  O   -1.741029
    12  O   -1.637100
    13  N    0.166477
    14  H    0.245000
    15  H    0.225522
 Sum of Mulliken charges =  -1.00000
 Mulliken charges with hydrogens summed into heavy atoms:
               1
     1  C   -1.532174
     3  F   -0.976054
     4  F   -0.941122
     5  C   -0.171480
     7  N    1.567062
    10  N    3.794898
    11  O   -1.741029
    12  O   -1.637100
    13  N    0.636999
 Electronic spatial extent (au):  <R**2>=           1029.5772
 Charge=             -1.0000 electrons
 Dipole moment (field-independent basis, Debye):
    X=              0.0853    Y=             -0.5393    Z=              0.9295  Tot=              1.0781

 Test job not archived.
 1\1\GINC-SE398\SP\RHF\Aug-CC-pVDZ\C2H6F2N3O2(1-)\OHZDE\09-Apr-2025\0\\
 #t hf aug-cc-pvdz iop(5/13=1,5/36=2,99/5=2) pseudo=read geom=check gue
 ss=(read,tcheck) scf=(maxcycle=1)\\title\\-1,1\C,0,0.72653425,-0.00767
 812,-0.23193086\H,0,1.14805929,1.53011114,-1.56358604\F,0,-0.87699318,
 -0.09797147,-0.95658856\F,0,2.25989958,-0.08224043,0.71609288\C,0,0.87
 139247,1.49716297,-0.50678789\H,0,1.70725211,1.86320911,0.08213119\N,0
 ,1.22725588,-0.98401291,-1.12762207\H,0,0.44986822,-1.55936952,-1.4140
 0252\H,0,1.92038406,-1.5157725,-0.62461165\N,0,0.0885781,-0.45809655,1
 .06491237\O,0,-0.23936556,0.40113128,1.87821279\O,0,-0.06682892,-1.661
 96393,1.22810453\N,0,-0.2805371,2.36697341,-0.29909\H,0,-0.47970487,2.
 34700935,0.69340992\H,0,-1.05341434,1.87881816,-0.73537408\\Version=ES
 64L-G16RevC.01\State=1-A\HF=-591.6978866\RMSD=4.367e-02\Dipole=-0.1365
 611,-0.2110672,-0.3416064\Quadrupole=-1.2129163,0.9576408,0.2552754,-0
 .2011954,-2.1812072,3.8155369\PG=C01 [X(C2H6F2N3O2)]\\@


 THERE ARE TWO THINGS THAT EVERYBODY THINKS THEY CAN DO BETTER THAN
 ANYONE ELSE - PUNCH THE FIRE, AND EDIT A DAILY PAPER.
 -- UNCLE ESEK, "CENTURY MAGAZINE", 1885
 Job cpu time:       0 days  0 hours  1 minutes 22.1 seconds.
 Elapsed time:       0 days  0 hours  0 minutes  6.0 seconds.
 File lengths (MBytes):  RWF=     14 Int=      0 D2E=      0 Chk=     10 Scr=      1
 Normal termination of Gaussian 16 at Wed Apr  9 02:57:20 2025.
