 Entering Gaussian System, Link 0=g16
 Input=E2SN2_266_mol1.gjf
 Output=E2SN2_266_mol1.log
 Initial command:
 /arc/software/Gaussian/g16.c01/l1.exe "/tmp/slurm/4859364/Gau-3271188.inp" -scrdir="/tmp/slurm/4859364/"
 Entering Link 1 = /arc/software/Gaussian/g16.c01/l1.exe PID=   3271189.
  
 Copyright (c) 1988-2019, Gaussian, Inc.  All Rights Reserved.
  
 This is part of the Gaussian(R) 16 program.  It is based on
 the Gaussian(R) 09 system (copyright 2009, Gaussian, Inc.),
 the Gaussian(R) 03 system (copyright 2003, Gaussian, Inc.),
 the Gaussian(R) 98 system (copyright 1998, Gaussian, Inc.),
 the Gaussian(R) 94 system (copyright 1995, Gaussian, Inc.),
 the Gaussian 92(TM) system (copyright 1992, Gaussian, Inc.),
 the Gaussian 90(TM) system (copyright 1990, Gaussian, Inc.),
 the Gaussian 88(TM) system (copyright 1988, Gaussian, Inc.),
 the Gaussian 86(TM) system (copyright 1986, Carnegie Mellon
 University), and the Gaussian 82(TM) system (copyright 1983,
 Carnegie Mellon University). Gaussian is a federally registered
 trademark of Gaussian, Inc.
  
 This software contains proprietary and confidential information,
 including trade secrets, belonging to Gaussian, Inc.
  
 This software is provided under written license and may be
 used, copied, transmitted, or stored only in accord with that
 written license.
  
 The following legend is applicable only to US Government
 contracts under FAR:
  
                    RESTRICTED RIGHTS LEGEND
  
 Use, reproduction and disclosure by the US Government is
 subject to restrictions as set forth in subparagraphs (a)
 and (c) of the Commercial Computer Software - Restricted
 Rights clause in FAR 52.227-19.
  
 Gaussian, Inc.
 340 Quinnipiac St., Bldg. 40, Wallingford CT 06492
  
  
 ---------------------------------------------------------------
 Warning -- This program may not be used in any manner that
 competes with the business of Gaussian, Inc. or will provide
 assistance to any competitor of Gaussian, Inc.  The licensee
 of this program is prohibited from giving any competitor of
 Gaussian, Inc. access to this program.  By using this program,
 the user acknowledges that Gaussian, Inc. is engaged in the
 business of creating and licensing software in the field of
 computational chemistry and represents and warrants to the
 licensee that it is not a competitor of Gaussian, Inc. and that
 it will not use this program in any manner prohibited above.
 ---------------------------------------------------------------
  

 Cite this work as:
 Gaussian 16, Revision C.01,
 M. J. Frisch, G. W. Trucks, H. B. Schlegel, G. E. Scuseria, 
 M. A. Robb, J. R. Cheeseman, G. Scalmani, V. Barone, 
 G. A. Petersson, H. Nakatsuji, X. Li, M. Caricato, A. V. Marenich, 
 J. Bloino, B. G. Janesko, R. Gomperts, B. Mennucci, H. P. Hratchian, 
 J. V. Ortiz, A. F. Izmaylov, J. L. Sonnenberg, D. Williams-Young, 
 F. Ding, F. Lipparini, F. Egidi, J. Goings, B. Peng, A. Petrone, 
 T. Henderson, D. Ranasinghe, V. G. Zakrzewski, J. Gao, N. Rega, 
 G. Zheng, W. Liang, M. Hada, M. Ehara, K. Toyota, R. Fukuda, 
 J. Hasegawa, M. Ishida, T. Nakajima, Y. Honda, O. Kitao, H. Nakai, 
 T. Vreven, K. Throssell, J. A. Montgomery, Jr., J. E. Peralta, 
 F. Ogliaro, M. J. Bearpark, J. J. Heyd, E. N. Brothers, K. N. Kudin, 
 V. N. Staroverov, T. A. Keith, R. Kobayashi, J. Normand, 
 K. Raghavachari, A. P. Rendell, J. C. Burant, S. S. Iyengar, 
 J. Tomasi, M. Cossi, J. M. Millam, M. Klene, C. Adamo, R. Cammi, 
 J. W. Ochterski, R. L. Martin, K. Morokuma, O. Farkas, 
 J. B. Foresman, and D. J. Fox, Gaussian, Inc., Wallingford CT, 2019.
 
 ******************************************
 Gaussian 16:  ES64L-G16RevC.01  3-Jul-2019
                 9-Apr-2025 
 ******************************************
 %nprocs=16
 Will use up to   16 processors via shared memory.
 %mem=30GB
 %chk=E2SN2_266_mol1.chk
 ----------------------------------------------------------------------
 #t hf aug-cc-pvdz symm=none int=(grid=ultrafine) guess=(read,tcheck) s
 table=(opt,rrhf)
 ----------------------------------------------------------------------
 -----
 title
 -----
 Symbolic Z-matrix:
 Charge = -1 Multiplicity = 1
 C                     0.64258  -0.00389  -0.01159 
 H                     1.52306   1.92397   0.26855 
 Cl                   -1.66069  -0.2265    0.03489 
 Cl                    3.01476  -0.05275  -0.00906 
 C                     0.54241   1.5118    0.04809 
 H                    -0.1287    1.74974   0.87667 
 C                     0.70714  -0.7512   -1.2315 
 N                     0.71909  -1.35262  -2.24362 
 N                     0.71779  -0.77101   1.26721 
 O                     0.7321   -0.09807   2.29074 
 O                     0.74468  -1.98975   1.19741 
 N                     0.10994   2.00472  -1.24996 
 H                     0.29348   2.99709  -1.30769 
 H                    -0.88453   1.8447   -1.34825 
 
                    Distance matrix (angstroms):
                    1          2          3          4          5
     1  C    0.000000
     2  H    2.137836   0.000000
     3  Cl   2.314473   3.849071   0.000000
     4  Cl   2.372677   2.491916   4.678881   0.000000
     5  C    1.520168   1.086353   2.806330   2.926362   0.000000
     6  H    2.111655   1.768746   2.638389   3.730253   1.092497
     7  C    1.432068   3.173701   2.735997   2.703195   2.604925
     8  N    2.609006   4.206355   3.481826   3.457315   3.672609
     9  N    1.493132   2.984738   2.733545   2.724119   2.593882
    10  O    2.305994   2.967071   3.291023   3.240627   2.767161
    11  O    2.327180   4.097057   3.200992   3.218823   3.690901
    12  N    2.419047   2.075881   3.124791   3.769741   1.454275
    13  H    3.287494   2.268914   4.001600   4.288737   2.026368
    14  H    2.745183   2.901178   2.608704   4.538524   2.024040
                    6          7          8          9         10
     6  H    0.000000
     7  C    3.376045   0.000000
     8  N    4.481027   1.177391   0.000000
     9  N    2.687602   2.498808   3.558682   0.000000
    10  O    2.480921   3.582370   4.704735   1.225017   0.000000
    11  O    3.853500   2.726727   3.499616   1.221042   2.184947
    12  N    2.155115   2.819944   3.553897   3.796087   4.164779
    13  H    2.550598   3.771812   4.469573   4.583521   4.766666
    14  H    2.351720   3.047250   3.687294   4.031125   4.430591
                   11         12         13         14
    11  O    0.000000
    12  N    4.727405   0.000000
    13  H    5.598902   1.010845   0.000000
    14  H    4.882392   1.012057   1.648447   0.000000
 Symmetry turned off by external request.
 Rotational constants (GHZ):           1.1313255           0.8811184           0.7667755
   274 basis functions,   550 primitive gaussians,   294 cartesian basis functions
    47 alpha electrons       47 beta electrons
       nuclear repulsion energy       731.9335919175 Hartrees.
 NAtoms=   14 NActive=   14 NUniq=   14 SFac= 1.00D+00 NAtFMM=   60 NAOKFM=F Big=F
 ExpMin= 2.97D-02 ExpMax= 1.28D+05 ExpMxC= 1.24D+03 IAcc=3 IRadAn=         5 AccDes= 0.00D+00
 Harris functional with IExCor=  205 and IRadAn=       5 diagonalized for initial guess.
 HarFok:  IExCor=  205 AccDes= 0.00D+00 IRadAn=         5 IDoV= 1 UseB2=F ITyADJ=14
 ICtDFT=  3500011 ScaDFX=  1.000000  1.000000  1.000000  1.000000
 FoFCou: FMM=F IPFlag=           0 FMFlag=      100000 FMFlg1=           0
         NFxFlg=           0 DoJE=T BraDBF=F KetDBF=T FulRan=T
         wScrn=  0.000000 ICntrl=       500 IOpCl=  0 I1Cent=   200000004 NGrid=           0
         NMat0=    1 NMatS0=      1 NMatT0=    0 NMatD0=    1 NMtDS0=    0 NMtDT0=    0
 Symmetry not used in FoFCou.
 SCF Done:  E(RHF) =  -1347.94694551     A.U. after   17 cycles
            NFock= 17  Conv=0.83D-08     -V/T= 2.0006

 **********************************************************************

            Population analysis using the SCF Density.

 **********************************************************************

 Alpha  occ. eigenvalues -- -104.64654-104.62720 -20.50382 -20.50270 -15.76214
 Alpha  occ. eigenvalues --  -15.47421 -15.45559 -11.32962 -11.18869 -11.17910
 Alpha  occ. eigenvalues --  -10.37204 -10.35274  -7.83880  -7.83714  -7.83705
 Alpha  occ. eigenvalues --   -7.81943  -7.81784  -7.81783  -1.50190  -1.29739
 Alpha  occ. eigenvalues --   -1.11903  -1.08921  -1.01669  -0.88886  -0.86100
 Alpha  occ. eigenvalues --   -0.83339  -0.77978  -0.68081  -0.62283  -0.60861
 Alpha  occ. eigenvalues --   -0.58865  -0.52998  -0.51069  -0.46470  -0.44734
 Alpha  occ. eigenvalues --   -0.40441  -0.40077  -0.38508  -0.34347  -0.34268
 Alpha  occ. eigenvalues --   -0.31238  -0.29589  -0.28691  -0.28179  -0.26726
 Alpha  occ. eigenvalues --   -0.25930  -0.24604
 Alpha virt. eigenvalues --    0.11583   0.13176   0.14355   0.14835   0.16689
 Alpha virt. eigenvalues --    0.18978   0.20297   0.20715   0.21950   0.22808
 Alpha virt. eigenvalues --    0.23395   0.24088   0.25364   0.25763   0.26190
 Alpha virt. eigenvalues --    0.26947   0.27844   0.28087   0.28973   0.29389
 Alpha virt. eigenvalues --    0.29998   0.31135   0.31683   0.32279   0.33115
 Alpha virt. eigenvalues --    0.34334   0.36013   0.36255   0.36877   0.38313
 Alpha virt. eigenvalues --    0.39032   0.39932   0.40963   0.41776   0.42486
 Alpha virt. eigenvalues --    0.42906   0.43915   0.44521   0.45010   0.45801
 Alpha virt. eigenvalues --    0.46845   0.47662   0.48207   0.49586   0.50223
 Alpha virt. eigenvalues --    0.50793   0.51653   0.52121   0.52979   0.53450
 Alpha virt. eigenvalues --    0.54572   0.55086   0.57625   0.58593   0.59522
 Alpha virt. eigenvalues --    0.60568   0.61247   0.62472   0.62894   0.63797
 Alpha virt. eigenvalues --    0.65449   0.67222   0.67892   0.68621   0.69470
 Alpha virt. eigenvalues --    0.70096   0.71449   0.71900   0.72883   0.74776
 Alpha virt. eigenvalues --    0.74940   0.75456   0.76126   0.77764   0.78055
 Alpha virt. eigenvalues --    0.79088   0.81474   0.81519   0.82582   0.84046
 Alpha virt. eigenvalues --    0.84862   0.85774   0.86948   0.89274   0.89725
 Alpha virt. eigenvalues --    0.90484   0.91046   0.93020   0.95005   0.95554
 Alpha virt. eigenvalues --    0.97232   0.97768   0.99532   1.01201   1.02364
 Alpha virt. eigenvalues --    1.04089   1.06599   1.07530   1.09254   1.10020
 Alpha virt. eigenvalues --    1.10894   1.12468   1.14095   1.14603   1.15514
 Alpha virt. eigenvalues --    1.16994   1.18387   1.19584   1.23424   1.24079
 Alpha virt. eigenvalues --    1.24581   1.26664   1.27468   1.29082   1.30317
 Alpha virt. eigenvalues --    1.33363   1.35226   1.36292   1.38102   1.38838
 Alpha virt. eigenvalues --    1.40533   1.41549   1.41950   1.42578   1.44472
 Alpha virt. eigenvalues --    1.44756   1.45257   1.49702   1.50465   1.53600
 Alpha virt. eigenvalues --    1.53905   1.54926   1.56530   1.57333   1.60260
 Alpha virt. eigenvalues --    1.62082   1.63436   1.64343   1.66246   1.67603
 Alpha virt. eigenvalues --    1.68932   1.69995   1.70657   1.71812   1.74031
 Alpha virt. eigenvalues --    1.74536   1.76416   1.77415   1.80563   1.80874
 Alpha virt. eigenvalues --    1.83075   1.85035   1.86148   1.88413   1.88817
 Alpha virt. eigenvalues --    1.91234   1.94296   1.95392   1.96822   1.99377
 Alpha virt. eigenvalues --    2.01344   2.03763   2.04463   2.08668   2.10534
 Alpha virt. eigenvalues --    2.11464   2.14821   2.16327   2.19738   2.22149
 Alpha virt. eigenvalues --    2.25487   2.27946   2.31090   2.32290   2.36227
 Alpha virt. eigenvalues --    2.38873   2.40247   2.40914   2.43253   2.45836
 Alpha virt. eigenvalues --    2.49329   2.51066   2.54614   2.57866   2.58213
 Alpha virt. eigenvalues --    2.62463   2.64718   2.67890   2.70289   2.71420
 Alpha virt. eigenvalues --    2.73835   2.76232   2.78622   2.79755   2.82123
 Alpha virt. eigenvalues --    2.86342   2.87474   2.90588   2.94379   2.98815
 Alpha virt. eigenvalues --    3.03329   3.10031   3.12440   3.14940   3.18567
 Alpha virt. eigenvalues --    3.22240   3.24161   3.29794   3.35061   3.50130
 Alpha virt. eigenvalues --    3.50948   3.56667   3.67691   3.75680   3.79972
 Alpha virt. eigenvalues --    3.83571   3.84230   3.87241   3.90195   3.93400
 Alpha virt. eigenvalues --    3.96626   4.05044   4.09477   4.13296   4.30679
 Alpha virt. eigenvalues --    4.35176   4.67417
          Condensed to atoms (all electrons):
 Mulliken charges:
               1
     1  C    0.174413
     2  H   -0.088342
     3  Cl  -0.550401
     4  Cl  -0.590931
     5  C    1.325519
     6  H    0.069735
     7  C    0.151371
     8  N   -0.464942
     9  N    1.052884
    10  O   -0.898499
    11  O   -0.907636
    12  N   -0.302197
    13  H   -0.029703
    14  H    0.058729
 Sum of Mulliken charges =  -1.00000
 Mulliken charges with hydrogens summed into heavy atoms:
               1
     1  C    0.174413
     3  Cl  -0.550401
     4  Cl  -0.590931
     5  C    1.306912
     7  C    0.151371
     8  N   -0.464942
     9  N    1.052884
    10  O   -0.898499
    11  O   -0.907636
    12  N   -0.273171
 Electronic spatial extent (au):  <R**2>=           1870.0359
 Charge=             -1.0000 electrons
 Dipole moment (field-independent basis, Debye):
    X=             -4.6842    Y=              5.5076    Z=              0.7843  Tot=              7.2726
 NROrb=    274 NOA=    47 NOB=    47 NVA=   227 NVB=   227

 **** Warning!!: The largest alpha MO coefficient is  0.80395340D+02

    12 initial guesses have been made.
 Iteration     1 Dimension    12 NMult     0 NNew     12
 New state      1 was old state      2
 Iteration     2 Dimension    24 NMult    12 NNew     12
 Iteration     3 Dimension    27 NMult    24 NNew      3
 Iteration     4 Dimension    30 NMult    27 NNew      3
 Iteration     5 Dimension    33 NMult    30 NNew      3
 Iteration     6 Dimension    36 NMult    33 NNew      3
 Iteration     7 Dimension    39 NMult    36 NNew      3
 Iteration     8 Dimension    42 NMult    39 NNew      3
 Iteration     9 Dimension    45 NMult    42 NNew      3
 Iteration    10 Dimension    48 NMult    45 NNew      3
 Iteration    11 Dimension    51 NMult    48 NNew      3
 Iteration    12 Dimension    54 NMult    51 NNew      3
 Iteration    13 Dimension    57 NMult    54 NNew      3
 ***********************************************************************
 Stability analysis using <AA,BB:AA,BB> singles matrix:
 ***********************************************************************
 Ground to excited state transition densities written to RWF  633

 Eigenvectors of the stability matrix:
 
 Excited state symmetry could not be determined.
 Eigenvector   1:      Singlet-?Sym  Eigenvalue= 0.1667570  <S**2>=0.000
      40 -> 64        -0.11201
      40 -> 65        -0.10672
      40 -> 66        -0.13359
      45 -> 49        -0.12739
      46 -> 49         0.51190
 The wavefunction is stable under the perturbations considered.
 The wavefunction is already stable.

 **********************************************************************

            Population analysis using the SCF Density.

 **********************************************************************

 Alpha  occ. eigenvalues -- -104.64654-104.62720 -20.50382 -20.50270 -15.76214
 Alpha  occ. eigenvalues --  -15.47421 -15.45559 -11.32962 -11.18869 -11.17910
 Alpha  occ. eigenvalues --  -10.37204 -10.35274  -7.83880  -7.83714  -7.83705
 Alpha  occ. eigenvalues --   -7.81943  -7.81784  -7.81783  -1.50190  -1.29739
 Alpha  occ. eigenvalues --   -1.11903  -1.08921  -1.01669  -0.88886  -0.86100
 Alpha  occ. eigenvalues --   -0.83339  -0.77978  -0.68081  -0.62283  -0.60861
 Alpha  occ. eigenvalues --   -0.58865  -0.52998  -0.51069  -0.46470  -0.44734
 Alpha  occ. eigenvalues --   -0.40441  -0.40077  -0.38508  -0.34347  -0.34268
 Alpha  occ. eigenvalues --   -0.31238  -0.29589  -0.28691  -0.28179  -0.26726
 Alpha  occ. eigenvalues --   -0.25930  -0.24604
 Alpha virt. eigenvalues --    0.11583   0.13176   0.14355   0.14835   0.16689
 Alpha virt. eigenvalues --    0.18978   0.20297   0.20715   0.21950   0.22808
 Alpha virt. eigenvalues --    0.23395   0.24088   0.25364   0.25763   0.26190
 Alpha virt. eigenvalues --    0.26947   0.27844   0.28087   0.28973   0.29389
 Alpha virt. eigenvalues --    0.29998   0.31135   0.31683   0.32279   0.33115
 Alpha virt. eigenvalues --    0.34334   0.36013   0.36255   0.36877   0.38313
 Alpha virt. eigenvalues --    0.39032   0.39932   0.40963   0.41776   0.42486
 Alpha virt. eigenvalues --    0.42906   0.43915   0.44521   0.45010   0.45801
 Alpha virt. eigenvalues --    0.46845   0.47662   0.48207   0.49586   0.50223
 Alpha virt. eigenvalues --    0.50793   0.51653   0.52121   0.52979   0.53450
 Alpha virt. eigenvalues --    0.54572   0.55086   0.57625   0.58593   0.59522
 Alpha virt. eigenvalues --    0.60568   0.61247   0.62472   0.62894   0.63797
 Alpha virt. eigenvalues --    0.65449   0.67222   0.67892   0.68621   0.69470
 Alpha virt. eigenvalues --    0.70096   0.71449   0.71900   0.72883   0.74776
 Alpha virt. eigenvalues --    0.74940   0.75456   0.76126   0.77764   0.78055
 Alpha virt. eigenvalues --    0.79088   0.81474   0.81519   0.82582   0.84046
 Alpha virt. eigenvalues --    0.84862   0.85774   0.86948   0.89274   0.89725
 Alpha virt. eigenvalues --    0.90484   0.91046   0.93020   0.95005   0.95554
 Alpha virt. eigenvalues --    0.97232   0.97768   0.99532   1.01201   1.02364
 Alpha virt. eigenvalues --    1.04089   1.06599   1.07530   1.09254   1.10020
 Alpha virt. eigenvalues --    1.10894   1.12468   1.14095   1.14603   1.15514
 Alpha virt. eigenvalues --    1.16994   1.18387   1.19584   1.23424   1.24079
 Alpha virt. eigenvalues --    1.24581   1.26664   1.27468   1.29082   1.30317
 Alpha virt. eigenvalues --    1.33363   1.35226   1.36292   1.38102   1.38838
 Alpha virt. eigenvalues --    1.40533   1.41549   1.41950   1.42578   1.44472
 Alpha virt. eigenvalues --    1.44756   1.45257   1.49702   1.50465   1.53600
 Alpha virt. eigenvalues --    1.53905   1.54926   1.56530   1.57333   1.60260
 Alpha virt. eigenvalues --    1.62082   1.63436   1.64343   1.66246   1.67603
 Alpha virt. eigenvalues --    1.68932   1.69995   1.70657   1.71812   1.74031
 Alpha virt. eigenvalues --    1.74536   1.76416   1.77415   1.80563   1.80874
 Alpha virt. eigenvalues --    1.83075   1.85035   1.86148   1.88413   1.88817
 Alpha virt. eigenvalues --    1.91234   1.94296   1.95392   1.96822   1.99377
 Alpha virt. eigenvalues --    2.01344   2.03763   2.04463   2.08668   2.10534
 Alpha virt. eigenvalues --    2.11464   2.14821   2.16327   2.19738   2.22149
 Alpha virt. eigenvalues --    2.25487   2.27946   2.31090   2.32290   2.36227
 Alpha virt. eigenvalues --    2.38873   2.40247   2.40914   2.43253   2.45836
 Alpha virt. eigenvalues --    2.49329   2.51066   2.54614   2.57866   2.58213
 Alpha virt. eigenvalues --    2.62463   2.64718   2.67890   2.70289   2.71420
 Alpha virt. eigenvalues --    2.73835   2.76232   2.78622   2.79755   2.82123
 Alpha virt. eigenvalues --    2.86342   2.87474   2.90588   2.94379   2.98815
 Alpha virt. eigenvalues --    3.03329   3.10031   3.12440   3.14940   3.18567
 Alpha virt. eigenvalues --    3.22240   3.24161   3.29794   3.35061   3.50130
 Alpha virt. eigenvalues --    3.50948   3.56667   3.67691   3.75680   3.79972
 Alpha virt. eigenvalues --    3.83571   3.84230   3.87241   3.90195   3.93400
 Alpha virt. eigenvalues --    3.96626   4.05044   4.09477   4.13296   4.30679
 Alpha virt. eigenvalues --    4.35176   4.67417
          Condensed to atoms (all electrons):
 Mulliken charges:
               1
     1  C    0.174413
     2  H   -0.088342
     3  Cl  -0.550401
     4  Cl  -0.590931
     5  C    1.325519
     6  H    0.069735
     7  C    0.151371
     8  N   -0.464942
     9  N    1.052884
    10  O   -0.898499
    11  O   -0.907636
    12  N   -0.302197
    13  H   -0.029703
    14  H    0.058729
 Sum of Mulliken charges =  -1.00000
 Mulliken charges with hydrogens summed into heavy atoms:
               1
     1  C    0.174413
     3  Cl  -0.550401
     4  Cl  -0.590931
     5  C    1.306912
     7  C    0.151371
     8  N   -0.464942
     9  N    1.052884
    10  O   -0.898499
    11  O   -0.907636
    12  N   -0.273171
 Electronic spatial extent (au):  <R**2>=           1870.0359
 Charge=             -1.0000 electrons
 Dipole moment (field-independent basis, Debye):
    X=             -4.6842    Y=              5.5076    Z=              0.7843  Tot=              7.2726
 Unable to Open any file for archive entry.
 1\1\GINC-SE362\Stability\RHF\Aug-CC-pVDZ\C3H4Cl2N3O2\OHZDE\09-Apr-2025
 \0\\#t hf aug-cc-pvdz symm=none int=(grid=ultrafine) guess=(read,tchec
 k) stable=(opt,rrhf)\\title\\-1,1\C,0,0.6425833,-0.00388902,-0.0115869
 1\H,0,1.52305571,1.92396849,0.26855282\Cl,0,-1.66069119,-0.22649712,0.
 03488656\Cl,0,3.01475622,-0.05274713,-0.0090582\C,0,0.54240564,1.51180
 035,0.04808651\H,0,-0.12870086,1.74973683,0.87667092\C,0,0.7071436,-0.
 75119745,-1.23149715\N,0,0.71908988,-1.35262159,-2.24362143\N,0,0.7177
 8656,-0.77100544,1.26720979\O,0,0.7320995,-0.09807069,2.29074318\O,0,0
 .74467849,-1.98975399,1.19741339\N,0,0.10994498,2.00472257,-1.24995862
 \H,0,0.29348255,2.99708802,-1.30768862\H,0,-0.88453439,1.84469618,-1.3
 4825224\\Version=ES64L-G16RevC.01\HF=-1347.9469455\RMSD=8.276e-09\Dipo
 le=-0.6680837,1.9793785,0.3914509\Quadrupole=-10.0309574,11.1529197,-1
 .1219623,1.1961807,1.3328536,-1.8902703\PG=Unknown\\@
 The archive entry for this job was punched.


 IT IS BY LOGIC THAT WE PROVE, BUT BY INTUITION THAT WE DISCOVER.
     -- J.H.POINCARE (1854-1912)
 Job cpu time:       0 days  0 hours 16 minutes 42.9 seconds.
 Elapsed time:       0 days  0 hours  1 minutes  9.6 seconds.
 File lengths (MBytes):  RWF=    451 Int=      0 D2E=      0 Chk=     11 Scr=      1
 Normal termination of Gaussian 16 at Wed Apr  9 02:48:26 2025.
 Initial command:
 /arc/software/Gaussian/g16.c01/l1.exe "/tmp/slurm/4859364/Gau-3271188.inp" -scrdir="/tmp/slurm/4859364/"
 Entering Link 1 = /arc/software/Gaussian/g16.c01/l1.exe PID=   3271433.
  
 Copyright (c) 1988-2019, Gaussian, Inc.  All Rights Reserved.
  
 This is part of the Gaussian(R) 16 program.  It is based on
 the Gaussian(R) 09 system (copyright 2009, Gaussian, Inc.),
 the Gaussian(R) 03 system (copyright 2003, Gaussian, Inc.),
 the Gaussian(R) 98 system (copyright 1998, Gaussian, Inc.),
 the Gaussian(R) 94 system (copyright 1995, Gaussian, Inc.),
 the Gaussian 92(TM) system (copyright 1992, Gaussian, Inc.),
 the Gaussian 90(TM) system (copyright 1990, Gaussian, Inc.),
 the Gaussian 88(TM) system (copyright 1988, Gaussian, Inc.),
 the Gaussian 86(TM) system (copyright 1986, Carnegie Mellon
 University), and the Gaussian 82(TM) system (copyright 1983,
 Carnegie Mellon University). Gaussian is a federally registered
 trademark of Gaussian, Inc.
  
 This software contains proprietary and confidential information,
 including trade secrets, belonging to Gaussian, Inc.
  
 This software is provided under written license and may be
 used, copied, transmitted, or stored only in accord with that
 written license.
  
 The following legend is applicable only to US Government
 contracts under FAR:
  
                    RESTRICTED RIGHTS LEGEND
  
 Use, reproduction and disclosure by the US Government is
 subject to restrictions as set forth in subparagraphs (a)
 and (c) of the Commercial Computer Software - Restricted
 Rights clause in FAR 52.227-19.
  
 Gaussian, Inc.
 340 Quinnipiac St., Bldg. 40, Wallingford CT 06492
  
  
 ---------------------------------------------------------------
 Warning -- This program may not be used in any manner that
 competes with the business of Gaussian, Inc. or will provide
 assistance to any competitor of Gaussian, Inc.  The licensee
 of this program is prohibited from giving any competitor of
 Gaussian, Inc. access to this program.  By using this program,
 the user acknowledges that Gaussian, Inc. is engaged in the
 business of creating and licensing software in the field of
 computational chemistry and represents and warrants to the
 licensee that it is not a competitor of Gaussian, Inc. and that
 it will not use this program in any manner prohibited above.
 ---------------------------------------------------------------
  

 Cite this work as:
 Gaussian 16, Revision C.01,
 M. J. Frisch, G. W. Trucks, H. B. Schlegel, G. E. Scuseria, 
 M. A. Robb, J. R. Cheeseman, G. Scalmani, V. Barone, 
 G. A. Petersson, H. Nakatsuji, X. Li, M. Caricato, A. V. Marenich, 
 J. Bloino, B. G. Janesko, R. Gomperts, B. Mennucci, H. P. Hratchian, 
 J. V. Ortiz, A. F. Izmaylov, J. L. Sonnenberg, D. Williams-Young, 
 F. Ding, F. Lipparini, F. Egidi, J. Goings, B. Peng, A. Petrone, 
 T. Henderson, D. Ranasinghe, V. G. Zakrzewski, J. Gao, N. Rega, 
 G. Zheng, W. Liang, M. Hada, M. Ehara, K. Toyota, R. Fukuda, 
 J. Hasegawa, M. Ishida, T. Nakajima, Y. Honda, O. Kitao, H. Nakai, 
 T. Vreven, K. Throssell, J. A. Montgomery, Jr., J. E. Peralta, 
 F. Ogliaro, M. J. Bearpark, J. J. Heyd, E. N. Brothers, K. N. Kudin, 
 V. N. Staroverov, T. A. Keith, R. Kobayashi, J. Normand, 
 K. Raghavachari, A. P. Rendell, J. C. Burant, S. S. Iyengar, 
 J. Tomasi, M. Cossi, J. M. Millam, M. Klene, C. Adamo, R. Cammi, 
 J. W. Ochterski, R. L. Martin, K. Morokuma, O. Farkas, 
 J. B. Foresman, and D. J. Fox, Gaussian, Inc., Wallingford CT, 2019.
 
 ******************************************
 Gaussian 16:  ES64L-G16RevC.01  3-Jul-2019
                 9-Apr-2025 
 ******************************************
 %nprocs=16
 Will use up to   16 processors via shared memory.
 %mem=30GB
 %chk=E2SN2_266_mol1.chk
 ----------------------------------------------------------------------
 #t hf aug-cc-pvdz iop(5/13=1,5/36=2,99/5=2) pseudo=read geom=check gue
 ss=(read,tcheck) scf=(maxcycle=1)
 ----------------------------------------------------------------------
 -----
 title
 -----
 Structure from the checkpoint file:  "E2SN2_266_mol1.chk"
 Charge = -1 Multiplicity = 1
 Z-Matrix found in chk file.
 C,0,0.6425833,-0.00388902,-0.01158691
 H,0,1.52305571,1.92396849,0.26855282
 Cl,0,-1.66069119,-0.22649712,0.03488656
 Cl,0,3.01475622,-0.05274713,-0.0090582
 C,0,0.54240564,1.51180035,0.04808651
 H,0,-0.12870086,1.74973683,0.87667092
 C,0,0.7071436,-0.75119745,-1.23149715
 N,0,0.71908988,-1.35262159,-2.24362143
 N,0,0.71778656,-0.77100544,1.26720979
 O,0,0.7320995,-0.09807069,2.29074318
 O,0,0.74467849,-1.98975399,1.19741339
 N,0,0.10994498,2.00472257,-1.24995862
 H,0,0.29348255,2.99708802,-1.30768862
 H,0,-0.88453439,1.84469618,-1.34825224
 Recover connectivity data from disk.
                    Distance matrix (angstroms):
                    1          2          3          4          5
     1  C    0.000000
     2  H    2.137836   0.000000
     3  Cl   2.314473   3.849071   0.000000
     4  Cl   2.372677   2.491916   4.678881   0.000000
     5  C    1.520168   1.086353   2.806330   2.926362   0.000000
     6  H    2.111655   1.768746   2.638389   3.730253   1.092497
     7  C    1.432068   3.173701   2.735997   2.703195   2.604925
     8  N    2.609006   4.206355   3.481826   3.457315   3.672609
     9  N    1.493132   2.984738   2.733545   2.724119   2.593882
    10  O    2.305994   2.967071   3.291023   3.240627   2.767161
    11  O    2.327180   4.097057   3.200992   3.218823   3.690901
    12  N    2.419047   2.075881   3.124791   3.769741   1.454275
    13  H    3.287494   2.268914   4.001600   4.288737   2.026368
    14  H    2.745183   2.901178   2.608704   4.538524   2.024040
                    6          7          8          9         10
     6  H    0.000000
     7  C    3.376045   0.000000
     8  N    4.481027   1.177391   0.000000
     9  N    2.687602   2.498808   3.558682   0.000000
    10  O    2.480921   3.582370   4.704735   1.225017   0.000000
    11  O    3.853500   2.726727   3.499616   1.221042   2.184947
    12  N    2.155115   2.819944   3.553897   3.796087   4.164779
    13  H    2.550598   3.771812   4.469573   4.583521   4.766666
    14  H    2.351720   3.047250   3.687294   4.031125   4.430591
                   11         12         13         14
    11  O    0.000000
    12  N    4.727405   0.000000
    13  H    5.598902   1.010845   0.000000
    14  H    4.882392   1.012057   1.648447   0.000000
 Framework group  C1[X(C3H4Cl2N3O2)]
 Deg. of freedom    36
                         Standard orientation:                         
 ---------------------------------------------------------------------
 Center     Atomic      Atomic             Coordinates (Angstroms)
 Number     Number       Type             X           Y           Z
 ---------------------------------------------------------------------
      1          6           0       -0.000516   -0.103973   -0.042261
      2          1           0        0.631206   -1.202084   -1.764302
      3         17           0       -2.221249    0.512862    0.169040
      4         17           0        2.332571   -0.534689   -0.070318
      5          6           0       -0.302935   -0.938401   -1.276434
      6          1           0       -0.880086   -0.302453   -1.951724
      7          6           0       -0.000628   -0.624654    1.291796
      8          7           0       -0.044133   -1.059597    2.385040
      9          7           0        0.356994    1.335215   -0.216535
     10          8           0        0.417796    1.731465   -1.374099
     11          8           0        0.544546    1.999589    0.790627
     12          7           0       -0.974957   -2.160171   -0.863419
     13          1           0       -0.942036   -2.830535   -1.619287
     14          1           0       -1.941155   -1.948247   -0.649387
 ---------------------------------------------------------------------
 Rotational constants (GHZ):           1.1313255           0.8811184           0.7667755
 ======================================================================================================
                                       Pseudopotential Parameters
 ======================================================================================================
  Center     Atomic      Valence      Angular      Power
  Number     Number     Electrons     Momentum     of R      Exponent        Coefficient   SO-Coeffient
 ======================================================================================================
    1          6            6
                                      G and up 
                                                     0        0.0000010       -0.00007288    0.00000000
                                                     2        0.1200000        0.10466671    0.00000000
                                                     2        0.1400000       -0.65716157    0.00000000
                                                     2        0.1600000        1.18890794    0.00000000
                                                     2        0.2000000       -1.25772850    0.00000000
                                                     2        0.2600000        1.01188378    0.00000000
                                                     2        0.4000000       -1.09380874    0.00000000
                                                     2        0.5000000        0.96944888    0.00000000
                                                     2        1.0000000       -0.79256938    0.00000000
                                                     2        3.0000000        1.06443276    0.00000000
                                      S - G
                                                     0        0.0000010       -0.00635295    0.00000000
                                                     2        0.1200000        0.16918955    0.00000000
                                                     2        0.1600000       -0.38862576    0.00000000
                                                     2        0.2800000        0.25638263    0.00000000
                                                     2        0.5000000        0.29628419    0.00000000
                                                     2        0.9000000       -0.28791512    0.00000000
                                      P - G
                                                     0        0.0000010       -0.04756931    0.00000000
                                                     2        0.1200000        0.28430375    0.00000000
                                                     2        0.1600000       -0.69640032    0.00000000
                                                     2        0.2600000        1.13005668    0.00000000
                                                     2        0.4000000       -1.31433324    0.00000000
                                                     2        0.7000000        0.91526469    0.00000000
                                      D - G
                                                     0        0.0000010       -0.11496411    0.00000000
                                                     2        0.1200000        0.16620776    0.00000000
                                                     2        0.1800000       -0.30959819    0.00000000
                                                     2        0.3000000        0.16621458    0.00000000
                                                     2        0.6000000        0.27350556    0.00000000
                                      F - G
                                                     0        0.0000010        0.12037550    0.00000000
                                                     2        0.1200000       -0.48737077    0.00000000
                                                     2        0.1400000        0.58315350    0.00000000
                                                     2        0.3000000        0.00005188    0.00000000
                                                     2        0.5000000       -1.16063549    0.00000000
                                                     2        0.8000000        2.09053308    0.00000000
    2          1            1
                                      F and up 
                                                     0        0.0000010       -0.00007675    0.00000000
                                                     2        0.1200000        0.05352699    0.00000000
                                                     2        0.1400000       -0.25123645    0.00000000
                                                     2        0.1600000        0.32188106    0.00000000
                                                     2        0.2200000       -0.25206857    0.00000000
                                                     2        0.3000000        0.19290477    0.00000000
                                                     2        0.5000000       -0.10129770    0.00000000
                                                     2        0.9000000        0.00314995    0.00000000
                                                     2        1.5000000        0.18401192    0.00000000
                                      S - F
                                                     0        0.0000010        0.08065976    0.00000000
                                                     2        0.1200000       -0.09231673    0.00000000
                                                     2        0.1600000       -0.03278082    0.00000000
                                                     2        0.2800000        0.38423402    0.00000000
                                                     2        0.6000000       -1.09357590    0.00000000
                                                     2        1.1000000        1.53099489    0.00000000
                                                     2        3.0000000       -2.63300202    0.00000000
                                      P - F
                                                     0        0.0000010       -0.11638665    0.00000000
                                                     2        0.1200000        0.35468655    0.00000000
                                                     2        0.1600000       -0.59160923    0.00000000
                                                     2        0.3000000        0.49390547    0.00000000
                                                     2        0.6000000       -0.37949835    0.00000000
                                                     2        1.6000000        0.89304688    0.00000000
                                      D - F
                                                     0        0.0000010        0.05443663    0.00000000
                                                     2        0.1200000       -0.29679479    0.00000000
                                                     2        0.1400000        0.36849872    0.00000000
                                                     2        0.2400000        0.02793449    0.00000000
                                                     2        0.4000000       -0.46312857    0.00000000
                                                     2        0.7000000        0.97587598    0.00000000
                                                     2        1.5000000       -2.43431102    0.00000000
    3         17           17
                                      G and up 
                                                     0        0.0000010        0.00010715    0.00000000
                                                     2        0.1200000       -0.00076261    0.00000000
                                                     2        0.1600000        0.04395058    0.00000000
                                                     2        0.2000000       -0.10504698    0.00000000
                                                     2        0.2800000        0.13950130    0.00000000
                                                     2        0.4000000       -0.12623641    0.00000000
                                                     2        0.7000000       -0.42143984    0.00000000
                                      S - G
                                                     0        0.0000010       -0.00139392    0.00000000
                                                     2        0.1200000       -0.01887585    0.00000000
                                                     2        0.4000000        0.46511854    0.00000000
                                      P - G
                                                     0        0.0000010        0.03235088    0.00000000
                                                     2        0.1200000        0.42220750    0.00000000
                                                     2        0.1600000       -1.02263661    0.00000000
                                                     2        0.2600000        0.81322107    0.00000000
                                      D - G
                                                     0        0.0000010       -0.08073759    0.00000000
                                                     2        0.1200000       -0.02872770    0.00000000
                                                     2        0.2000000        0.11554000    0.00000000
                                      F - G
                                                     0        0.0000010        0.04269408    0.00000000
                                                     2        0.1200000       -0.09796467    0.00000000
                                                     2        0.2000000        0.26850099    0.00000000
    4         17           17
                                      G and up 
                                                     0        0.0000010        0.00010715    0.00000000
                                                     2        0.1200000       -0.00076261    0.00000000
                                                     2        0.1600000        0.04395058    0.00000000
                                                     2        0.2000000       -0.10504698    0.00000000
                                                     2        0.2800000        0.13950130    0.00000000
                                                     2        0.4000000       -0.12623641    0.00000000
                                                     2        0.7000000       -0.42143984    0.00000000
                                      S - G
                                                     0        0.0000010       -0.00139392    0.00000000
                                                     2        0.1200000       -0.01887585    0.00000000
                                                     2        0.4000000        0.46511854    0.00000000
                                      P - G
                                                     0        0.0000010        0.03235088    0.00000000
                                                     2        0.1200000        0.42220750    0.00000000
                                                     2        0.1600000       -1.02263661    0.00000000
                                                     2        0.2600000        0.81322107    0.00000000
                                      D - G
                                                     0        0.0000010       -0.08073759    0.00000000
                                                     2        0.1200000       -0.02872770    0.00000000
                                                     2        0.2000000        0.11554000    0.00000000
                                      F - G
                                                     0        0.0000010        0.04269408    0.00000000
                                                     2        0.1200000       -0.09796467    0.00000000
                                                     2        0.2000000        0.26850099    0.00000000
    5          6            6
                                      G and up 
                                                     0        0.0000010       -0.00007288    0.00000000
                                                     2        0.1200000        0.10466671    0.00000000
                                                     2        0.1400000       -0.65716157    0.00000000
                                                     2        0.1600000        1.18890794    0.00000000
                                                     2        0.2000000       -1.25772850    0.00000000
                                                     2        0.2600000        1.01188378    0.00000000
                                                     2        0.4000000       -1.09380874    0.00000000
                                                     2        0.5000000        0.96944888    0.00000000
                                                     2        1.0000000       -0.79256938    0.00000000
                                                     2        3.0000000        1.06443276    0.00000000
                                      S - G
                                                     0        0.0000010       -0.00635295    0.00000000
                                                     2        0.1200000        0.16918955    0.00000000
                                                     2        0.1600000       -0.38862576    0.00000000
                                                     2        0.2800000        0.25638263    0.00000000
                                                     2        0.5000000        0.29628419    0.00000000
                                                     2        0.9000000       -0.28791512    0.00000000
                                      P - G
                                                     0        0.0000010       -0.04756931    0.00000000
                                                     2        0.1200000        0.28430375    0.00000000
                                                     2        0.1600000       -0.69640032    0.00000000
                                                     2        0.2600000        1.13005668    0.00000000
                                                     2        0.4000000       -1.31433324    0.00000000
                                                     2        0.7000000        0.91526469    0.00000000
                                      D - G
                                                     0        0.0000010       -0.11496411    0.00000000
                                                     2        0.1200000        0.16620776    0.00000000
                                                     2        0.1800000       -0.30959819    0.00000000
                                                     2        0.3000000        0.16621458    0.00000000
                                                     2        0.6000000        0.27350556    0.00000000
                                      F - G
                                                     0        0.0000010        0.12037550    0.00000000
                                                     2        0.1200000       -0.48737077    0.00000000
                                                     2        0.1400000        0.58315350    0.00000000
                                                     2        0.3000000        0.00005188    0.00000000
                                                     2        0.5000000       -1.16063549    0.00000000
                                                     2        0.8000000        2.09053308    0.00000000
    6          1            1
                                      F and up 
                                                     0        0.0000010       -0.00007675    0.00000000
                                                     2        0.1200000        0.05352699    0.00000000
                                                     2        0.1400000       -0.25123645    0.00000000
                                                     2        0.1600000        0.32188106    0.00000000
                                                     2        0.2200000       -0.25206857    0.00000000
                                                     2        0.3000000        0.19290477    0.00000000
                                                     2        0.5000000       -0.10129770    0.00000000
                                                     2        0.9000000        0.00314995    0.00000000
                                                     2        1.5000000        0.18401192    0.00000000
                                      S - F
                                                     0        0.0000010        0.08065976    0.00000000
                                                     2        0.1200000       -0.09231673    0.00000000
                                                     2        0.1600000       -0.03278082    0.00000000
                                                     2        0.2800000        0.38423402    0.00000000
                                                     2        0.6000000       -1.09357590    0.00000000
                                                     2        1.1000000        1.53099489    0.00000000
                                                     2        3.0000000       -2.63300202    0.00000000
                                      P - F
                                                     0        0.0000010       -0.11638665    0.00000000
                                                     2        0.1200000        0.35468655    0.00000000
                                                     2        0.1600000       -0.59160923    0.00000000
                                                     2        0.3000000        0.49390547    0.00000000
                                                     2        0.6000000       -0.37949835    0.00000000
                                                     2        1.6000000        0.89304688    0.00000000
                                      D - F
                                                     0        0.0000010        0.05443663    0.00000000
                                                     2        0.1200000       -0.29679479    0.00000000
                                                     2        0.1400000        0.36849872    0.00000000
                                                     2        0.2400000        0.02793449    0.00000000
                                                     2        0.4000000       -0.46312857    0.00000000
                                                     2        0.7000000        0.97587598    0.00000000
                                                     2        1.5000000       -2.43431102    0.00000000
    7          6            6
                                      G and up 
                                                     0        0.0000010       -0.00007288    0.00000000
                                                     2        0.1200000        0.10466671    0.00000000
                                                     2        0.1400000       -0.65716157    0.00000000
                                                     2        0.1600000        1.18890794    0.00000000
                                                     2        0.2000000       -1.25772850    0.00000000
                                                     2        0.2600000        1.01188378    0.00000000
                                                     2        0.4000000       -1.09380874    0.00000000
                                                     2        0.5000000        0.96944888    0.00000000
                                                     2        1.0000000       -0.79256938    0.00000000
                                                     2        3.0000000        1.06443276    0.00000000
                                      S - G
                                                     0        0.0000010       -0.00635295    0.00000000
                                                     2        0.1200000        0.16918955    0.00000000
                                                     2        0.1600000       -0.38862576    0.00000000
                                                     2        0.2800000        0.25638263    0.00000000
                                                     2        0.5000000        0.29628419    0.00000000
                                                     2        0.9000000       -0.28791512    0.00000000
                                      P - G
                                                     0        0.0000010       -0.04756931    0.00000000
                                                     2        0.1200000        0.28430375    0.00000000
                                                     2        0.1600000       -0.69640032    0.00000000
                                                     2        0.2600000        1.13005668    0.00000000
                                                     2        0.4000000       -1.31433324    0.00000000
                                                     2        0.7000000        0.91526469    0.00000000
                                      D - G
                                                     0        0.0000010       -0.11496411    0.00000000
                                                     2        0.1200000        0.16620776    0.00000000
                                                     2        0.1800000       -0.30959819    0.00000000
                                                     2        0.3000000        0.16621458    0.00000000
                                                     2        0.6000000        0.27350556    0.00000000
                                      F - G
                                                     0        0.0000010        0.12037550    0.00000000
                                                     2        0.1200000       -0.48737077    0.00000000
                                                     2        0.1400000        0.58315350    0.00000000
                                                     2        0.3000000        0.00005188    0.00000000
                                                     2        0.5000000       -1.16063549    0.00000000
                                                     2        0.8000000        2.09053308    0.00000000
    8          7            7
                                      G and up 
                                                     0        0.0000010       -0.00039818    0.00000000
                                                     2        0.1200000       -0.37616123    0.00000000
                                                     2        0.1400000        2.13837358    0.00000000
                                                     2        0.1600000       -3.36562035    0.00000000
                                                     2        0.2000000        2.53463289    0.00000000
                                                     2        0.3000000       -1.98118833    0.00000000
                                                     2        0.5000000        4.06642919    0.00000000
                                                     2        0.7000000       -6.15327959    0.00000000
                                                     2        1.2000000       10.22492851    0.00000000
                                                     2        2.0000000      -14.94707511    0.00000000
                                      S - G
                                                     0        0.0000010        0.02721443    0.00000000
                                                     2        0.1200000       -0.60186009    0.00000000
                                                     2        0.1600000        1.10088134    0.00000000
                                                     2        0.2600000       -0.59857981    0.00000000
                                                     2        0.6000000        0.21288222    0.00000000
                                                     2        3.0000000        5.09059205    0.00000000
                                      P - G
                                                     0        0.0000010        0.40558062    0.00000000
                                                     2        0.1200000        0.81809854    0.00000000
                                                     2        0.1600000       -2.44952728    0.00000000
                                                     2        0.2800000        4.16638749    0.00000000
                                                     2        0.5000000       -6.02944147    0.00000000
                                                     2        1.1000000        5.78262914    0.00000000
                                      D - G
                                                     0        0.0000010       -0.62770267    0.00000000
                                                     2        0.1600000        0.91438653    0.00000000
                                                     2        0.2600000       -2.00568466    0.00000000
                                                     2        0.5000000        3.30798839    0.00000000
                                                     2        1.1000000       -3.91526108    0.00000000
                                      F - G
                                                     0        0.0000010        0.29726344    0.00000000
                                                     2        0.1200000       -0.41591527    0.00000000
                                                     2        0.1600000        0.51444439    0.00000000
                                                     2        0.4000000       -0.69401726    0.00000000
                                                     2        0.7000000        0.51478123    0.00000000
    9          7            7
                                      G and up 
                                                     0        0.0000010       -0.00039818    0.00000000
                                                     2        0.1200000       -0.37616123    0.00000000
                                                     2        0.1400000        2.13837358    0.00000000
                                                     2        0.1600000       -3.36562035    0.00000000
                                                     2        0.2000000        2.53463289    0.00000000
                                                     2        0.3000000       -1.98118833    0.00000000
                                                     2        0.5000000        4.06642919    0.00000000
                                                     2        0.7000000       -6.15327959    0.00000000
                                                     2        1.2000000       10.22492851    0.00000000
                                                     2        2.0000000      -14.94707511    0.00000000
                                      S - G
                                                     0        0.0000010        0.02721443    0.00000000
                                                     2        0.1200000       -0.60186009    0.00000000
                                                     2        0.1600000        1.10088134    0.00000000
                                                     2        0.2600000       -0.59857981    0.00000000
                                                     2        0.6000000        0.21288222    0.00000000
                                                     2        3.0000000        5.09059205    0.00000000
                                      P - G
                                                     0        0.0000010        0.40558062    0.00000000
                                                     2        0.1200000        0.81809854    0.00000000
                                                     2        0.1600000       -2.44952728    0.00000000
                                                     2        0.2800000        4.16638749    0.00000000
                                                     2        0.5000000       -6.02944147    0.00000000
                                                     2        1.1000000        5.78262914    0.00000000
                                      D - G
                                                     0        0.0000010       -0.62770267    0.00000000
                                                     2        0.1600000        0.91438653    0.00000000
                                                     2        0.2600000       -2.00568466    0.00000000
                                                     2        0.5000000        3.30798839    0.00000000
                                                     2        1.1000000       -3.91526108    0.00000000
                                      F - G
                                                     0        0.0000010        0.29726344    0.00000000
                                                     2        0.1200000       -0.41591527    0.00000000
                                                     2        0.1600000        0.51444439    0.00000000
                                                     2        0.4000000       -0.69401726    0.00000000
                                                     2        0.7000000        0.51478123    0.00000000
   10          8            8
                                      G and up 
                                                     0        0.0000010        0.00049668    0.00000000
                                                     2        0.1200000       -0.01803391    0.00000000
                                                     2        0.1400000        0.04014195    0.00000000
                                                     2        0.2000000       -0.02692147    0.00000000
                                                     2        0.2800000       -0.04241843    0.00000000
                                                     2        0.4000000        0.15412145    0.00000000
                                                     2        0.7000000       -0.40587006    0.00000000
                                                     2        1.1000000        1.75666647    0.00000000
                                      S - G
                                                     0        0.0000010       -0.01088195    0.00000000
                                                     2        0.1200000        0.09867335    0.00000000
                                                     2        0.2400000       -0.08484177    0.00000000
                                                     2        0.6000000       -1.39011554    0.00000000
                                                     2        2.5000000        1.36225910    0.00000000
                                      P - G
                                                     0        0.0000010        0.05874028    0.00000000
                                                     2        0.1200000       -0.11700340    0.00000000
                                                     2        0.1600000        0.08847775    0.00000000
                                                     2        0.3000000        0.04709907    0.00000000
                                                     2        1.2000000       -1.80388338    0.00000000
                                      D - G
                                                     0        0.0000010       -0.00541262    0.00000000
                                                     2        0.1200000       -0.26547906    0.00000000
                                                     2        0.1600000        1.04289661    0.00000000
                                                     2        0.2400000       -1.92800913    0.00000000
                                                     2        0.4000000        2.26691633    0.00000000
                                                     2        0.7000000       -1.97391482    0.00000000
                                      F - G
                                                     0        0.0000010       -0.02604870    0.00000000
                                                     2        0.1200000        0.37362552    0.00000000
                                                     2        0.1600000       -1.43526367    0.00000000
                                                     2        0.2200000        1.76778079    0.00000000
                                                     2        0.5000000       -1.90846303    0.00000000
   11          8            8
                                      G and up 
                                                     0        0.0000010        0.00049668    0.00000000
                                                     2        0.1200000       -0.01803391    0.00000000
                                                     2        0.1400000        0.04014195    0.00000000
                                                     2        0.2000000       -0.02692147    0.00000000
                                                     2        0.2800000       -0.04241843    0.00000000
                                                     2        0.4000000        0.15412145    0.00000000
                                                     2        0.7000000       -0.40587006    0.00000000
                                                     2        1.1000000        1.75666647    0.00000000
                                      S - G
                                                     0        0.0000010       -0.01088195    0.00000000
                                                     2        0.1200000        0.09867335    0.00000000
                                                     2        0.2400000       -0.08484177    0.00000000
                                                     2        0.6000000       -1.39011554    0.00000000
                                                     2        2.5000000        1.36225910    0.00000000
                                      P - G
                                                     0        0.0000010        0.05874028    0.00000000
                                                     2        0.1200000       -0.11700340    0.00000000
                                                     2        0.1600000        0.08847775    0.00000000
                                                     2        0.3000000        0.04709907    0.00000000
                                                     2        1.2000000       -1.80388338    0.00000000
                                      D - G
                                                     0        0.0000010       -0.00541262    0.00000000
                                                     2        0.1200000       -0.26547906    0.00000000
                                                     2        0.1600000        1.04289661    0.00000000
                                                     2        0.2400000       -1.92800913    0.00000000
                                                     2        0.4000000        2.26691633    0.00000000
                                                     2        0.7000000       -1.97391482    0.00000000
                                      F - G
                                                     0        0.0000010       -0.02604870    0.00000000
                                                     2        0.1200000        0.37362552    0.00000000
                                                     2        0.1600000       -1.43526367    0.00000000
                                                     2        0.2200000        1.76778079    0.00000000
                                                     2        0.5000000       -1.90846303    0.00000000
   12          7            7
                                      G and up 
                                                     0        0.0000010       -0.00039818    0.00000000
                                                     2        0.1200000       -0.37616123    0.00000000
                                                     2        0.1400000        2.13837358    0.00000000
                                                     2        0.1600000       -3.36562035    0.00000000
                                                     2        0.2000000        2.53463289    0.00000000
                                                     2        0.3000000       -1.98118833    0.00000000
                                                     2        0.5000000        4.06642919    0.00000000
                                                     2        0.7000000       -6.15327959    0.00000000
                                                     2        1.2000000       10.22492851    0.00000000
                                                     2        2.0000000      -14.94707511    0.00000000
                                      S - G
                                                     0        0.0000010        0.02721443    0.00000000
                                                     2        0.1200000       -0.60186009    0.00000000
                                                     2        0.1600000        1.10088134    0.00000000
                                                     2        0.2600000       -0.59857981    0.00000000
                                                     2        0.6000000        0.21288222    0.00000000
                                                     2        3.0000000        5.09059205    0.00000000
                                      P - G
                                                     0        0.0000010        0.40558062    0.00000000
                                                     2        0.1200000        0.81809854    0.00000000
                                                     2        0.1600000       -2.44952728    0.00000000
                                                     2        0.2800000        4.16638749    0.00000000
                                                     2        0.5000000       -6.02944147    0.00000000
                                                     2        1.1000000        5.78262914    0.00000000
                                      D - G
                                                     0        0.0000010       -0.62770267    0.00000000
                                                     2        0.1600000        0.91438653    0.00000000
                                                     2        0.2600000       -2.00568466    0.00000000
                                                     2        0.5000000        3.30798839    0.00000000
                                                     2        1.1000000       -3.91526108    0.00000000
                                      F - G
                                                     0        0.0000010        0.29726344    0.00000000
                                                     2        0.1200000       -0.41591527    0.00000000
                                                     2        0.1600000        0.51444439    0.00000000
                                                     2        0.4000000       -0.69401726    0.00000000
                                                     2        0.7000000        0.51478123    0.00000000
   13          1            1
                                      F and up 
                                                     0        0.0000010       -0.00007675    0.00000000
                                                     2        0.1200000        0.05352699    0.00000000
                                                     2        0.1400000       -0.25123645    0.00000000
                                                     2        0.1600000        0.32188106    0.00000000
                                                     2        0.2200000       -0.25206857    0.00000000
                                                     2        0.3000000        0.19290477    0.00000000
                                                     2        0.5000000       -0.10129770    0.00000000
                                                     2        0.9000000        0.00314995    0.00000000
                                                     2        1.5000000        0.18401192    0.00000000
                                      S - F
                                                     0        0.0000010        0.08065976    0.00000000
                                                     2        0.1200000       -0.09231673    0.00000000
                                                     2        0.1600000       -0.03278082    0.00000000
                                                     2        0.2800000        0.38423402    0.00000000
                                                     2        0.6000000       -1.09357590    0.00000000
                                                     2        1.1000000        1.53099489    0.00000000
                                                     2        3.0000000       -2.63300202    0.00000000
                                      P - F
                                                     0        0.0000010       -0.11638665    0.00000000
                                                     2        0.1200000        0.35468655    0.00000000
                                                     2        0.1600000       -0.59160923    0.00000000
                                                     2        0.3000000        0.49390547    0.00000000
                                                     2        0.6000000       -0.37949835    0.00000000
                                                     2        1.6000000        0.89304688    0.00000000
                                      D - F
                                                     0        0.0000010        0.05443663    0.00000000
                                                     2        0.1200000       -0.29679479    0.00000000
                                                     2        0.1400000        0.36849872    0.00000000
                                                     2        0.2400000        0.02793449    0.00000000
                                                     2        0.4000000       -0.46312857    0.00000000
                                                     2        0.7000000        0.97587598    0.00000000
                                                     2        1.5000000       -2.43431102    0.00000000
   14          1            1
                                      F and up 
                                                     0        0.0000010       -0.00007675    0.00000000
                                                     2        0.1200000        0.05352699    0.00000000
                                                     2        0.1400000       -0.25123645    0.00000000
                                                     2        0.1600000        0.32188106    0.00000000
                                                     2        0.2200000       -0.25206857    0.00000000
                                                     2        0.3000000        0.19290477    0.00000000
                                                     2        0.5000000       -0.10129770    0.00000000
                                                     2        0.9000000        0.00314995    0.00000000
                                                     2        1.5000000        0.18401192    0.00000000
                                      S - F
                                                     0        0.0000010        0.08065976    0.00000000
                                                     2        0.1200000       -0.09231673    0.00000000
                                                     2        0.1600000       -0.03278082    0.00000000
                                                     2        0.2800000        0.38423402    0.00000000
                                                     2        0.6000000       -1.09357590    0.00000000
                                                     2        1.1000000        1.53099489    0.00000000
                                                     2        3.0000000       -2.63300202    0.00000000
                                      P - F
                                                     0        0.0000010       -0.11638665    0.00000000
                                                     2        0.1200000        0.35468655    0.00000000
                                                     2        0.1600000       -0.59160923    0.00000000
                                                     2        0.3000000        0.49390547    0.00000000
                                                     2        0.6000000       -0.37949835    0.00000000
                                                     2        1.6000000        0.89304688    0.00000000
                                      D - F
                                                     0        0.0000010        0.05443663    0.00000000
                                                     2        0.1200000       -0.29679479    0.00000000
                                                     2        0.1400000        0.36849872    0.00000000
                                                     2        0.2400000        0.02793449    0.00000000
                                                     2        0.4000000       -0.46312857    0.00000000
                                                     2        0.7000000        0.97587598    0.00000000
                                                     2        1.5000000       -2.43431102    0.00000000
 ======================================================================================================
   274 basis functions,   550 primitive gaussians,   294 cartesian basis functions
    47 alpha electrons       47 beta electrons
       nuclear repulsion energy       731.9335919175 Hartrees.
 NAtoms=   14 NActive=   14 NUniq=   14 SFac= 1.00D+00 NAtFMM=   60 NAOKFM=F Big=F
   1 Symmetry operations used in ECPInt.
 ECPInt:  NShTT=    6555 NPrTT=   45167 LenC2=    6510 LenP2D=   29550.
 LDataN:  DoStor=T MaxTD1= 6 Len=  172
 Initial guess from the checkpoint file:  "E2SN2_266_mol1.chk"
 B after Tr=    -1.189601    0.052595   -0.065653
         Rot=    0.440614    0.892247   -0.093805    0.030918 Ang= 127.71 deg.
 >>>>>>>>>> Convergence criterion not met.
 SCF Done:  E(RHF) =  -1348.51852522     A.U. after    2 cycles
            NFock=  1  Conv=0.37D-01     -V/T= 2.0026

 **********************************************************************

            Population analysis using the SCF Density.

 **********************************************************************

 Orbital symmetries:
       Occupied  (A) (A) (A) (A) (A) (A) (A) (A) (A) (A) (A) (A)
                 (A) (A) (A) (A) (A) (A) (A) (A) (A) (A) (A) (A)
                 (A) (A) (A) (A) (A) (A) (A) (A) (A) (A) (A) (A)
                 (A) (A) (A) (A) (A) (A) (A) (A) (A) (A) (A)
       Virtual   (A) (A) (A) (A) (A) (A) (A) (A) (A) (A) (A) (A)
                 (A) (A) (A) (A) (A) (A) (A) (A) (A) (A) (A) (A)
                 (A) (A) (A) (A) (A) (A) (A) (A) (A) (A) (A) (A)
                 (A) (A) (A) (A) (A) (A) (A) (A) (A) (A) (A) (A)
                 (A) (A) (A) (A) (A) (A) (A) (A) (A) (A) (A) (A)
                 (A) (A) (A) (A) (A) (A) (A) (A) (A) (A) (A) (A)
                 (A) (A) (A) (A) (A) (A) (A) (A) (A) (A) (A) (A)
                 (A) (A) (A) (A) (A) (A) (A) (A) (A) (A) (A) (A)
                 (A) (A) (A) (A) (A) (A) (A) (A) (A) (A) (A) (A)
                 (A) (A) (A) (A) (A) (A) (A) (A) (A) (A) (A) (A)
                 (A) (A) (A) (A) (A) (A) (A) (A) (A) (A) (A) (A)
                 (A) (A) (A) (A) (A) (A) (A) (A) (A) (A) (A) (A)
                 (A) (A) (A) (A) (A) (A) (A) (A) (A) (A) (A) (A)
                 (A) (A) (A) (A) (A) (A) (A) (A) (A) (A) (A) (A)
                 (A) (A) (A) (A) (A) (A) (A) (A) (A) (A) (A) (A)
                 (A) (A) (A) (A) (A) (A) (A) (A) (A) (A) (A) (A)
                 (A) (A) (A) (A) (A) (A) (A) (A) (A) (A) (A) (A)
                 (A) (A) (A) (A) (A) (A) (A) (A) (A) (A) (A) (A)
                 (A) (A) (A) (A) (A) (A) (A) (A) (A) (A) (A)
 The electronic state is 1-A.
 Alpha  occ. eigenvalues -- -105.37963-105.36044 -20.48033 -20.47924 -15.69307
 Alpha  occ. eigenvalues --  -15.40598 -15.39059 -11.32954 -11.18686 -11.18011
 Alpha  occ. eigenvalues --  -10.42726 -10.40808  -7.59566  -7.59363  -7.59351
 Alpha  occ. eigenvalues --   -7.57640  -7.57447  -7.57443  -1.55898  -1.39839
 Alpha  occ. eigenvalues --   -1.12055  -1.09438  -1.03546  -0.86420  -0.84515
 Alpha  occ. eigenvalues --   -0.81595  -0.79082  -0.70630  -0.64214  -0.63201
 Alpha  occ. eigenvalues --   -0.61528  -0.54694  -0.54437  -0.49496  -0.48249
 Alpha  occ. eigenvalues --   -0.42876  -0.40602  -0.38372  -0.36840  -0.35034
 Alpha  occ. eigenvalues --   -0.33756  -0.31641  -0.29911  -0.29361  -0.27839
 Alpha  occ. eigenvalues --   -0.27255  -0.25965
 Alpha virt. eigenvalues --    0.11627   0.12201   0.14172   0.14549   0.16300
 Alpha virt. eigenvalues --    0.18919   0.19500   0.20209   0.21675   0.22504
 Alpha virt. eigenvalues --    0.22756   0.23623   0.25098   0.25484   0.26075
 Alpha virt. eigenvalues --    0.26468   0.26901   0.27997   0.28596   0.29096
 Alpha virt. eigenvalues --    0.29781   0.30828   0.31542   0.31883   0.32729
 Alpha virt. eigenvalues --    0.33965   0.35542   0.35881   0.36650   0.37574
 Alpha virt. eigenvalues --    0.38589   0.39390   0.40307   0.40974   0.41649
 Alpha virt. eigenvalues --    0.42486   0.42975   0.43813   0.44331   0.45040
 Alpha virt. eigenvalues --    0.46195   0.47071   0.47508   0.49078   0.49606
 Alpha virt. eigenvalues --    0.50540   0.51163   0.51699   0.52404   0.53026
 Alpha virt. eigenvalues --    0.53771   0.54590   0.56665   0.57737   0.58659
 Alpha virt. eigenvalues --    0.59543   0.60131   0.61432   0.61958   0.62664
 Alpha virt. eigenvalues --    0.64276   0.65704   0.67152   0.67334   0.68328
 Alpha virt. eigenvalues --    0.68663   0.69819   0.70548   0.71795   0.73337
 Alpha virt. eigenvalues --    0.73875   0.74596   0.75153   0.76283   0.76455
 Alpha virt. eigenvalues --    0.78299   0.79786   0.80232   0.80582   0.82774
 Alpha virt. eigenvalues --    0.83816   0.84605   0.85965   0.88007   0.88384
 Alpha virt. eigenvalues --    0.89271   0.89818   0.92074   0.93926   0.94884
 Alpha virt. eigenvalues --    0.96784   0.96898   0.98815   1.00538   1.01642
 Alpha virt. eigenvalues --    1.03260   1.05841   1.06841   1.08288   1.09051
 Alpha virt. eigenvalues --    1.09806   1.11240   1.12821   1.13483   1.14326
 Alpha virt. eigenvalues --    1.16280   1.17764   1.19117   1.22693   1.23257
 Alpha virt. eigenvalues --    1.24019   1.25836   1.26697   1.28556   1.29255
 Alpha virt. eigenvalues --    1.32724   1.34769   1.36431   1.36907   1.38027
 Alpha virt. eigenvalues --    1.39456   1.40947   1.41393   1.42136   1.42243
 Alpha virt. eigenvalues --    1.43287   1.45397   1.47729   1.49533   1.50773
 Alpha virt. eigenvalues --    1.52753   1.53908   1.55031   1.56100   1.56291
 Alpha virt. eigenvalues --    1.57686   1.58939   1.60469   1.61354   1.61582
 Alpha virt. eigenvalues --    1.62997   1.65019   1.66506   1.66796   1.69635
 Alpha virt. eigenvalues --    1.70702   1.72395   1.73881   1.76988   1.79110
 Alpha virt. eigenvalues --    1.79755   1.81790   1.83126   1.85797   1.86568
 Alpha virt. eigenvalues --    1.88001   1.90999   1.91513   1.94408   1.95429
 Alpha virt. eigenvalues --    1.97685   1.99340   2.03294   2.04992   2.05402
 Alpha virt. eigenvalues --    2.06569   2.08950   2.09392   2.11397   2.18070
 Alpha virt. eigenvalues --    2.20357   2.20645   2.21999   2.23140   2.26382
 Alpha virt. eigenvalues --    2.26603   2.28689   2.30596   2.32241   2.33003
 Alpha virt. eigenvalues --    2.33334   2.34136   2.35128   2.38214   2.39866
 Alpha virt. eigenvalues --    2.41256   2.46650   2.48185   2.49190   2.53229
 Alpha virt. eigenvalues --    2.54961   2.57798   2.62200   2.67645   2.69021
 Alpha virt. eigenvalues --    2.70737   2.72790   2.77501   2.79296   2.81969
 Alpha virt. eigenvalues --    2.84644   2.89148   2.95935   3.01335   3.04903
 Alpha virt. eigenvalues --    3.11321   3.12047   3.18413   3.29563   3.31257
 Alpha virt. eigenvalues --    3.32400   3.47451   3.56508   3.67040   3.81055
 Alpha virt. eigenvalues --    3.89983   3.92326   3.94904   3.98304   4.01383
 Alpha virt. eigenvalues --    4.02466   4.11273   4.14454   4.17163   4.30653
 Alpha virt. eigenvalues --    4.34013   4.69700
          Condensed to atoms (all electrons):
 Mulliken charges:
               1
     1  C   -0.892547
     2  H    0.149109
     3  Cl  -0.466896
     4  Cl  -0.531942
     5  C   -0.030408
     6  H    0.245814
     7  C   -1.565313
     8  N    1.091491
     9  N    3.279479
    10  O   -1.517924
    11  O   -1.481361
    12  N    0.393259
    13  H    0.123483
    14  H    0.203757
 Sum of Mulliken charges =  -1.00000
 Mulliken charges with hydrogens summed into heavy atoms:
               1
     1  C   -0.892547
     3  Cl  -0.466896
     4  Cl  -0.531942
     5  C    0.364515
     7  C   -1.565313
     8  N    1.091491
     9  N    3.279479
    10  O   -1.517924
    11  O   -1.481361
    12  N    0.720499
 Electronic spatial extent (au):  <R**2>=           1731.3278
 Charge=             -1.0000 electrons
 Dipole moment (field-independent basis, Debye):
    X=             -2.1336    Y=             -1.2827    Z=             -5.1526  Tot=              5.7225

 Test job not archived.
 1\1\GINC-SE362\SP\RHF\Aug-CC-pVDZ\C3H4Cl2N3O2(1-)\OHZDE\09-Apr-2025\0\
 \#t hf aug-cc-pvdz iop(5/13=1,5/36=2,99/5=2) pseudo=read geom=check gu
 ess=(read,tcheck) scf=(maxcycle=1)\\title\\-1,1\C,0,0.6425833,-0.00388
 902,-0.01158691\H,0,1.52305571,1.92396849,0.26855282\Cl,0,-1.66069119,
 -0.22649712,0.03488656\Cl,0,3.01475622,-0.05274713,-0.0090582\C,0,0.54
 240564,1.51180035,0.04808651\H,0,-0.12870086,1.74973683,0.87667092\C,0
 ,0.7071436,-0.75119745,-1.23149715\N,0,0.71908988,-1.35262159,-2.24362
 143\N,0,0.71778656,-0.77100544,1.26720979\O,0,0.7320995,-0.09807069,2.
 29074318\O,0,0.74467849,-1.98975399,1.19741339\N,0,0.10994498,2.004722
 57,-1.24995862\H,0,0.29348255,2.99708802,-1.30768862\H,0,-0.88453439,1
 .84469618,-1.34825224\\Version=ES64L-G16RevC.01\State=1-A\HF=-1348.518
 5252\RMSD=3.734e-02\Dipole=-0.669107,2.0231521,0.7266015\Quadrupole=-8
 .1023718,10.9685664,-2.8661946,-1.4650255,1.0989715,-2.6207163\PG=C01 
 [X(C3H4Cl2N3O2)]\\@


 You don't have to suffer to be a poet.
 Adolescence is enough suffering for anyone.
                             -- John Ciardi
 Job cpu time:       0 days  0 hours  1 minutes 26.6 seconds.
 Elapsed time:       0 days  0 hours  0 minutes  6.4 seconds.
 File lengths (MBytes):  RWF=     15 Int=      0 D2E=      0 Chk=     11 Scr=      1
 Normal termination of Gaussian 16 at Wed Apr  9 02:48:33 2025.
