 Entering Gaussian System, Link 0=g16
 Input=E2SN2_215_mol1.gjf
 Output=E2SN2_215_mol1.log
 Initial command:
 /arc/software/Gaussian/g16.c01/l1.exe "/tmp/slurm/4858983/Gau-2964906.inp" -scrdir="/tmp/slurm/4858983/"
 Entering Link 1 = /arc/software/Gaussian/g16.c01/l1.exe PID=   2964907.
  
 Copyright (c) 1988-2019, Gaussian, Inc.  All Rights Reserved.
  
 This is part of the Gaussian(R) 16 program.  It is based on
 the Gaussian(R) 09 system (copyright 2009, Gaussian, Inc.),
 the Gaussian(R) 03 system (copyright 2003, Gaussian, Inc.),
 the Gaussian(R) 98 system (copyright 1998, Gaussian, Inc.),
 the Gaussian(R) 94 system (copyright 1995, Gaussian, Inc.),
 the Gaussian 92(TM) system (copyright 1992, Gaussian, Inc.),
 the Gaussian 90(TM) system (copyright 1990, Gaussian, Inc.),
 the Gaussian 88(TM) system (copyright 1988, Gaussian, Inc.),
 the Gaussian 86(TM) system (copyright 1986, Carnegie Mellon
 University), and the Gaussian 82(TM) system (copyright 1983,
 Carnegie Mellon University). Gaussian is a federally registered
 trademark of Gaussian, Inc.
  
 This software contains proprietary and confidential information,
 including trade secrets, belonging to Gaussian, Inc.
  
 This software is provided under written license and may be
 used, copied, transmitted, or stored only in accord with that
 written license.
  
 The following legend is applicable only to US Government
 contracts under FAR:
  
                    RESTRICTED RIGHTS LEGEND
  
 Use, reproduction and disclosure by the US Government is
 subject to restrictions as set forth in subparagraphs (a)
 and (c) of the Commercial Computer Software - Restricted
 Rights clause in FAR 52.227-19.
  
 Gaussian, Inc.
 340 Quinnipiac St., Bldg. 40, Wallingford CT 06492
  
  
 ---------------------------------------------------------------
 Warning -- This program may not be used in any manner that
 competes with the business of Gaussian, Inc. or will provide
 assistance to any competitor of Gaussian, Inc.  The licensee
 of this program is prohibited from giving any competitor of
 Gaussian, Inc. access to this program.  By using this program,
 the user acknowledges that Gaussian, Inc. is engaged in the
 business of creating and licensing software in the field of
 computational chemistry and represents and warrants to the
 licensee that it is not a competitor of Gaussian, Inc. and that
 it will not use this program in any manner prohibited above.
 ---------------------------------------------------------------
  

 Cite this work as:
 Gaussian 16, Revision C.01,
 M. J. Frisch, G. W. Trucks, H. B. Schlegel, G. E. Scuseria, 
 M. A. Robb, J. R. Cheeseman, G. Scalmani, V. Barone, 
 G. A. Petersson, H. Nakatsuji, X. Li, M. Caricato, A. V. Marenich, 
 J. Bloino, B. G. Janesko, R. Gomperts, B. Mennucci, H. P. Hratchian, 
 J. V. Ortiz, A. F. Izmaylov, J. L. Sonnenberg, D. Williams-Young, 
 F. Ding, F. Lipparini, F. Egidi, J. Goings, B. Peng, A. Petrone, 
 T. Henderson, D. Ranasinghe, V. G. Zakrzewski, J. Gao, N. Rega, 
 G. Zheng, W. Liang, M. Hada, M. Ehara, K. Toyota, R. Fukuda, 
 J. Hasegawa, M. Ishida, T. Nakajima, Y. Honda, O. Kitao, H. Nakai, 
 T. Vreven, K. Throssell, J. A. Montgomery, Jr., J. E. Peralta, 
 F. Ogliaro, M. J. Bearpark, J. J. Heyd, E. N. Brothers, K. N. Kudin, 
 V. N. Staroverov, T. A. Keith, R. Kobayashi, J. Normand, 
 K. Raghavachari, A. P. Rendell, J. C. Burant, S. S. Iyengar, 
 J. Tomasi, M. Cossi, J. M. Millam, M. Klene, C. Adamo, R. Cammi, 
 J. W. Ochterski, R. L. Martin, K. Morokuma, O. Farkas, 
 J. B. Foresman, and D. J. Fox, Gaussian, Inc., Wallingford CT, 2019.
 
 ******************************************
 Gaussian 16:  ES64L-G16RevC.01  3-Jul-2019
                 9-Apr-2025 
 ******************************************
 %nprocs=16
 Will use up to   16 processors via shared memory.
 %mem=30GB
 %chk=E2SN2_215_mol1.chk
 ----------------------------------------------------------------------
 #t hf aug-cc-pvdz symm=none int=(grid=ultrafine) guess=(read,tcheck) s
 table=(opt,rrhf)
 ----------------------------------------------------------------------
 -----
 title
 -----
 Symbolic Z-matrix:
 Charge = -1 Multiplicity = 1
 C                     0.37109  -0.06574  -0.05925 
 H                     1.66226   1.53862  -0.42917 
 Cl                   -1.69405  -0.16177  -0.57694 
 F                     2.12734  -0.172     0.57619 
 C                     0.609     1.43585  -0.16096 
 H                     0.17711  -0.58633   0.85657 
 N                     0.85636  -0.87042  -1.19409 
 O                     1.24966  -0.25174  -2.17971 
 O                     0.82796  -2.08559  -1.06826 
 C                     0.44371   2.01582   1.17376 
 N                     0.32449   2.50903   2.23198 
 C                    -0.17706   2.19859  -1.14002 
 N                    -0.67914   2.93012  -1.90917 
 
                    Distance matrix (angstroms):
                    1          2          3          4          5
     1  C    0.000000
     2  H    2.092354   0.000000
     3  Cl   2.131205   3.765372   0.000000
     4  F    1.870694   2.037959   3.991598   0.000000
     5  C    1.523713   1.091727   2.833629   2.331076   0.000000
     6  H    1.071156   2.893825   2.395084   2.013378   2.304575
     7  N    1.473378   2.652934   2.718028   2.288464   2.539174
     8  O    2.302784   2.537723   3.352971   2.893386   2.708092
     9  O    2.303607   3.773514   3.209828   2.838038   3.643025
    10  C    2.420429   2.069287   3.518077   2.824576   1.464632
    11  N    3.446934   3.132578   4.370089   3.630400   2.637957
    12  C    2.568216   2.079423   2.861751   3.724968   1.469099
    13  N    3.674281   3.099811   3.516342   4.865849   2.635983
                    6          7          8          9         10
     6  H    0.000000
     7  N    2.178829   0.000000
     8  O    3.237487   1.228373   0.000000
     9  O    2.525149   1.221994   2.185437   0.000000
    10  C    2.634927   3.755973   4.127604   4.689971   0.000000
    11  N    3.390380   4.841641   5.285906   5.679399   1.173588
    12  C    3.444938   3.238783   3.020034   4.401066   2.402574
    13  N    4.554982   4.160911   3.730638   5.304312   3.406054
                   11         12         13
    11  N    0.000000
    12  C    3.423209   0.000000
    13  N    4.281794   1.174222   0.000000
 Symmetry turned off by external request.
 Rotational constants (GHZ):           1.1349878           0.8416209           0.7023488
   275 basis functions,   533 primitive gaussians,   297 cartesian basis functions
    45 alpha electrons       45 beta electrons
       nuclear repulsion energy       687.4702274579 Hartrees.
 NAtoms=   13 NActive=   13 NUniq=   13 SFac= 1.00D+00 NAtFMM=   60 NAOKFM=F Big=F
 ExpMin= 2.97D-02 ExpMax= 1.28D+05 ExpMxC= 1.24D+03 IAcc=3 IRadAn=         5 AccDes= 0.00D+00
 Harris functional with IExCor=  205 and IRadAn=       5 diagonalized for initial guess.
 HarFok:  IExCor=  205 AccDes= 0.00D+00 IRadAn=         5 IDoV= 1 UseB2=F ITyADJ=14
 ICtDFT=  3500011 ScaDFX=  1.000000  1.000000  1.000000  1.000000
 FoFCou: FMM=F IPFlag=           0 FMFlag=      100000 FMFlg1=           0
         NFxFlg=           0 DoJE=T BraDBF=F KetDBF=T FulRan=T
         wScrn=  0.000000 ICntrl=       500 IOpCl=  0 I1Cent=   200000004 NGrid=           0
         NMat0=    1 NMatS0=      1 NMatT0=    0 NMatD0=    1 NMtDS0=    0 NMtDT0=    0
 Symmetry not used in FoFCou.
 SCF Done:  E(RHF) =  -1024.58133226     A.U. after   17 cycles
            NFock= 17  Conv=0.79D-08     -V/T= 2.0011

 **********************************************************************

            Population analysis using the SCF Density.

 **********************************************************************

 Alpha  occ. eigenvalues -- -104.66411 -26.04520 -20.50651 -20.50599 -15.75866
 Alpha  occ. eigenvalues --  -15.50089 -15.49201 -11.31085 -11.24535 -11.20856
 Alpha  occ. eigenvalues --  -11.20164 -10.39032  -7.85722  -7.85528  -7.85521
 Alpha  occ. eigenvalues --   -1.50283  -1.31110  -1.29796  -1.13720  -1.11584
 Alpha  occ. eigenvalues --   -1.05054  -0.95126  -0.89813  -0.74826  -0.69358
 Alpha  occ. eigenvalues --   -0.64172  -0.63792  -0.61456  -0.59784  -0.55007
 Alpha  occ. eigenvalues --   -0.47474  -0.46581  -0.42064  -0.41570  -0.39370
 Alpha  occ. eigenvalues --   -0.39036  -0.38711  -0.37816  -0.37196  -0.35860
 Alpha  occ. eigenvalues --   -0.35321  -0.34402  -0.30449  -0.29870  -0.28874
 Alpha virt. eigenvalues --    0.13908   0.14852   0.16973   0.17216   0.18254
 Alpha virt. eigenvalues --    0.20023   0.21305   0.21972   0.22465   0.23441
 Alpha virt. eigenvalues --    0.24173   0.24997   0.25179   0.25669   0.25891
 Alpha virt. eigenvalues --    0.26369   0.27031   0.27853   0.27976   0.28241
 Alpha virt. eigenvalues --    0.29542   0.30311   0.31364   0.31675   0.32768
 Alpha virt. eigenvalues --    0.33423   0.34847   0.35649   0.35810   0.36280
 Alpha virt. eigenvalues --    0.37491   0.39231   0.39579   0.39633   0.40762
 Alpha virt. eigenvalues --    0.41566   0.42430   0.43188   0.44145   0.45587
 Alpha virt. eigenvalues --    0.46112   0.46843   0.48082   0.49053   0.49160
 Alpha virt. eigenvalues --    0.50423   0.51060   0.51803   0.52433   0.53248
 Alpha virt. eigenvalues --    0.55255   0.55704   0.57114   0.57404   0.58509
 Alpha virt. eigenvalues --    0.59225   0.60182   0.61096   0.62267   0.62918
 Alpha virt. eigenvalues --    0.65127   0.66132   0.66700   0.67614   0.69650
 Alpha virt. eigenvalues --    0.69751   0.70451   0.72345   0.73327   0.75256
 Alpha virt. eigenvalues --    0.75938   0.76740   0.77794   0.80200   0.80849
 Alpha virt. eigenvalues --    0.81320   0.83527   0.84746   0.86457   0.87271
 Alpha virt. eigenvalues --    0.88407   0.89336   0.90949   0.91257   0.92063
 Alpha virt. eigenvalues --    0.93975   0.95259   0.96867   0.98484   0.99507
 Alpha virt. eigenvalues --    1.00672   1.02931   1.03321   1.05236   1.07657
 Alpha virt. eigenvalues --    1.08951   1.10018   1.11083   1.11742   1.11841
 Alpha virt. eigenvalues --    1.12866   1.14071   1.16094   1.17613   1.18538
 Alpha virt. eigenvalues --    1.18815   1.21030   1.21625   1.22826   1.25095
 Alpha virt. eigenvalues --    1.28817   1.29574   1.30840   1.33841   1.34545
 Alpha virt. eigenvalues --    1.35765   1.36395   1.37229   1.39466   1.41071
 Alpha virt. eigenvalues --    1.42965   1.43203   1.44025   1.45449   1.47563
 Alpha virt. eigenvalues --    1.51062   1.51475   1.52228   1.54694   1.57560
 Alpha virt. eigenvalues --    1.58421   1.59145   1.60923   1.63516   1.64773
 Alpha virt. eigenvalues --    1.65361   1.67394   1.68803   1.71390   1.71894
 Alpha virt. eigenvalues --    1.73180   1.75364   1.76731   1.78074   1.80131
 Alpha virt. eigenvalues --    1.81284   1.82030   1.83423   1.86924   1.88030
 Alpha virt. eigenvalues --    1.88587   1.90355   1.91450   1.92075   1.93299
 Alpha virt. eigenvalues --    1.95559   1.98434   1.99716   2.01232   2.01823
 Alpha virt. eigenvalues --    2.02381   2.07748   2.08549   2.12162   2.13361
 Alpha virt. eigenvalues --    2.16004   2.18615   2.19331   2.21486   2.24722
 Alpha virt. eigenvalues --    2.28703   2.31409   2.32086   2.35045   2.41260
 Alpha virt. eigenvalues --    2.43153   2.44585   2.47858   2.49520   2.56178
 Alpha virt. eigenvalues --    2.58977   2.60385   2.61949   2.63095   2.64133
 Alpha virt. eigenvalues --    2.68959   2.69422   2.72739   2.74034   2.74757
 Alpha virt. eigenvalues --    2.76968   2.77439   2.79811   2.85259   2.86449
 Alpha virt. eigenvalues --    2.94980   2.97310   3.01113   3.05735   3.07764
 Alpha virt. eigenvalues --    3.14049   3.15368   3.18877   3.28287   3.33109
 Alpha virt. eigenvalues --    3.33695   3.39624   3.53518   3.55081   3.56725
 Alpha virt. eigenvalues --    3.70006   3.72794   3.78370   3.81731   3.84892
 Alpha virt. eigenvalues --    3.88559   3.89228   3.93473   3.99888   4.02339
 Alpha virt. eigenvalues --    4.12558   4.24578   4.31631   4.34537   4.97842
 Alpha virt. eigenvalues --    5.29176   5.32318   5.39647   5.41321   5.47008
          Condensed to atoms (all electrons):
 Mulliken charges:
               1
     1  C    0.962727
     2  H    0.312271
     3  Cl  -0.504481
     4  F   -0.850889
     5  C    1.269595
     6  H   -0.269144
     7  N    1.133530
     8  O   -0.897915
     9  O   -0.926886
    10  C   -0.217637
    11  N   -0.384808
    12  C   -0.221385
    13  N   -0.404978
 Sum of Mulliken charges =  -1.00000
 Mulliken charges with hydrogens summed into heavy atoms:
               1
     1  C    0.693583
     3  Cl  -0.504481
     4  F   -0.850889
     5  C    1.581866
     7  N    1.133530
     8  O   -0.897915
     9  O   -0.926886
    10  C   -0.217637
    11  N   -0.384808
    12  C   -0.221385
    13  N   -0.404978
 Electronic spatial extent (au):  <R**2>=           1924.4219
 Charge=             -1.0000 electrons
 Dipole moment (field-independent basis, Debye):
    X=             -1.0428    Y=             -2.1006    Z=              1.7564  Tot=              2.9300
 NROrb=    275 NOA=    45 NOB=    45 NVA=   230 NVB=   230

 **** Warning!!: The largest alpha MO coefficient is  0.68717437D+02

    12 initial guesses have been made.
 Iteration     1 Dimension    12 NMult     0 NNew     12
 New state      1 was old state     12
 Iteration     2 Dimension    24 NMult    12 NNew     12
 Iteration     3 Dimension    27 NMult    24 NNew      3
 Iteration     4 Dimension    30 NMult    27 NNew      3
 Iteration     5 Dimension    33 NMult    30 NNew      3
 Iteration     6 Dimension    36 NMult    33 NNew      3
 Iteration     7 Dimension    39 NMult    36 NNew      3
 Iteration     8 Dimension    42 NMult    39 NNew      3
 ***********************************************************************
 Stability analysis using <AA,BB:AA,BB> singles matrix:
 ***********************************************************************
 Ground to excited state transition densities written to RWF  633

 Eigenvectors of the stability matrix:
 
 Excited state symmetry could not be determined.
 Eigenvector   1:      Singlet-?Sym  Eigenvalue= 0.1900252  <S**2>=0.000
      34 -> 48        -0.12494
      35 -> 48        -0.18617
      36 -> 48         0.42277
      36 -> 51        -0.14882
      37 -> 48         0.21718
      39 -> 48         0.17777
 The wavefunction is stable under the perturbations considered.
 The wavefunction is already stable.

 **********************************************************************

            Population analysis using the SCF Density.

 **********************************************************************

 Alpha  occ. eigenvalues -- -104.66411 -26.04520 -20.50651 -20.50599 -15.75866
 Alpha  occ. eigenvalues --  -15.50089 -15.49201 -11.31085 -11.24535 -11.20856
 Alpha  occ. eigenvalues --  -11.20164 -10.39032  -7.85722  -7.85528  -7.85521
 Alpha  occ. eigenvalues --   -1.50283  -1.31110  -1.29796  -1.13720  -1.11584
 Alpha  occ. eigenvalues --   -1.05054  -0.95126  -0.89813  -0.74826  -0.69358
 Alpha  occ. eigenvalues --   -0.64172  -0.63792  -0.61456  -0.59784  -0.55007
 Alpha  occ. eigenvalues --   -0.47474  -0.46581  -0.42064  -0.41570  -0.39370
 Alpha  occ. eigenvalues --   -0.39036  -0.38711  -0.37816  -0.37196  -0.35860
 Alpha  occ. eigenvalues --   -0.35321  -0.34402  -0.30449  -0.29870  -0.28874
 Alpha virt. eigenvalues --    0.13908   0.14852   0.16973   0.17216   0.18254
 Alpha virt. eigenvalues --    0.20023   0.21305   0.21972   0.22465   0.23441
 Alpha virt. eigenvalues --    0.24173   0.24997   0.25179   0.25669   0.25891
 Alpha virt. eigenvalues --    0.26369   0.27031   0.27853   0.27976   0.28241
 Alpha virt. eigenvalues --    0.29542   0.30311   0.31364   0.31675   0.32768
 Alpha virt. eigenvalues --    0.33423   0.34847   0.35649   0.35810   0.36280
 Alpha virt. eigenvalues --    0.37491   0.39231   0.39579   0.39633   0.40762
 Alpha virt. eigenvalues --    0.41566   0.42430   0.43188   0.44145   0.45587
 Alpha virt. eigenvalues --    0.46112   0.46843   0.48082   0.49053   0.49160
 Alpha virt. eigenvalues --    0.50423   0.51060   0.51803   0.52433   0.53248
 Alpha virt. eigenvalues --    0.55255   0.55704   0.57114   0.57404   0.58509
 Alpha virt. eigenvalues --    0.59225   0.60182   0.61096   0.62267   0.62918
 Alpha virt. eigenvalues --    0.65127   0.66132   0.66700   0.67614   0.69650
 Alpha virt. eigenvalues --    0.69751   0.70451   0.72345   0.73327   0.75256
 Alpha virt. eigenvalues --    0.75938   0.76740   0.77794   0.80200   0.80849
 Alpha virt. eigenvalues --    0.81320   0.83527   0.84746   0.86457   0.87271
 Alpha virt. eigenvalues --    0.88407   0.89336   0.90949   0.91257   0.92063
 Alpha virt. eigenvalues --    0.93975   0.95259   0.96867   0.98484   0.99507
 Alpha virt. eigenvalues --    1.00672   1.02931   1.03321   1.05236   1.07657
 Alpha virt. eigenvalues --    1.08951   1.10018   1.11083   1.11742   1.11841
 Alpha virt. eigenvalues --    1.12866   1.14071   1.16094   1.17613   1.18538
 Alpha virt. eigenvalues --    1.18815   1.21030   1.21625   1.22826   1.25095
 Alpha virt. eigenvalues --    1.28817   1.29574   1.30840   1.33841   1.34545
 Alpha virt. eigenvalues --    1.35765   1.36395   1.37229   1.39466   1.41071
 Alpha virt. eigenvalues --    1.42965   1.43203   1.44025   1.45449   1.47563
 Alpha virt. eigenvalues --    1.51062   1.51475   1.52228   1.54694   1.57560
 Alpha virt. eigenvalues --    1.58421   1.59145   1.60923   1.63516   1.64773
 Alpha virt. eigenvalues --    1.65361   1.67394   1.68803   1.71390   1.71894
 Alpha virt. eigenvalues --    1.73180   1.75364   1.76731   1.78074   1.80131
 Alpha virt. eigenvalues --    1.81284   1.82030   1.83423   1.86924   1.88030
 Alpha virt. eigenvalues --    1.88587   1.90355   1.91450   1.92075   1.93299
 Alpha virt. eigenvalues --    1.95559   1.98434   1.99716   2.01232   2.01823
 Alpha virt. eigenvalues --    2.02381   2.07748   2.08549   2.12162   2.13361
 Alpha virt. eigenvalues --    2.16004   2.18615   2.19331   2.21486   2.24722
 Alpha virt. eigenvalues --    2.28703   2.31409   2.32086   2.35045   2.41260
 Alpha virt. eigenvalues --    2.43153   2.44585   2.47858   2.49520   2.56178
 Alpha virt. eigenvalues --    2.58977   2.60385   2.61949   2.63095   2.64133
 Alpha virt. eigenvalues --    2.68959   2.69422   2.72739   2.74034   2.74757
 Alpha virt. eigenvalues --    2.76968   2.77439   2.79811   2.85259   2.86449
 Alpha virt. eigenvalues --    2.94980   2.97310   3.01113   3.05735   3.07764
 Alpha virt. eigenvalues --    3.14049   3.15368   3.18877   3.28287   3.33109
 Alpha virt. eigenvalues --    3.33695   3.39624   3.53518   3.55081   3.56725
 Alpha virt. eigenvalues --    3.70006   3.72794   3.78370   3.81731   3.84892
 Alpha virt. eigenvalues --    3.88559   3.89228   3.93473   3.99888   4.02339
 Alpha virt. eigenvalues --    4.12558   4.24578   4.31631   4.34537   4.97842
 Alpha virt. eigenvalues --    5.29176   5.32318   5.39647   5.41321   5.47008
          Condensed to atoms (all electrons):
 Mulliken charges:
               1
     1  C    0.962727
     2  H    0.312271
     3  Cl  -0.504481
     4  F   -0.850889
     5  C    1.269595
     6  H   -0.269144
     7  N    1.133530
     8  O   -0.897915
     9  O   -0.926886
    10  C   -0.217637
    11  N   -0.384808
    12  C   -0.221385
    13  N   -0.404978
 Sum of Mulliken charges =  -1.00000
 Mulliken charges with hydrogens summed into heavy atoms:
               1
     1  C    0.693583
     3  Cl  -0.504481
     4  F   -0.850889
     5  C    1.581866
     7  N    1.133530
     8  O   -0.897915
     9  O   -0.926886
    10  C   -0.217637
    11  N   -0.384808
    12  C   -0.221385
    13  N   -0.404978
 Electronic spatial extent (au):  <R**2>=           1924.4219
 Charge=             -1.0000 electrons
 Dipole moment (field-independent basis, Debye):
    X=             -1.0428    Y=             -2.1006    Z=              1.7564  Tot=              2.9300
 Unable to Open any file for archive entry.
 1\1\GINC-SE208\Stability\RHF\Aug-CC-pVDZ\C4H2Cl1F1N3O2\OHZDE\09-Apr-20
 25\0\\#t hf aug-cc-pvdz symm=none int=(grid=ultrafine) guess=(read,tch
 eck) stable=(opt,rrhf)\\title\\-1,1\C,0,0.37109203,-0.06573999,-0.0592
 529\H,0,1.66226434,1.53862332,-0.42916717\Cl,0,-1.69405093,-0.16176952
 ,-0.57693596\F,0,2.12734183,-0.17199903,0.57619403\C,0,0.60899915,1.43
 584537,-0.16095507\H,0,0.17710784,-0.58632574,0.85657219\N,0,0.8563640
 5,-0.87041914,-1.19408577\O,0,1.24966098,-0.25174014,-2.17970894\O,0,0
 .82795629,-2.08558606,-1.0682639\C,0,0.44371467,2.01581882,1.17375814\
 N,0,0.32448992,2.50902573,2.23198333\C,0,-0.17706336,2.19859064,-1.140
 02457\N,0,-0.6791368,2.93011575,-1.90917341\\Version=ES64L-G16RevC.01\
 HF=-1024.5813323\RMSD=7.883e-09\Dipole=0.0101534,0.0959922,-0.1030262\
 Quadrupole=1.517807,-1.0571594,-0.4606476,5.6389407,-4.1938232,-2.4898
 906\PG=Unknown\\@
 The archive entry for this job was punched.


 THE MORE POWERFUL THE METHOD, THE MORE CATASTROPHIC THE ERRORS.
     -- M.D. KAMEN
 Job cpu time:       0 days  0 hours 17 minutes  6.6 seconds.
 Elapsed time:       0 days  0 hours  1 minutes 12.0 seconds.
 File lengths (MBytes):  RWF=    431 Int=      0 D2E=      0 Chk=     11 Scr=      1
 Normal termination of Gaussian 16 at Wed Apr  9 02:43:24 2025.
 Initial command:
 /arc/software/Gaussian/g16.c01/l1.exe "/tmp/slurm/4858983/Gau-2964906.inp" -scrdir="/tmp/slurm/4858983/"
 Entering Link 1 = /arc/software/Gaussian/g16.c01/l1.exe PID=   2965448.
  
 Copyright (c) 1988-2019, Gaussian, Inc.  All Rights Reserved.
  
 This is part of the Gaussian(R) 16 program.  It is based on
 the Gaussian(R) 09 system (copyright 2009, Gaussian, Inc.),
 the Gaussian(R) 03 system (copyright 2003, Gaussian, Inc.),
 the Gaussian(R) 98 system (copyright 1998, Gaussian, Inc.),
 the Gaussian(R) 94 system (copyright 1995, Gaussian, Inc.),
 the Gaussian 92(TM) system (copyright 1992, Gaussian, Inc.),
 the Gaussian 90(TM) system (copyright 1990, Gaussian, Inc.),
 the Gaussian 88(TM) system (copyright 1988, Gaussian, Inc.),
 the Gaussian 86(TM) system (copyright 1986, Carnegie Mellon
 University), and the Gaussian 82(TM) system (copyright 1983,
 Carnegie Mellon University). Gaussian is a federally registered
 trademark of Gaussian, Inc.
  
 This software contains proprietary and confidential information,
 including trade secrets, belonging to Gaussian, Inc.
  
 This software is provided under written license and may be
 used, copied, transmitted, or stored only in accord with that
 written license.
  
 The following legend is applicable only to US Government
 contracts under FAR:
  
                    RESTRICTED RIGHTS LEGEND
  
 Use, reproduction and disclosure by the US Government is
 subject to restrictions as set forth in subparagraphs (a)
 and (c) of the Commercial Computer Software - Restricted
 Rights clause in FAR 52.227-19.
  
 Gaussian, Inc.
 340 Quinnipiac St., Bldg. 40, Wallingford CT 06492
  
  
 ---------------------------------------------------------------
 Warning -- This program may not be used in any manner that
 competes with the business of Gaussian, Inc. or will provide
 assistance to any competitor of Gaussian, Inc.  The licensee
 of this program is prohibited from giving any competitor of
 Gaussian, Inc. access to this program.  By using this program,
 the user acknowledges that Gaussian, Inc. is engaged in the
 business of creating and licensing software in the field of
 computational chemistry and represents and warrants to the
 licensee that it is not a competitor of Gaussian, Inc. and that
 it will not use this program in any manner prohibited above.
 ---------------------------------------------------------------
  

 Cite this work as:
 Gaussian 16, Revision C.01,
 M. J. Frisch, G. W. Trucks, H. B. Schlegel, G. E. Scuseria, 
 M. A. Robb, J. R. Cheeseman, G. Scalmani, V. Barone, 
 G. A. Petersson, H. Nakatsuji, X. Li, M. Caricato, A. V. Marenich, 
 J. Bloino, B. G. Janesko, R. Gomperts, B. Mennucci, H. P. Hratchian, 
 J. V. Ortiz, A. F. Izmaylov, J. L. Sonnenberg, D. Williams-Young, 
 F. Ding, F. Lipparini, F. Egidi, J. Goings, B. Peng, A. Petrone, 
 T. Henderson, D. Ranasinghe, V. G. Zakrzewski, J. Gao, N. Rega, 
 G. Zheng, W. Liang, M. Hada, M. Ehara, K. Toyota, R. Fukuda, 
 J. Hasegawa, M. Ishida, T. Nakajima, Y. Honda, O. Kitao, H. Nakai, 
 T. Vreven, K. Throssell, J. A. Montgomery, Jr., J. E. Peralta, 
 F. Ogliaro, M. J. Bearpark, J. J. Heyd, E. N. Brothers, K. N. Kudin, 
 V. N. Staroverov, T. A. Keith, R. Kobayashi, J. Normand, 
 K. Raghavachari, A. P. Rendell, J. C. Burant, S. S. Iyengar, 
 J. Tomasi, M. Cossi, J. M. Millam, M. Klene, C. Adamo, R. Cammi, 
 J. W. Ochterski, R. L. Martin, K. Morokuma, O. Farkas, 
 J. B. Foresman, and D. J. Fox, Gaussian, Inc., Wallingford CT, 2019.
 
 ******************************************
 Gaussian 16:  ES64L-G16RevC.01  3-Jul-2019
                 9-Apr-2025 
 ******************************************
 %nprocs=16
 Will use up to   16 processors via shared memory.
 %mem=30GB
 %chk=E2SN2_215_mol1.chk
 ----------------------------------------------------------------------
 #t hf aug-cc-pvdz iop(5/13=1,5/36=2,99/5=2) pseudo=read geom=check gue
 ss=(read,tcheck) scf=(maxcycle=1)
 ----------------------------------------------------------------------
 -----
 title
 -----
 Structure from the checkpoint file:  "E2SN2_215_mol1.chk"
 Charge = -1 Multiplicity = 1
 Z-Matrix found in chk file.
 C,0,0.37109203,-0.06573999,-0.0592529
 H,0,1.66226434,1.53862332,-0.42916717
 Cl,0,-1.69405093,-0.16176952,-0.57693596
 F,0,2.12734183,-0.17199903,0.57619403
 C,0,0.60899915,1.43584537,-0.16095507
 H,0,0.17710784,-0.58632574,0.85657219
 N,0,0.85636405,-0.87041914,-1.19408577
 O,0,1.24966098,-0.25174014,-2.17970894
 O,0,0.82795629,-2.08558606,-1.0682639
 C,0,0.44371467,2.01581882,1.17375814
 N,0,0.32448992,2.50902573,2.23198333
 C,0,-0.17706336,2.19859064,-1.14002457
 N,0,-0.6791368,2.93011575,-1.90917341
 Recover connectivity data from disk.
                    Distance matrix (angstroms):
                    1          2          3          4          5
     1  C    0.000000
     2  H    2.092354   0.000000
     3  Cl   2.131205   3.765372   0.000000
     4  F    1.870694   2.037959   3.991598   0.000000
     5  C    1.523713   1.091727   2.833629   2.331076   0.000000
     6  H    1.071156   2.893825   2.395084   2.013378   2.304575
     7  N    1.473378   2.652934   2.718028   2.288464   2.539174
     8  O    2.302784   2.537723   3.352971   2.893386   2.708092
     9  O    2.303607   3.773514   3.209828   2.838038   3.643025
    10  C    2.420429   2.069287   3.518077   2.824576   1.464632
    11  N    3.446934   3.132578   4.370089   3.630400   2.637957
    12  C    2.568216   2.079423   2.861751   3.724968   1.469099
    13  N    3.674281   3.099811   3.516342   4.865849   2.635983
                    6          7          8          9         10
     6  H    0.000000
     7  N    2.178829   0.000000
     8  O    3.237487   1.228373   0.000000
     9  O    2.525149   1.221994   2.185437   0.000000
    10  C    2.634927   3.755973   4.127604   4.689971   0.000000
    11  N    3.390380   4.841641   5.285906   5.679399   1.173588
    12  C    3.444938   3.238783   3.020034   4.401066   2.402574
    13  N    4.554982   4.160911   3.730638   5.304312   3.406054
                   11         12         13
    11  N    0.000000
    12  C    3.423209   0.000000
    13  N    4.281794   1.174222   0.000000
 Framework group  C1[X(C4H2ClFN3O2)]
 Deg. of freedom    33
                         Standard orientation:                         
 ---------------------------------------------------------------------
 Center     Atomic      Atomic             Coordinates (Angstroms)
 Number     Number       Type             X           Y           Z
 ---------------------------------------------------------------------
      1          6           0       -0.374310    0.417343   -0.380592
      2          1           0        0.681842    0.949370    1.345512
      3         17           0       -0.306780   -1.473066   -1.362338
      4          9           0       -0.520046    2.173970    0.245922
      5          6           0        0.885989    0.328363    0.471130
      6          1           0       -0.431076    0.918508   -1.325571
      7          7           0       -1.644930    0.182725    0.327450
      8          8           0       -1.564198   -0.223753    1.483805
      9          8           0       -2.676058    0.407516   -0.288595
     10          6           0        1.980683    0.964329   -0.265307
     11          7           0        2.876392    1.472991   -0.827692
     12          6           0        1.307016   -0.994418    0.952004
     13          7           0        1.735779   -1.963616    1.457587
 ---------------------------------------------------------------------
 Rotational constants (GHZ):           1.1349878           0.8416209           0.7023488
 ======================================================================================================
                                       Pseudopotential Parameters
 ======================================================================================================
  Center     Atomic      Valence      Angular      Power
  Number     Number     Electrons     Momentum     of R      Exponent        Coefficient   SO-Coeffient
 ======================================================================================================
    1          6            6
                                      G and up 
                                                     0        0.0000010       -0.00007288    0.00000000
                                                     2        0.1200000        0.10466671    0.00000000
                                                     2        0.1400000       -0.65716157    0.00000000
                                                     2        0.1600000        1.18890794    0.00000000
                                                     2        0.2000000       -1.25772850    0.00000000
                                                     2        0.2600000        1.01188378    0.00000000
                                                     2        0.4000000       -1.09380874    0.00000000
                                                     2        0.5000000        0.96944888    0.00000000
                                                     2        1.0000000       -0.79256938    0.00000000
                                                     2        3.0000000        1.06443276    0.00000000
                                      S - G
                                                     0        0.0000010       -0.00635295    0.00000000
                                                     2        0.1200000        0.16918955    0.00000000
                                                     2        0.1600000       -0.38862576    0.00000000
                                                     2        0.2800000        0.25638263    0.00000000
                                                     2        0.5000000        0.29628419    0.00000000
                                                     2        0.9000000       -0.28791512    0.00000000
                                      P - G
                                                     0        0.0000010       -0.04756931    0.00000000
                                                     2        0.1200000        0.28430375    0.00000000
                                                     2        0.1600000       -0.69640032    0.00000000
                                                     2        0.2600000        1.13005668    0.00000000
                                                     2        0.4000000       -1.31433324    0.00000000
                                                     2        0.7000000        0.91526469    0.00000000
                                      D - G
                                                     0        0.0000010       -0.11496411    0.00000000
                                                     2        0.1200000        0.16620776    0.00000000
                                                     2        0.1800000       -0.30959819    0.00000000
                                                     2        0.3000000        0.16621458    0.00000000
                                                     2        0.6000000        0.27350556    0.00000000
                                      F - G
                                                     0        0.0000010        0.12037550    0.00000000
                                                     2        0.1200000       -0.48737077    0.00000000
                                                     2        0.1400000        0.58315350    0.00000000
                                                     2        0.3000000        0.00005188    0.00000000
                                                     2        0.5000000       -1.16063549    0.00000000
                                                     2        0.8000000        2.09053308    0.00000000
    2          1            1
                                      F and up 
                                                     0        0.0000010       -0.00007675    0.00000000
                                                     2        0.1200000        0.05352699    0.00000000
                                                     2        0.1400000       -0.25123645    0.00000000
                                                     2        0.1600000        0.32188106    0.00000000
                                                     2        0.2200000       -0.25206857    0.00000000
                                                     2        0.3000000        0.19290477    0.00000000
                                                     2        0.5000000       -0.10129770    0.00000000
                                                     2        0.9000000        0.00314995    0.00000000
                                                     2        1.5000000        0.18401192    0.00000000
                                      S - F
                                                     0        0.0000010        0.08065976    0.00000000
                                                     2        0.1200000       -0.09231673    0.00000000
                                                     2        0.1600000       -0.03278082    0.00000000
                                                     2        0.2800000        0.38423402    0.00000000
                                                     2        0.6000000       -1.09357590    0.00000000
                                                     2        1.1000000        1.53099489    0.00000000
                                                     2        3.0000000       -2.63300202    0.00000000
                                      P - F
                                                     0        0.0000010       -0.11638665    0.00000000
                                                     2        0.1200000        0.35468655    0.00000000
                                                     2        0.1600000       -0.59160923    0.00000000
                                                     2        0.3000000        0.49390547    0.00000000
                                                     2        0.6000000       -0.37949835    0.00000000
                                                     2        1.6000000        0.89304688    0.00000000
                                      D - F
                                                     0        0.0000010        0.05443663    0.00000000
                                                     2        0.1200000       -0.29679479    0.00000000
                                                     2        0.1400000        0.36849872    0.00000000
                                                     2        0.2400000        0.02793449    0.00000000
                                                     2        0.4000000       -0.46312857    0.00000000
                                                     2        0.7000000        0.97587598    0.00000000
                                                     2        1.5000000       -2.43431102    0.00000000
    3         17           17
                                      G and up 
                                                     0        0.0000010        0.00010715    0.00000000
                                                     2        0.1200000       -0.00076261    0.00000000
                                                     2        0.1600000        0.04395058    0.00000000
                                                     2        0.2000000       -0.10504698    0.00000000
                                                     2        0.2800000        0.13950130    0.00000000
                                                     2        0.4000000       -0.12623641    0.00000000
                                                     2        0.7000000       -0.42143984    0.00000000
                                      S - G
                                                     0        0.0000010       -0.00139392    0.00000000
                                                     2        0.1200000       -0.01887585    0.00000000
                                                     2        0.4000000        0.46511854    0.00000000
                                      P - G
                                                     0        0.0000010        0.03235088    0.00000000
                                                     2        0.1200000        0.42220750    0.00000000
                                                     2        0.1600000       -1.02263661    0.00000000
                                                     2        0.2600000        0.81322107    0.00000000
                                      D - G
                                                     0        0.0000010       -0.08073759    0.00000000
                                                     2        0.1200000       -0.02872770    0.00000000
                                                     2        0.2000000        0.11554000    0.00000000
                                      F - G
                                                     0        0.0000010        0.04269408    0.00000000
                                                     2        0.1200000       -0.09796467    0.00000000
                                                     2        0.2000000        0.26850099    0.00000000
    4          9            9
                                      G and up 
                                                     0        0.0000010        0.00055569    0.00000000
                                                     2        0.1200000       -0.17741904    0.00000000
                                                     2        0.1400000        1.01928615    0.00000000
                                                     2        0.1600000       -1.52148367    0.00000000
                                                     2        0.2200000        1.83718211    0.00000000
                                                     2        0.3000000       -2.87348318    0.00000000
                                                     2        0.4000000        2.99646231    0.00000000
                                                     2        0.6000000       -2.11894556    0.00000000
                                                     2        1.3000000        1.79216257    0.00000000
                                      S - G
                                                     0        0.0000010       -0.00623030    0.00000000
                                                     2        0.1200000        0.13717684    0.00000000
                                                     2        0.2200000       -0.32899255    0.00000000
                                      P - G
                                                     0        0.0000010       -0.03918431    0.00000000
                                                     2        0.1200000       -0.03806127    0.00000000
                                                     2        0.3000000        0.26895041    0.00000000
                                                     2        0.8000000       -0.57822379    0.00000000
                                      D - G
                                                     0        0.0000010        0.21590327    0.00000000
                                                     2        0.1200000       -0.34443966    0.00000000
                                                     2        0.1600000        0.69000806    0.00000000
                                                     2        0.2600000       -0.73210453    0.00000000
                                      F - G
                                                     0        0.0000010       -0.14642430    0.00000000
                                                     2        0.1200000        0.06245232    0.00000000
                                                     2        0.2800000       -0.60801466    0.00000000
                                                     2        0.5000000        2.37940491    0.00000000
    5          6            6
                                      G and up 
                                                     0        0.0000010       -0.00007288    0.00000000
                                                     2        0.1200000        0.10466671    0.00000000
                                                     2        0.1400000       -0.65716157    0.00000000
                                                     2        0.1600000        1.18890794    0.00000000
                                                     2        0.2000000       -1.25772850    0.00000000
                                                     2        0.2600000        1.01188378    0.00000000
                                                     2        0.4000000       -1.09380874    0.00000000
                                                     2        0.5000000        0.96944888    0.00000000
                                                     2        1.0000000       -0.79256938    0.00000000
                                                     2        3.0000000        1.06443276    0.00000000
                                      S - G
                                                     0        0.0000010       -0.00635295    0.00000000
                                                     2        0.1200000        0.16918955    0.00000000
                                                     2        0.1600000       -0.38862576    0.00000000
                                                     2        0.2800000        0.25638263    0.00000000
                                                     2        0.5000000        0.29628419    0.00000000
                                                     2        0.9000000       -0.28791512    0.00000000
                                      P - G
                                                     0        0.0000010       -0.04756931    0.00000000
                                                     2        0.1200000        0.28430375    0.00000000
                                                     2        0.1600000       -0.69640032    0.00000000
                                                     2        0.2600000        1.13005668    0.00000000
                                                     2        0.4000000       -1.31433324    0.00000000
                                                     2        0.7000000        0.91526469    0.00000000
                                      D - G
                                                     0        0.0000010       -0.11496411    0.00000000
                                                     2        0.1200000        0.16620776    0.00000000
                                                     2        0.1800000       -0.30959819    0.00000000
                                                     2        0.3000000        0.16621458    0.00000000
                                                     2        0.6000000        0.27350556    0.00000000
                                      F - G
                                                     0        0.0000010        0.12037550    0.00000000
                                                     2        0.1200000       -0.48737077    0.00000000
                                                     2        0.1400000        0.58315350    0.00000000
                                                     2        0.3000000        0.00005188    0.00000000
                                                     2        0.5000000       -1.16063549    0.00000000
                                                     2        0.8000000        2.09053308    0.00000000
    6          1            1
                                      F and up 
                                                     0        0.0000010       -0.00007675    0.00000000
                                                     2        0.1200000        0.05352699    0.00000000
                                                     2        0.1400000       -0.25123645    0.00000000
                                                     2        0.1600000        0.32188106    0.00000000
                                                     2        0.2200000       -0.25206857    0.00000000
                                                     2        0.3000000        0.19290477    0.00000000
                                                     2        0.5000000       -0.10129770    0.00000000
                                                     2        0.9000000        0.00314995    0.00000000
                                                     2        1.5000000        0.18401192    0.00000000
                                      S - F
                                                     0        0.0000010        0.08065976    0.00000000
                                                     2        0.1200000       -0.09231673    0.00000000
                                                     2        0.1600000       -0.03278082    0.00000000
                                                     2        0.2800000        0.38423402    0.00000000
                                                     2        0.6000000       -1.09357590    0.00000000
                                                     2        1.1000000        1.53099489    0.00000000
                                                     2        3.0000000       -2.63300202    0.00000000
                                      P - F
                                                     0        0.0000010       -0.11638665    0.00000000
                                                     2        0.1200000        0.35468655    0.00000000
                                                     2        0.1600000       -0.59160923    0.00000000
                                                     2        0.3000000        0.49390547    0.00000000
                                                     2        0.6000000       -0.37949835    0.00000000
                                                     2        1.6000000        0.89304688    0.00000000
                                      D - F
                                                     0        0.0000010        0.05443663    0.00000000
                                                     2        0.1200000       -0.29679479    0.00000000
                                                     2        0.1400000        0.36849872    0.00000000
                                                     2        0.2400000        0.02793449    0.00000000
                                                     2        0.4000000       -0.46312857    0.00000000
                                                     2        0.7000000        0.97587598    0.00000000
                                                     2        1.5000000       -2.43431102    0.00000000
    7          7            7
                                      G and up 
                                                     0        0.0000010       -0.00039818    0.00000000
                                                     2        0.1200000       -0.37616123    0.00000000
                                                     2        0.1400000        2.13837358    0.00000000
                                                     2        0.1600000       -3.36562035    0.00000000
                                                     2        0.2000000        2.53463289    0.00000000
                                                     2        0.3000000       -1.98118833    0.00000000
                                                     2        0.5000000        4.06642919    0.00000000
                                                     2        0.7000000       -6.15327959    0.00000000
                                                     2        1.2000000       10.22492851    0.00000000
                                                     2        2.0000000      -14.94707511    0.00000000
                                      S - G
                                                     0        0.0000010        0.02721443    0.00000000
                                                     2        0.1200000       -0.60186009    0.00000000
                                                     2        0.1600000        1.10088134    0.00000000
                                                     2        0.2600000       -0.59857981    0.00000000
                                                     2        0.6000000        0.21288222    0.00000000
                                                     2        3.0000000        5.09059205    0.00000000
                                      P - G
                                                     0        0.0000010        0.40558062    0.00000000
                                                     2        0.1200000        0.81809854    0.00000000
                                                     2        0.1600000       -2.44952728    0.00000000
                                                     2        0.2800000        4.16638749    0.00000000
                                                     2        0.5000000       -6.02944147    0.00000000
                                                     2        1.1000000        5.78262914    0.00000000
                                      D - G
                                                     0        0.0000010       -0.62770267    0.00000000
                                                     2        0.1600000        0.91438653    0.00000000
                                                     2        0.2600000       -2.00568466    0.00000000
                                                     2        0.5000000        3.30798839    0.00000000
                                                     2        1.1000000       -3.91526108    0.00000000
                                      F - G
                                                     0        0.0000010        0.29726344    0.00000000
                                                     2        0.1200000       -0.41591527    0.00000000
                                                     2        0.1600000        0.51444439    0.00000000
                                                     2        0.4000000       -0.69401726    0.00000000
                                                     2        0.7000000        0.51478123    0.00000000
    8          8            8
                                      G and up 
                                                     0        0.0000010        0.00049668    0.00000000
                                                     2        0.1200000       -0.01803391    0.00000000
                                                     2        0.1400000        0.04014195    0.00000000
                                                     2        0.2000000       -0.02692147    0.00000000
                                                     2        0.2800000       -0.04241843    0.00000000
                                                     2        0.4000000        0.15412145    0.00000000
                                                     2        0.7000000       -0.40587006    0.00000000
                                                     2        1.1000000        1.75666647    0.00000000
                                      S - G
                                                     0        0.0000010       -0.01088195    0.00000000
                                                     2        0.1200000        0.09867335    0.00000000
                                                     2        0.2400000       -0.08484177    0.00000000
                                                     2        0.6000000       -1.39011554    0.00000000
                                                     2        2.5000000        1.36225910    0.00000000
                                      P - G
                                                     0        0.0000010        0.05874028    0.00000000
                                                     2        0.1200000       -0.11700340    0.00000000
                                                     2        0.1600000        0.08847775    0.00000000
                                                     2        0.3000000        0.04709907    0.00000000
                                                     2        1.2000000       -1.80388338    0.00000000
                                      D - G
                                                     0        0.0000010       -0.00541262    0.00000000
                                                     2        0.1200000       -0.26547906    0.00000000
                                                     2        0.1600000        1.04289661    0.00000000
                                                     2        0.2400000       -1.92800913    0.00000000
                                                     2        0.4000000        2.26691633    0.00000000
                                                     2        0.7000000       -1.97391482    0.00000000
                                      F - G
                                                     0        0.0000010       -0.02604870    0.00000000
                                                     2        0.1200000        0.37362552    0.00000000
                                                     2        0.1600000       -1.43526367    0.00000000
                                                     2        0.2200000        1.76778079    0.00000000
                                                     2        0.5000000       -1.90846303    0.00000000
    9          8            8
                                      G and up 
                                                     0        0.0000010        0.00049668    0.00000000
                                                     2        0.1200000       -0.01803391    0.00000000
                                                     2        0.1400000        0.04014195    0.00000000
                                                     2        0.2000000       -0.02692147    0.00000000
                                                     2        0.2800000       -0.04241843    0.00000000
                                                     2        0.4000000        0.15412145    0.00000000
                                                     2        0.7000000       -0.40587006    0.00000000
                                                     2        1.1000000        1.75666647    0.00000000
                                      S - G
                                                     0        0.0000010       -0.01088195    0.00000000
                                                     2        0.1200000        0.09867335    0.00000000
                                                     2        0.2400000       -0.08484177    0.00000000
                                                     2        0.6000000       -1.39011554    0.00000000
                                                     2        2.5000000        1.36225910    0.00000000
                                      P - G
                                                     0        0.0000010        0.05874028    0.00000000
                                                     2        0.1200000       -0.11700340    0.00000000
                                                     2        0.1600000        0.08847775    0.00000000
                                                     2        0.3000000        0.04709907    0.00000000
                                                     2        1.2000000       -1.80388338    0.00000000
                                      D - G
                                                     0        0.0000010       -0.00541262    0.00000000
                                                     2        0.1200000       -0.26547906    0.00000000
                                                     2        0.1600000        1.04289661    0.00000000
                                                     2        0.2400000       -1.92800913    0.00000000
                                                     2        0.4000000        2.26691633    0.00000000
                                                     2        0.7000000       -1.97391482    0.00000000
                                      F - G
                                                     0        0.0000010       -0.02604870    0.00000000
                                                     2        0.1200000        0.37362552    0.00000000
                                                     2        0.1600000       -1.43526367    0.00000000
                                                     2        0.2200000        1.76778079    0.00000000
                                                     2        0.5000000       -1.90846303    0.00000000
   10          6            6
                                      G and up 
                                                     0        0.0000010       -0.00007288    0.00000000
                                                     2        0.1200000        0.10466671    0.00000000
                                                     2        0.1400000       -0.65716157    0.00000000
                                                     2        0.1600000        1.18890794    0.00000000
                                                     2        0.2000000       -1.25772850    0.00000000
                                                     2        0.2600000        1.01188378    0.00000000
                                                     2        0.4000000       -1.09380874    0.00000000
                                                     2        0.5000000        0.96944888    0.00000000
                                                     2        1.0000000       -0.79256938    0.00000000
                                                     2        3.0000000        1.06443276    0.00000000
                                      S - G
                                                     0        0.0000010       -0.00635295    0.00000000
                                                     2        0.1200000        0.16918955    0.00000000
                                                     2        0.1600000       -0.38862576    0.00000000
                                                     2        0.2800000        0.25638263    0.00000000
                                                     2        0.5000000        0.29628419    0.00000000
                                                     2        0.9000000       -0.28791512    0.00000000
                                      P - G
                                                     0        0.0000010       -0.04756931    0.00000000
                                                     2        0.1200000        0.28430375    0.00000000
                                                     2        0.1600000       -0.69640032    0.00000000
                                                     2        0.2600000        1.13005668    0.00000000
                                                     2        0.4000000       -1.31433324    0.00000000
                                                     2        0.7000000        0.91526469    0.00000000
                                      D - G
                                                     0        0.0000010       -0.11496411    0.00000000
                                                     2        0.1200000        0.16620776    0.00000000
                                                     2        0.1800000       -0.30959819    0.00000000
                                                     2        0.3000000        0.16621458    0.00000000
                                                     2        0.6000000        0.27350556    0.00000000
                                      F - G
                                                     0        0.0000010        0.12037550    0.00000000
                                                     2        0.1200000       -0.48737077    0.00000000
                                                     2        0.1400000        0.58315350    0.00000000
                                                     2        0.3000000        0.00005188    0.00000000
                                                     2        0.5000000       -1.16063549    0.00000000
                                                     2        0.8000000        2.09053308    0.00000000
   11          7            7
                                      G and up 
                                                     0        0.0000010       -0.00039818    0.00000000
                                                     2        0.1200000       -0.37616123    0.00000000
                                                     2        0.1400000        2.13837358    0.00000000
                                                     2        0.1600000       -3.36562035    0.00000000
                                                     2        0.2000000        2.53463289    0.00000000
                                                     2        0.3000000       -1.98118833    0.00000000
                                                     2        0.5000000        4.06642919    0.00000000
                                                     2        0.7000000       -6.15327959    0.00000000
                                                     2        1.2000000       10.22492851    0.00000000
                                                     2        2.0000000      -14.94707511    0.00000000
                                      S - G
                                                     0        0.0000010        0.02721443    0.00000000
                                                     2        0.1200000       -0.60186009    0.00000000
                                                     2        0.1600000        1.10088134    0.00000000
                                                     2        0.2600000       -0.59857981    0.00000000
                                                     2        0.6000000        0.21288222    0.00000000
                                                     2        3.0000000        5.09059205    0.00000000
                                      P - G
                                                     0        0.0000010        0.40558062    0.00000000
                                                     2        0.1200000        0.81809854    0.00000000
                                                     2        0.1600000       -2.44952728    0.00000000
                                                     2        0.2800000        4.16638749    0.00000000
                                                     2        0.5000000       -6.02944147    0.00000000
                                                     2        1.1000000        5.78262914    0.00000000
                                      D - G
                                                     0        0.0000010       -0.62770267    0.00000000
                                                     2        0.1600000        0.91438653    0.00000000
                                                     2        0.2600000       -2.00568466    0.00000000
                                                     2        0.5000000        3.30798839    0.00000000
                                                     2        1.1000000       -3.91526108    0.00000000
                                      F - G
                                                     0        0.0000010        0.29726344    0.00000000
                                                     2        0.1200000       -0.41591527    0.00000000
                                                     2        0.1600000        0.51444439    0.00000000
                                                     2        0.4000000       -0.69401726    0.00000000
                                                     2        0.7000000        0.51478123    0.00000000
   12          6            6
                                      G and up 
                                                     0        0.0000010       -0.00007288    0.00000000
                                                     2        0.1200000        0.10466671    0.00000000
                                                     2        0.1400000       -0.65716157    0.00000000
                                                     2        0.1600000        1.18890794    0.00000000
                                                     2        0.2000000       -1.25772850    0.00000000
                                                     2        0.2600000        1.01188378    0.00000000
                                                     2        0.4000000       -1.09380874    0.00000000
                                                     2        0.5000000        0.96944888    0.00000000
                                                     2        1.0000000       -0.79256938    0.00000000
                                                     2        3.0000000        1.06443276    0.00000000
                                      S - G
                                                     0        0.0000010       -0.00635295    0.00000000
                                                     2        0.1200000        0.16918955    0.00000000
                                                     2        0.1600000       -0.38862576    0.00000000
                                                     2        0.2800000        0.25638263    0.00000000
                                                     2        0.5000000        0.29628419    0.00000000
                                                     2        0.9000000       -0.28791512    0.00000000
                                      P - G
                                                     0        0.0000010       -0.04756931    0.00000000
                                                     2        0.1200000        0.28430375    0.00000000
                                                     2        0.1600000       -0.69640032    0.00000000
                                                     2        0.2600000        1.13005668    0.00000000
                                                     2        0.4000000       -1.31433324    0.00000000
                                                     2        0.7000000        0.91526469    0.00000000
                                      D - G
                                                     0        0.0000010       -0.11496411    0.00000000
                                                     2        0.1200000        0.16620776    0.00000000
                                                     2        0.1800000       -0.30959819    0.00000000
                                                     2        0.3000000        0.16621458    0.00000000
                                                     2        0.6000000        0.27350556    0.00000000
                                      F - G
                                                     0        0.0000010        0.12037550    0.00000000
                                                     2        0.1200000       -0.48737077    0.00000000
                                                     2        0.1400000        0.58315350    0.00000000
                                                     2        0.3000000        0.00005188    0.00000000
                                                     2        0.5000000       -1.16063549    0.00000000
                                                     2        0.8000000        2.09053308    0.00000000
   13          7            7
                                      G and up 
                                                     0        0.0000010       -0.00039818    0.00000000
                                                     2        0.1200000       -0.37616123    0.00000000
                                                     2        0.1400000        2.13837358    0.00000000
                                                     2        0.1600000       -3.36562035    0.00000000
                                                     2        0.2000000        2.53463289    0.00000000
                                                     2        0.3000000       -1.98118833    0.00000000
                                                     2        0.5000000        4.06642919    0.00000000
                                                     2        0.7000000       -6.15327959    0.00000000
                                                     2        1.2000000       10.22492851    0.00000000
                                                     2        2.0000000      -14.94707511    0.00000000
                                      S - G
                                                     0        0.0000010        0.02721443    0.00000000
                                                     2        0.1200000       -0.60186009    0.00000000
                                                     2        0.1600000        1.10088134    0.00000000
                                                     2        0.2600000       -0.59857981    0.00000000
                                                     2        0.6000000        0.21288222    0.00000000
                                                     2        3.0000000        5.09059205    0.00000000
                                      P - G
                                                     0        0.0000010        0.40558062    0.00000000
                                                     2        0.1200000        0.81809854    0.00000000
                                                     2        0.1600000       -2.44952728    0.00000000
                                                     2        0.2800000        4.16638749    0.00000000
                                                     2        0.5000000       -6.02944147    0.00000000
                                                     2        1.1000000        5.78262914    0.00000000
                                      D - G
                                                     0        0.0000010       -0.62770267    0.00000000
                                                     2        0.1600000        0.91438653    0.00000000
                                                     2        0.2600000       -2.00568466    0.00000000
                                                     2        0.5000000        3.30798839    0.00000000
                                                     2        1.1000000       -3.91526108    0.00000000
                                      F - G
                                                     0        0.0000010        0.29726344    0.00000000
                                                     2        0.1200000       -0.41591527    0.00000000
                                                     2        0.1600000        0.51444439    0.00000000
                                                     2        0.4000000       -0.69401726    0.00000000
                                                     2        0.7000000        0.51478123    0.00000000
 ======================================================================================================
   275 basis functions,   533 primitive gaussians,   297 cartesian basis functions
    45 alpha electrons       45 beta electrons
       nuclear repulsion energy       687.4702274579 Hartrees.
 NAtoms=   13 NActive=   13 NUniq=   13 SFac= 1.00D+00 NAtFMM=   60 NAOKFM=F Big=F
   1 Symmetry operations used in ECPInt.
 ECPInt:  NShTT=    6216 NPrTT=   41906 LenC2=    6148 LenP2D=   27014.
 LDataN:  DoStor=T MaxTD1= 6 Len=  172
 Initial guess from the checkpoint file:  "E2SN2_215_mol1.chk"
 B after Tr=    -0.426241    0.306689   -1.175746
         Rot=    0.081171    0.636354    0.651651    0.404741 Ang= 170.69 deg.
 >>>>>>>>>> Convergence criterion not met.
 SCF Done:  E(RHF) =  -1025.19029986     A.U. after    2 cycles
            NFock=  1  Conv=0.29D-01     -V/T= 2.0034

 **********************************************************************

            Population analysis using the SCF Density.

 **********************************************************************

 Orbital symmetries:
       Occupied  (A) (A) (A) (A) (A) (A) (A) (A) (A) (A) (A) (A)
                 (A) (A) (A) (A) (A) (A) (A) (A) (A) (A) (A) (A)
                 (A) (A) (A) (A) (A) (A) (A) (A) (A) (A) (A) (A)
                 (A) (A) (A) (A) (A) (A) (A) (A) (A)
       Virtual   (A) (A) (A) (A) (A) (A) (A) (A) (A) (A) (A) (A)
                 (A) (A) (A) (A) (A) (A) (A) (A) (A) (A) (A) (A)
                 (A) (A) (A) (A) (A) (A) (A) (A) (A) (A) (A) (A)
                 (A) (A) (A) (A) (A) (A) (A) (A) (A) (A) (A) (A)
                 (A) (A) (A) (A) (A) (A) (A) (A) (A) (A) (A) (A)
                 (A) (A) (A) (A) (A) (A) (A) (A) (A) (A) (A) (A)
                 (A) (A) (A) (A) (A) (A) (A) (A) (A) (A) (A) (A)
                 (A) (A) (A) (A) (A) (A) (A) (A) (A) (A) (A) (A)
                 (A) (A) (A) (A) (A) (A) (A) (A) (A) (A) (A) (A)
                 (A) (A) (A) (A) (A) (A) (A) (A) (A) (A) (A) (A)
                 (A) (A) (A) (A) (A) (A) (A) (A) (A) (A) (A) (A)
                 (A) (A) (A) (A) (A) (A) (A) (A) (A) (A) (A) (A)
                 (A) (A) (A) (A) (A) (A) (A) (A) (A) (A) (A) (A)
                 (A) (A) (A) (A) (A) (A) (A) (A) (A) (A) (A) (A)
                 (A) (A) (A) (A) (A) (A) (A) (A) (A) (A) (A) (A)
                 (A) (A) (A) (A) (A) (A) (A) (A) (A) (A) (A) (A)
                 (A) (A) (A) (A) (A) (A) (A) (A) (A) (A) (A) (A)
                 (A) (A) (A) (A) (A) (A) (A) (A) (A) (A) (A) (A)
                 (A) (A) (A) (A) (A) (A) (A) (A) (A) (A) (A) (A)
                 (A) (A)
 The electronic state is 1-A.
 Alpha  occ. eigenvalues -- -105.39728 -26.20003 -20.48305 -20.48244 -15.68994
 Alpha  occ. eigenvalues --  -15.43251 -15.42365 -11.31210 -11.24600 -11.20696
 Alpha  occ. eigenvalues --  -11.20004 -10.44559  -7.61416  -7.61183  -7.61172
 Alpha  occ. eigenvalues --   -1.55960  -1.39891  -1.28356  -1.14118  -1.12420
 Alpha  occ. eigenvalues --   -1.06044  -0.97077  -0.86611  -0.76400  -0.71190
 Alpha  occ. eigenvalues --   -0.66100  -0.65346  -0.63500  -0.61424  -0.56345
 Alpha  occ. eigenvalues --   -0.51993  -0.51083  -0.42746  -0.42061  -0.41283
 Alpha  occ. eigenvalues --   -0.40015  -0.39666  -0.38803  -0.37971  -0.36213
 Alpha  occ. eigenvalues --   -0.35935  -0.33864  -0.31515  -0.30949  -0.28973
 Alpha virt. eigenvalues --    0.13945   0.14811   0.15491   0.17219   0.17995
 Alpha virt. eigenvalues --    0.19463   0.20992   0.21506   0.22686   0.23116
 Alpha virt. eigenvalues --    0.23693   0.24143   0.24714   0.24923   0.25354
 Alpha virt. eigenvalues --    0.26179   0.26439   0.27345   0.27592   0.28093
 Alpha virt. eigenvalues --    0.28508   0.29320   0.30763   0.31260   0.32044
 Alpha virt. eigenvalues --    0.33262   0.34201   0.35476   0.35769   0.36196
 Alpha virt. eigenvalues --    0.37048   0.38486   0.39124   0.39262   0.40374
 Alpha virt. eigenvalues --    0.40932   0.41816   0.42523   0.43861   0.44637
 Alpha virt. eigenvalues --    0.45098   0.46463   0.47734   0.48545   0.48789
 Alpha virt. eigenvalues --    0.49846   0.50668   0.51294   0.51968   0.53180
 Alpha virt. eigenvalues --    0.54378   0.54735   0.56887   0.57296   0.57798
 Alpha virt. eigenvalues --    0.58668   0.59490   0.60296   0.61553   0.62110
 Alpha virt. eigenvalues --    0.63257   0.65298   0.65726   0.66742   0.68068
 Alpha virt. eigenvalues --    0.69263   0.69689   0.70470   0.72330   0.73889
 Alpha virt. eigenvalues --    0.75038   0.75747   0.76728   0.78693   0.80248
 Alpha virt. eigenvalues --    0.80897   0.82977   0.82997   0.85604   0.86189
 Alpha virt. eigenvalues --    0.87415   0.88163   0.90275   0.90316   0.91208
 Alpha virt. eigenvalues --    0.93103   0.94528   0.96026   0.97912   0.98653
 Alpha virt. eigenvalues --    0.99923   1.02098   1.02621   1.04900   1.06897
 Alpha virt. eigenvalues --    1.08171   1.09120   1.10038   1.10709   1.11230
 Alpha virt. eigenvalues --    1.11684   1.13472   1.15534   1.17081   1.17809
 Alpha virt. eigenvalues --    1.17871   1.20076   1.20987   1.22622   1.24562
 Alpha virt. eigenvalues --    1.28411   1.28931   1.29797   1.33271   1.33467
 Alpha virt. eigenvalues --    1.34456   1.35313   1.36698   1.38264   1.40718
 Alpha virt. eigenvalues --    1.41186   1.42005   1.43404   1.44445   1.45935
 Alpha virt. eigenvalues --    1.49528   1.49745   1.50958   1.53063   1.54903
 Alpha virt. eigenvalues --    1.55778   1.56684   1.57090   1.58866   1.60691
 Alpha virt. eigenvalues --    1.62987   1.64822   1.65300   1.67288   1.68735
 Alpha virt. eigenvalues --    1.70620   1.71407   1.73456   1.74978   1.77187
 Alpha virt. eigenvalues --    1.78748   1.79530   1.80097   1.81805   1.84441
 Alpha virt. eigenvalues --    1.85255   1.85906   1.86618   1.88206   1.90508
 Alpha virt. eigenvalues --    1.93238   1.93855   1.95765   1.97138   1.98581
 Alpha virt. eigenvalues --    1.99996   2.01033   2.05229   2.05923   2.06385
 Alpha virt. eigenvalues --    2.08028   2.10018   2.11728   2.14670   2.17281
 Alpha virt. eigenvalues --    2.18296   2.20718   2.22842   2.24150   2.25490
 Alpha virt. eigenvalues --    2.28354   2.29780   2.30586   2.31201   2.33337
 Alpha virt. eigenvalues --    2.35722   2.38317   2.42022   2.42666   2.45089
 Alpha virt. eigenvalues --    2.47703   2.49471   2.52612   2.56832   2.59494
 Alpha virt. eigenvalues --    2.62117   2.63715   2.66040   2.70904   2.74181
 Alpha virt. eigenvalues --    2.81471   2.82233   2.86062   2.89324   2.93039
 Alpha virt. eigenvalues --    2.98288   3.05248   3.09170   3.13328   3.19265
 Alpha virt. eigenvalues --    3.23863   3.25343   3.30753   3.37980   3.54923
 Alpha virt. eigenvalues --    3.67380   3.76207   3.78716   3.91005   3.93302
 Alpha virt. eigenvalues --    3.97232   3.99069   4.02426   4.06880   4.09397
 Alpha virt. eigenvalues --    4.16628   4.26258   4.31623   4.35169   5.00110
 Alpha virt. eigenvalues --    5.50170   5.53245   5.60867   5.62456   5.67705
          Condensed to atoms (all electrons):
 Mulliken charges:
               1
     1  C   -0.036739
     2  H    0.587576
     3  Cl  -0.456545
     4  F   -0.877993
     5  C    0.765267
     6  H   -0.044255
     7  N    3.215584
     8  O   -1.460282
     9  O   -1.549104
    10  C   -1.519155
    11  N    0.994693
    12  C   -1.619862
    13  N    1.000815
 Sum of Mulliken charges =  -1.00000
 Mulliken charges with hydrogens summed into heavy atoms:
               1
     1  C   -0.080994
     3  Cl  -0.456545
     4  F   -0.877993
     5  C    1.352843
     7  N    3.215584
     8  O   -1.460282
     9  O   -1.549104
    10  C   -1.519155
    11  N    0.994693
    12  C   -1.619862
    13  N    1.000815
 Electronic spatial extent (au):  <R**2>=           1775.1780
 Charge=             -1.0000 electrons
 Dipole moment (field-independent basis, Debye):
    X=             -0.7681    Y=              0.1800    Z=              0.4709  Tot=              0.9187

 Test job not archived.
 1\1\GINC-SE208\SP\RHF\Aug-CC-pVDZ\C4H2Cl1F1N3O2(1-)\OHZDE\09-Apr-2025\
 0\\#t hf aug-cc-pvdz iop(5/13=1,5/36=2,99/5=2) pseudo=read geom=check 
 guess=(read,tcheck) scf=(maxcycle=1)\\title\\-1,1\C,0,0.37109203,-0.06
 573999,-0.0592529\H,0,1.66226434,1.53862332,-0.42916717\Cl,0,-1.694050
 93,-0.16176952,-0.57693596\F,0,2.12734183,-0.17199903,0.57619403\C,0,0
 .60899915,1.43584537,-0.16095507\H,0,0.17710784,-0.58632574,0.85657219
 \N,0,0.85636405,-0.87041914,-1.19408577\O,0,1.24966098,-0.25174014,-2.
 17970894\O,0,0.82795629,-2.08558606,-1.0682639\C,0,0.44371467,2.015818
 82,1.17375814\N,0,0.32448992,2.50902573,2.23198333\C,0,-0.17706336,2.1
 9859064,-1.14002457\N,0,-0.6791368,2.93011575,-1.90917341\\Version=ES6
 4L-G16RevC.01\State=1-A\HF=-1025.1902999\RMSD=2.911e-02\Dipole=0.22259
 03,-0.2016257,-0.2011312\Quadrupole=1.8898556,-0.8469911,-1.0428645,6.
 248771,-4.9347313,-3.1096779\PG=C01 [X(C4H2Cl1F1N3O2)]\\@


 CHILDREN YOU ARE VERY LITTLE,
 AND YOUR BONES ARE VERY BRITTLE;
 IF YOU WOULD GROW GREAT AND STATELY
 YOU MUST TRY TO WALK SEDATELY.
 YOU MUST STILL BE BRIGHT AND QUIET,
 AND CONTENT WITH SIMPLE DIET;
 AND REMAIN, THROUGH ALL BEWILD'RING
 INNOCENT AND HONEST CHILDREN.
     -- A CHILD'S GARDEN OF VERSE,
        ROBERT LOUIS STEVENSON
 Job cpu time:       0 days  0 hours  1 minutes 35.3 seconds.
 Elapsed time:       0 days  0 hours  0 minutes  7.1 seconds.
 File lengths (MBytes):  RWF=     15 Int=      0 D2E=      0 Chk=     11 Scr=      1
 Normal termination of Gaussian 16 at Wed Apr  9 02:43:32 2025.
