 Entering Gaussian System, Link 0=g16
 Input=E2SN2_299_mol2.gjf
 Output=E2SN2_299_mol2.log
 Initial command:
 /arc/software/Gaussian/g16.c01/l1.exe "/tmp/slurm/4859678/Gau-4051097.inp" -scrdir="/tmp/slurm/4859678/"
 Entering Link 1 = /arc/software/Gaussian/g16.c01/l1.exe PID=   4051098.
  
 Copyright (c) 1988-2019, Gaussian, Inc.  All Rights Reserved.
  
 This is part of the Gaussian(R) 16 program.  It is based on
 the Gaussian(R) 09 system (copyright 2009, Gaussian, Inc.),
 the Gaussian(R) 03 system (copyright 2003, Gaussian, Inc.),
 the Gaussian(R) 98 system (copyright 1998, Gaussian, Inc.),
 the Gaussian(R) 94 system (copyright 1995, Gaussian, Inc.),
 the Gaussian 92(TM) system (copyright 1992, Gaussian, Inc.),
 the Gaussian 90(TM) system (copyright 1990, Gaussian, Inc.),
 the Gaussian 88(TM) system (copyright 1988, Gaussian, Inc.),
 the Gaussian 86(TM) system (copyright 1986, Carnegie Mellon
 University), and the Gaussian 82(TM) system (copyright 1983,
 Carnegie Mellon University). Gaussian is a federally registered
 trademark of Gaussian, Inc.
  
 This software contains proprietary and confidential information,
 including trade secrets, belonging to Gaussian, Inc.
  
 This software is provided under written license and may be
 used, copied, transmitted, or stored only in accord with that
 written license.
  
 The following legend is applicable only to US Government
 contracts under FAR:
  
                    RESTRICTED RIGHTS LEGEND
  
 Use, reproduction and disclosure by the US Government is
 subject to restrictions as set forth in subparagraphs (a)
 and (c) of the Commercial Computer Software - Restricted
 Rights clause in FAR 52.227-19.
  
 Gaussian, Inc.
 340 Quinnipiac St., Bldg. 40, Wallingford CT 06492
  
  
 ---------------------------------------------------------------
 Warning -- This program may not be used in any manner that
 competes with the business of Gaussian, Inc. or will provide
 assistance to any competitor of Gaussian, Inc.  The licensee
 of this program is prohibited from giving any competitor of
 Gaussian, Inc. access to this program.  By using this program,
 the user acknowledges that Gaussian, Inc. is engaged in the
 business of creating and licensing software in the field of
 computational chemistry and represents and warrants to the
 licensee that it is not a competitor of Gaussian, Inc. and that
 it will not use this program in any manner prohibited above.
 ---------------------------------------------------------------
  

 Cite this work as:
 Gaussian 16, Revision C.01,
 M. J. Frisch, G. W. Trucks, H. B. Schlegel, G. E. Scuseria, 
 M. A. Robb, J. R. Cheeseman, G. Scalmani, V. Barone, 
 G. A. Petersson, H. Nakatsuji, X. Li, M. Caricato, A. V. Marenich, 
 J. Bloino, B. G. Janesko, R. Gomperts, B. Mennucci, H. P. Hratchian, 
 J. V. Ortiz, A. F. Izmaylov, J. L. Sonnenberg, D. Williams-Young, 
 F. Ding, F. Lipparini, F. Egidi, J. Goings, B. Peng, A. Petrone, 
 T. Henderson, D. Ranasinghe, V. G. Zakrzewski, J. Gao, N. Rega, 
 G. Zheng, W. Liang, M. Hada, M. Ehara, K. Toyota, R. Fukuda, 
 J. Hasegawa, M. Ishida, T. Nakajima, Y. Honda, O. Kitao, H. Nakai, 
 T. Vreven, K. Throssell, J. A. Montgomery, Jr., J. E. Peralta, 
 F. Ogliaro, M. J. Bearpark, J. J. Heyd, E. N. Brothers, K. N. Kudin, 
 V. N. Staroverov, T. A. Keith, R. Kobayashi, J. Normand, 
 K. Raghavachari, A. P. Rendell, J. C. Burant, S. S. Iyengar, 
 J. Tomasi, M. Cossi, J. M. Millam, M. Klene, C. Adamo, R. Cammi, 
 J. W. Ochterski, R. L. Martin, K. Morokuma, O. Farkas, 
 J. B. Foresman, and D. J. Fox, Gaussian, Inc., Wallingford CT, 2019.
 
 ******************************************
 Gaussian 16:  ES64L-G16RevC.01  3-Jul-2019
                 9-Apr-2025 
 ******************************************
 %nprocs=16
 Will use up to   16 processors via shared memory.
 %mem=30GB
 %chk=E2SN2_299_mol2.chk
 ----------------------------------------------------------------------
 #t hf aug-cc-pvdz symm=none int=(grid=ultrafine) guess=(read,tcheck) s
 table=(opt,rrhf)
 ----------------------------------------------------------------------
 -----
 title
 -----
 Symbolic Z-matrix:
 Charge = -1 Multiplicity = 1
 C                     0.07569   0.06366   0.0287 
 C                    -0.4154    0.0491   -1.41065 
 F                     1.46965  -0.20215   0.02241 
 H                     0.17725   0.78679  -1.9609 
 H                    -1.46248   0.36355  -1.40928 
 C                     0.00327   1.44708   0.58238 
 N                    -0.06391   2.53097   1.03066 
 N                    -0.57806  -0.90229   0.8147 
 H                    -0.55512  -0.68479   1.80082 
 H                    -1.54683  -1.06388   0.51003 
 C                    -0.29618  -1.33362  -2.0428 
 H                    -1.03307  -2.00846  -1.61032 
 H                    -0.49261  -1.26499  -3.11632 
 H                     0.70548  -1.74246  -1.89587 
 Cl                   -3.6012   -1.22878  -0.28092 
 
                    Distance matrix (angstroms):
                    1          2          3          4          5
     1  C    0.000000
     2  C    1.520885   0.000000
     3  F    1.419095   2.381220   0.000000
     4  H    2.119370   1.094628   2.565503   0.000000
     5  H    2.126890   1.093275   3.311667   1.781057   0.000000
     6  C    1.491864   2.470181   2.276796   2.633352   2.699848
     7  N    2.666656   3.499035   3.292168   3.471285   3.550641
     8  N    1.406505   2.425647   2.304576   3.335784   2.707508
     9  H    2.024486   3.297221   2.737777   4.105181   3.496722
    10  H    2.033617   2.491555   3.174828   3.535950   2.393404
    11  C    2.526216   1.525037   2.943376   2.174159   2.154523
    12  H    2.865211   2.157534   3.491735   3.066144   2.418932
    13  H    3.461122   2.154552   3.851191   2.448160   2.550834
    14  H    2.713419   2.168295   2.576097   2.584636   3.061387
    15  Cl   3.909700   3.613659   5.182614   4.600168   2.895304
                    6          7          8          9         10
     6  C    0.000000
     7  N    1.174861   0.000000
     8  N    2.431350   3.478260   0.000000
     9  H    2.518191   3.342989   1.010087   0.000000
    10  H    2.951772   3.923397   1.028321   1.671330   0.000000
    11  C    3.835820   4.943196   2.903583   3.906593   2.855491
    12  H    4.221698   5.340465   2.703955   3.690048   2.377411
    13  H    4.613194   5.638311   3.948635   4.951645   3.781827
    14  H    4.099751   5.236293   3.114568   4.046393   3.364779
    15  Cl   4.571401   5.326196   3.232075   3.729365   2.207535
                   11         12         13         14         15
    11  C    0.000000
    12  H    1.088792   0.000000
    13  H    1.093494   1.764334   0.000000
    14  H    1.091820   1.781818   1.775640   0.000000
    15  Cl   3.746777   2.995073   4.207623   4.628110   0.000000
 Symmetry turned off by external request.
 Rotational constants (GHZ):           2.0033586           0.9185145           0.7484170
   251 basis functions,   459 primitive gaussians,   267 cartesian basis functions
    36 alpha electrons       36 beta electrons
       nuclear repulsion energy       421.8205643632 Hartrees.
 NAtoms=   15 NActive=   15 NUniq=   15 SFac= 1.00D+00 NAtFMM=   60 NAOKFM=F Big=F
 ExpMin= 2.97D-02 ExpMax= 1.28D+05 ExpMxC= 1.24D+03 IAcc=3 IRadAn=         5 AccDes= 0.00D+00
 Harris functional with IExCor=  205 and IRadAn=       5 diagonalized for initial guess.
 HarFok:  IExCor=  205 AccDes= 0.00D+00 IRadAn=         5 IDoV= 1 UseB2=F ITyADJ=14
 ICtDFT=  3500011 ScaDFX=  1.000000  1.000000  1.000000  1.000000
 FoFCou: FMM=F IPFlag=           0 FMFlag=      100000 FMFlg1=           0
         NFxFlg=           0 DoJE=T BraDBF=F KetDBF=T FulRan=T
         wScrn=  0.000000 ICntrl=       500 IOpCl=  0 I1Cent=   200000004 NGrid=           0
         NMat0=    1 NMatS0=      1 NMatT0=    0 NMatD0=    1 NMtDS0=    0 NMtDT0=    0
 Symmetry not used in FoFCou.
 SCF Done:  E(RHF) =  -823.512803041     A.U. after   14 cycles
            NFock= 14  Conv=0.73D-08     -V/T= 2.0007

 **********************************************************************

            Population analysis using the SCF Density.

 **********************************************************************

 Alpha  occ. eigenvalues -- -104.55132 -26.18857 -15.48722 -15.43910 -11.27998
 Alpha  occ. eigenvalues --  -11.18501 -11.12758 -11.10660 -10.27529  -7.74153
 Alpha  occ. eigenvalues --   -7.74124  -7.74119  -1.49104  -1.12328  -1.09248
 Alpha  occ. eigenvalues --   -0.94125  -0.84000  -0.78600  -0.72394  -0.65399
 Alpha  occ. eigenvalues --   -0.59344  -0.58589  -0.53735  -0.49189  -0.47966
 Alpha  occ. eigenvalues --   -0.46227  -0.45705  -0.40973  -0.38755  -0.38534
 Alpha  occ. eigenvalues --   -0.36721  -0.35267  -0.30208  -0.20221  -0.19837
 Alpha  occ. eigenvalues --   -0.19738
 Alpha virt. eigenvalues --    0.12213   0.13728   0.14091   0.14872   0.17349
 Alpha virt. eigenvalues --    0.18051   0.18244   0.19849   0.20809   0.22334
 Alpha virt. eigenvalues --    0.23027   0.23219   0.25039   0.25428   0.25636
 Alpha virt. eigenvalues --    0.26188   0.27249   0.27518   0.28210   0.28709
 Alpha virt. eigenvalues --    0.29755   0.30538   0.31632   0.32302   0.33533
 Alpha virt. eigenvalues --    0.34491   0.34966   0.35178   0.36773   0.36872
 Alpha virt. eigenvalues --    0.37831   0.38867   0.40117   0.41226   0.41983
 Alpha virt. eigenvalues --    0.43472   0.45729   0.45954   0.46944   0.47690
 Alpha virt. eigenvalues --    0.48465   0.49656   0.49773   0.50872   0.51427
 Alpha virt. eigenvalues --    0.53066   0.53572   0.54587   0.55465   0.55727
 Alpha virt. eigenvalues --    0.57315   0.58419   0.58566   0.59863   0.61527
 Alpha virt. eigenvalues --    0.62132   0.63388   0.64733   0.65440   0.66107
 Alpha virt. eigenvalues --    0.66612   0.68048   0.69304   0.69565   0.70020
 Alpha virt. eigenvalues --    0.71372   0.71962   0.73419   0.74235   0.75238
 Alpha virt. eigenvalues --    0.75761   0.77163   0.78085   0.79434   0.80312
 Alpha virt. eigenvalues --    0.81721   0.82174   0.83288   0.83940   0.85345
 Alpha virt. eigenvalues --    0.86167   0.86681   0.88501   0.89263   0.90517
 Alpha virt. eigenvalues --    0.91465   0.91961   0.93112   0.94960   0.95338
 Alpha virt. eigenvalues --    0.96561   0.98631   0.99585   1.01549   1.02292
 Alpha virt. eigenvalues --    1.03676   1.04532   1.05821   1.06976   1.07926
 Alpha virt. eigenvalues --    1.10386   1.12201   1.14830   1.15491   1.17915
 Alpha virt. eigenvalues --    1.19051   1.20098   1.23182   1.24235   1.25463
 Alpha virt. eigenvalues --    1.26542   1.26741   1.29651   1.32690   1.33588
 Alpha virt. eigenvalues --    1.34220   1.35564   1.38838   1.39899   1.43626
 Alpha virt. eigenvalues --    1.46015   1.47477   1.50732   1.51577   1.57181
 Alpha virt. eigenvalues --    1.58899   1.61475   1.63320   1.65918   1.66955
 Alpha virt. eigenvalues --    1.68622   1.70287   1.71258   1.72597   1.76821
 Alpha virt. eigenvalues --    1.77440   1.79634   1.80986   1.82942   1.83878
 Alpha virt. eigenvalues --    1.86286   1.87344   1.88725   1.89646   1.90909
 Alpha virt. eigenvalues --    1.93562   1.94565   1.95459   1.98214   2.01328
 Alpha virt. eigenvalues --    2.02778   2.05632   2.06144   2.08628   2.10269
 Alpha virt. eigenvalues --    2.10862   2.11972   2.17493   2.20838   2.24740
 Alpha virt. eigenvalues --    2.26636   2.27465   2.29668   2.31352   2.32223
 Alpha virt. eigenvalues --    2.33185   2.36550   2.41289   2.42041   2.42245
 Alpha virt. eigenvalues --    2.43894   2.47633   2.49603   2.52075   2.57332
 Alpha virt. eigenvalues --    2.59902   2.61811   2.66111   2.67144   2.69789
 Alpha virt. eigenvalues --    2.71489   2.74535   2.75008   2.76745   2.78741
 Alpha virt. eigenvalues --    2.80367   2.82957   2.84454   2.87351   2.89491
 Alpha virt. eigenvalues --    2.92874   2.95891   3.00890   3.04255   3.06590
 Alpha virt. eigenvalues --    3.12095   3.12506   3.17907   3.22041   3.25859
 Alpha virt. eigenvalues --    3.31524   3.31878   3.41011   3.48694   3.53370
 Alpha virt. eigenvalues --    3.65782   3.72732   3.76804   3.87841   4.05068
 Alpha virt. eigenvalues --    5.22225   5.25708   5.30293   5.30492   5.35590
          Condensed to atoms (all electrons):
 Mulliken charges:
               1
     1  C    1.568201
     2  C    0.247336
     3  F   -0.820800
     4  H   -0.188335
     5  H   -0.049191
     6  C   -0.430399
     7  N   -0.327396
     8  N   -0.470427
     9  H   -0.040798
    10  H    0.104885
    11  C    0.517066
    12  H   -0.015703
    13  H   -0.076737
    14  H   -0.053054
    15  Cl  -0.964648
 Sum of Mulliken charges =  -1.00000
 Mulliken charges with hydrogens summed into heavy atoms:
               1
     1  C    1.568201
     2  C    0.009810
     3  F   -0.820800
     6  C   -0.430399
     7  N   -0.327396
     8  N   -0.406339
    11  C    0.371572
    15  Cl  -0.964648
 Electronic spatial extent (au):  <R**2>=           1756.0043
 Charge=             -1.0000 electrons
 Dipole moment (field-independent basis, Debye):
    X=             11.6868    Y=              2.1331    Z=             -0.2918  Tot=             11.8835
 NROrb=    251 NOA=    36 NOB=    36 NVA=   215 NVB=   215

 **** Warning!!: The largest alpha MO coefficient is  0.90812230D+02

    12 initial guesses have been made.
 Iteration     1 Dimension    12 NMult     0 NNew     12
 Iteration     2 Dimension    24 NMult    12 NNew     12
 Iteration     3 Dimension    27 NMult    24 NNew      3
 Iteration     4 Dimension    30 NMult    27 NNew      3
 Iteration     5 Dimension    33 NMult    30 NNew      3
 Iteration     6 Dimension    36 NMult    33 NNew      3
 Iteration     7 Dimension    39 NMult    36 NNew      3
 Iteration     8 Dimension    42 NMult    39 NNew      3
 Iteration     9 Dimension    45 NMult    42 NNew      3
 Iteration    10 Dimension    48 NMult    45 NNew      3
 Iteration    11 Dimension    51 NMult    48 NNew      3
 New state      1 was old state      2
 Iteration    12 Dimension    54 NMult    51 NNew      3
 Iteration    13 Dimension    57 NMult    54 NNew      3
 Iteration    14 Dimension    60 NMult    57 NNew      3
 Iteration    15 Dimension    63 NMult    60 NNew      3
 Iteration    16 Dimension    66 NMult    63 NNew      3
 Iteration    17 Dimension    69 NMult    66 NNew      3
 Iteration    18 Dimension    72 NMult    69 NNew      3
 ***********************************************************************
 Stability analysis using <AA,BB:AA,BB> singles matrix:
 ***********************************************************************
 Ground to excited state transition densities written to RWF  633

 Eigenvectors of the stability matrix:
 
 Excited state symmetry could not be determined.
 Eigenvector   1:      Singlet-?Sym  Eigenvalue= 0.2101581  <S**2>=0.000
      31 -> 53         0.22772
      31 -> 56        -0.25124
      32 -> 53        -0.12302
      32 -> 54        -0.12910
      32 -> 55        -0.13214
      32 -> 56        -0.20204
      32 -> 59         0.11684
      32 -> 61        -0.10718
      33 -> 53         0.14472
 The wavefunction is stable under the perturbations considered.
 The wavefunction is already stable.

 **********************************************************************

            Population analysis using the SCF Density.

 **********************************************************************

 Alpha  occ. eigenvalues -- -104.55132 -26.18857 -15.48722 -15.43910 -11.27998
 Alpha  occ. eigenvalues --  -11.18501 -11.12758 -11.10660 -10.27529  -7.74153
 Alpha  occ. eigenvalues --   -7.74124  -7.74119  -1.49104  -1.12328  -1.09248
 Alpha  occ. eigenvalues --   -0.94125  -0.84000  -0.78600  -0.72394  -0.65399
 Alpha  occ. eigenvalues --   -0.59344  -0.58589  -0.53735  -0.49189  -0.47966
 Alpha  occ. eigenvalues --   -0.46227  -0.45705  -0.40973  -0.38755  -0.38534
 Alpha  occ. eigenvalues --   -0.36721  -0.35267  -0.30208  -0.20221  -0.19837
 Alpha  occ. eigenvalues --   -0.19738
 Alpha virt. eigenvalues --    0.12213   0.13728   0.14091   0.14872   0.17349
 Alpha virt. eigenvalues --    0.18051   0.18244   0.19849   0.20809   0.22334
 Alpha virt. eigenvalues --    0.23027   0.23219   0.25039   0.25428   0.25636
 Alpha virt. eigenvalues --    0.26188   0.27249   0.27518   0.28210   0.28709
 Alpha virt. eigenvalues --    0.29755   0.30538   0.31632   0.32302   0.33533
 Alpha virt. eigenvalues --    0.34491   0.34966   0.35178   0.36773   0.36872
 Alpha virt. eigenvalues --    0.37831   0.38867   0.40117   0.41226   0.41983
 Alpha virt. eigenvalues --    0.43472   0.45729   0.45954   0.46944   0.47690
 Alpha virt. eigenvalues --    0.48465   0.49656   0.49773   0.50872   0.51427
 Alpha virt. eigenvalues --    0.53066   0.53572   0.54587   0.55465   0.55727
 Alpha virt. eigenvalues --    0.57315   0.58419   0.58566   0.59863   0.61527
 Alpha virt. eigenvalues --    0.62132   0.63388   0.64733   0.65440   0.66107
 Alpha virt. eigenvalues --    0.66612   0.68048   0.69304   0.69565   0.70020
 Alpha virt. eigenvalues --    0.71372   0.71962   0.73419   0.74235   0.75238
 Alpha virt. eigenvalues --    0.75761   0.77163   0.78085   0.79434   0.80312
 Alpha virt. eigenvalues --    0.81721   0.82174   0.83288   0.83940   0.85345
 Alpha virt. eigenvalues --    0.86167   0.86681   0.88501   0.89263   0.90517
 Alpha virt. eigenvalues --    0.91465   0.91961   0.93112   0.94960   0.95338
 Alpha virt. eigenvalues --    0.96561   0.98631   0.99585   1.01549   1.02292
 Alpha virt. eigenvalues --    1.03676   1.04532   1.05821   1.06976   1.07926
 Alpha virt. eigenvalues --    1.10386   1.12201   1.14830   1.15491   1.17915
 Alpha virt. eigenvalues --    1.19051   1.20098   1.23182   1.24235   1.25463
 Alpha virt. eigenvalues --    1.26542   1.26741   1.29651   1.32690   1.33588
 Alpha virt. eigenvalues --    1.34220   1.35564   1.38838   1.39899   1.43626
 Alpha virt. eigenvalues --    1.46015   1.47477   1.50732   1.51577   1.57181
 Alpha virt. eigenvalues --    1.58899   1.61475   1.63320   1.65918   1.66955
 Alpha virt. eigenvalues --    1.68622   1.70287   1.71258   1.72597   1.76821
 Alpha virt. eigenvalues --    1.77440   1.79634   1.80986   1.82942   1.83878
 Alpha virt. eigenvalues --    1.86286   1.87344   1.88725   1.89646   1.90909
 Alpha virt. eigenvalues --    1.93562   1.94565   1.95459   1.98214   2.01328
 Alpha virt. eigenvalues --    2.02778   2.05632   2.06144   2.08628   2.10269
 Alpha virt. eigenvalues --    2.10862   2.11972   2.17493   2.20838   2.24740
 Alpha virt. eigenvalues --    2.26636   2.27465   2.29668   2.31352   2.32223
 Alpha virt. eigenvalues --    2.33185   2.36550   2.41289   2.42041   2.42245
 Alpha virt. eigenvalues --    2.43894   2.47633   2.49603   2.52075   2.57332
 Alpha virt. eigenvalues --    2.59902   2.61811   2.66111   2.67144   2.69789
 Alpha virt. eigenvalues --    2.71489   2.74535   2.75008   2.76745   2.78741
 Alpha virt. eigenvalues --    2.80367   2.82957   2.84454   2.87351   2.89491
 Alpha virt. eigenvalues --    2.92874   2.95891   3.00890   3.04255   3.06590
 Alpha virt. eigenvalues --    3.12095   3.12506   3.17907   3.22041   3.25859
 Alpha virt. eigenvalues --    3.31524   3.31878   3.41011   3.48694   3.53370
 Alpha virt. eigenvalues --    3.65782   3.72732   3.76804   3.87841   4.05068
 Alpha virt. eigenvalues --    5.22225   5.25708   5.30293   5.30492   5.35590
          Condensed to atoms (all electrons):
 Mulliken charges:
               1
     1  C    1.568201
     2  C    0.247336
     3  F   -0.820800
     4  H   -0.188335
     5  H   -0.049191
     6  C   -0.430399
     7  N   -0.327396
     8  N   -0.470427
     9  H   -0.040798
    10  H    0.104885
    11  C    0.517066
    12  H   -0.015703
    13  H   -0.076737
    14  H   -0.053054
    15  Cl  -0.964648
 Sum of Mulliken charges =  -1.00000
 Mulliken charges with hydrogens summed into heavy atoms:
               1
     1  C    1.568201
     2  C    0.009810
     3  F   -0.820800
     6  C   -0.430399
     7  N   -0.327396
     8  N   -0.406339
    11  C    0.371572
    15  Cl  -0.964648
 Electronic spatial extent (au):  <R**2>=           1756.0043
 Charge=             -1.0000 electrons
 Dipole moment (field-independent basis, Debye):
    X=             11.6868    Y=              2.1331    Z=             -0.2918  Tot=             11.8835
 Unable to Open any file for archive entry.
 1\1\GINC-SE398\Stability\RHF\Aug-CC-pVDZ\C4H7Cl1F1N2\OHZDE\09-Apr-2025
 \0\\#t hf aug-cc-pvdz symm=none int=(grid=ultrafine) guess=(read,tchec
 k) stable=(opt,rrhf)\\title\\-1,1\C,0,0.07569,0.063663,0.028695\C,0,-0
 .415404,0.049101,-1.410647\F,0,1.469654,-0.202147,0.022405\H,0,0.17725
 4,0.78679,-1.960903\H,0,-1.462482,0.363545,-1.409276\C,0,0.003272,1.44
 7081,0.58238\N,0,-0.063914,2.530974,1.030665\N,0,-0.578062,-0.90229,0.
 814698\H,0,-0.555118,-0.684792,1.800824\H,0,-1.54683,-1.063876,0.51003
 1\C,0,-0.29618,-1.333616,-2.0428\H,0,-1.033073,-2.008463,-1.610321\H,0
 ,-0.492609,-1.264988,-3.116315\H,0,0.705484,-1.742456,-1.895867\Cl,0,-
 3.601195,-1.228781,-0.280919\\Version=ES64L-G16RevC.01\HF=-823.512803\
 RMSD=7.345e-09\Dipole=2.9879415,0.424971,-0.5510988\Quadrupole=-22.826
 1203,3.6509251,19.1751952,-12.2800255,-3.0878036,-4.7553409\PG=Unknown
 \\@
 The archive entry for this job was punched.


 The chemist is a guest at the physicist's table and
 frequently dines well.
                   -- Richard Bersohn
 Job cpu time:       0 days  0 hours 13 minutes  7.0 seconds.
 Elapsed time:       0 days  0 hours  0 minutes 55.8 seconds.
 File lengths (MBytes):  RWF=    341 Int=      0 D2E=      0 Chk=      9 Scr=      1
 Normal termination of Gaussian 16 at Wed Apr  9 02:51:15 2025.
 Initial command:
 /arc/software/Gaussian/g16.c01/l1.exe "/tmp/slurm/4859678/Gau-4051097.inp" -scrdir="/tmp/slurm/4859678/"
 Entering Link 1 = /arc/software/Gaussian/g16.c01/l1.exe PID=   4051320.
  
 Copyright (c) 1988-2019, Gaussian, Inc.  All Rights Reserved.
  
 This is part of the Gaussian(R) 16 program.  It is based on
 the Gaussian(R) 09 system (copyright 2009, Gaussian, Inc.),
 the Gaussian(R) 03 system (copyright 2003, Gaussian, Inc.),
 the Gaussian(R) 98 system (copyright 1998, Gaussian, Inc.),
 the Gaussian(R) 94 system (copyright 1995, Gaussian, Inc.),
 the Gaussian 92(TM) system (copyright 1992, Gaussian, Inc.),
 the Gaussian 90(TM) system (copyright 1990, Gaussian, Inc.),
 the Gaussian 88(TM) system (copyright 1988, Gaussian, Inc.),
 the Gaussian 86(TM) system (copyright 1986, Carnegie Mellon
 University), and the Gaussian 82(TM) system (copyright 1983,
 Carnegie Mellon University). Gaussian is a federally registered
 trademark of Gaussian, Inc.
  
 This software contains proprietary and confidential information,
 including trade secrets, belonging to Gaussian, Inc.
  
 This software is provided under written license and may be
 used, copied, transmitted, or stored only in accord with that
 written license.
  
 The following legend is applicable only to US Government
 contracts under FAR:
  
                    RESTRICTED RIGHTS LEGEND
  
 Use, reproduction and disclosure by the US Government is
 subject to restrictions as set forth in subparagraphs (a)
 and (c) of the Commercial Computer Software - Restricted
 Rights clause in FAR 52.227-19.
  
 Gaussian, Inc.
 340 Quinnipiac St., Bldg. 40, Wallingford CT 06492
  
  
 ---------------------------------------------------------------
 Warning -- This program may not be used in any manner that
 competes with the business of Gaussian, Inc. or will provide
 assistance to any competitor of Gaussian, Inc.  The licensee
 of this program is prohibited from giving any competitor of
 Gaussian, Inc. access to this program.  By using this program,
 the user acknowledges that Gaussian, Inc. is engaged in the
 business of creating and licensing software in the field of
 computational chemistry and represents and warrants to the
 licensee that it is not a competitor of Gaussian, Inc. and that
 it will not use this program in any manner prohibited above.
 ---------------------------------------------------------------
  

 Cite this work as:
 Gaussian 16, Revision C.01,
 M. J. Frisch, G. W. Trucks, H. B. Schlegel, G. E. Scuseria, 
 M. A. Robb, J. R. Cheeseman, G. Scalmani, V. Barone, 
 G. A. Petersson, H. Nakatsuji, X. Li, M. Caricato, A. V. Marenich, 
 J. Bloino, B. G. Janesko, R. Gomperts, B. Mennucci, H. P. Hratchian, 
 J. V. Ortiz, A. F. Izmaylov, J. L. Sonnenberg, D. Williams-Young, 
 F. Ding, F. Lipparini, F. Egidi, J. Goings, B. Peng, A. Petrone, 
 T. Henderson, D. Ranasinghe, V. G. Zakrzewski, J. Gao, N. Rega, 
 G. Zheng, W. Liang, M. Hada, M. Ehara, K. Toyota, R. Fukuda, 
 J. Hasegawa, M. Ishida, T. Nakajima, Y. Honda, O. Kitao, H. Nakai, 
 T. Vreven, K. Throssell, J. A. Montgomery, Jr., J. E. Peralta, 
 F. Ogliaro, M. J. Bearpark, J. J. Heyd, E. N. Brothers, K. N. Kudin, 
 V. N. Staroverov, T. A. Keith, R. Kobayashi, J. Normand, 
 K. Raghavachari, A. P. Rendell, J. C. Burant, S. S. Iyengar, 
 J. Tomasi, M. Cossi, J. M. Millam, M. Klene, C. Adamo, R. Cammi, 
 J. W. Ochterski, R. L. Martin, K. Morokuma, O. Farkas, 
 J. B. Foresman, and D. J. Fox, Gaussian, Inc., Wallingford CT, 2019.
 
 ******************************************
 Gaussian 16:  ES64L-G16RevC.01  3-Jul-2019
                 9-Apr-2025 
 ******************************************
 %nprocs=16
 Will use up to   16 processors via shared memory.
 %mem=30GB
 %chk=E2SN2_299_mol2.chk
 ----------------------------------------------------------------------
 #t hf aug-cc-pvdz iop(5/13=1,5/36=2,99/5=2) pseudo=read geom=check gue
 ss=(read,tcheck) scf=(maxcycle=1)
 ----------------------------------------------------------------------
 -----
 title
 -----
 Structure from the checkpoint file:  "E2SN2_299_mol2.chk"
 Charge = -1 Multiplicity = 1
 Z-Matrix found in chk file.
 C,0,0.07569,0.063663,0.028695
 C,0,-0.415404,0.049101,-1.410647
 F,0,1.469654,-0.202147,0.022405
 H,0,0.177254,0.78679,-1.960903
 H,0,-1.462482,0.363545,-1.409276
 C,0,0.003272,1.447081,0.58238
 N,0,-0.063914,2.530974,1.030665
 N,0,-0.578062,-0.90229,0.814698
 H,0,-0.555118,-0.684792,1.800824
 H,0,-1.54683,-1.063876,0.510031
 C,0,-0.29618,-1.333616,-2.0428
 H,0,-1.033073,-2.008463,-1.610321
 H,0,-0.492609,-1.264988,-3.116315
 H,0,0.705484,-1.742456,-1.895867
 Cl,0,-3.601195,-1.228781,-0.280919
 Recover connectivity data from disk.
                    Distance matrix (angstroms):
                    1          2          3          4          5
     1  C    0.000000
     2  C    1.520885   0.000000
     3  F    1.419095   2.381220   0.000000
     4  H    2.119370   1.094628   2.565503   0.000000
     5  H    2.126890   1.093275   3.311667   1.781057   0.000000
     6  C    1.491864   2.470181   2.276796   2.633352   2.699848
     7  N    2.666656   3.499035   3.292168   3.471285   3.550641
     8  N    1.406505   2.425647   2.304576   3.335784   2.707508
     9  H    2.024486   3.297221   2.737777   4.105181   3.496722
    10  H    2.033617   2.491555   3.174828   3.535950   2.393404
    11  C    2.526216   1.525037   2.943376   2.174159   2.154523
    12  H    2.865211   2.157534   3.491735   3.066144   2.418932
    13  H    3.461122   2.154552   3.851191   2.448160   2.550834
    14  H    2.713419   2.168295   2.576097   2.584636   3.061387
    15  Cl   3.909700   3.613659   5.182614   4.600168   2.895304
                    6          7          8          9         10
     6  C    0.000000
     7  N    1.174861   0.000000
     8  N    2.431350   3.478260   0.000000
     9  H    2.518191   3.342989   1.010087   0.000000
    10  H    2.951772   3.923397   1.028321   1.671330   0.000000
    11  C    3.835820   4.943196   2.903583   3.906593   2.855491
    12  H    4.221698   5.340465   2.703955   3.690048   2.377411
    13  H    4.613194   5.638311   3.948635   4.951645   3.781827
    14  H    4.099751   5.236293   3.114568   4.046393   3.364779
    15  Cl   4.571401   5.326196   3.232075   3.729365   2.207535
                   11         12         13         14         15
    11  C    0.000000
    12  H    1.088792   0.000000
    13  H    1.093494   1.764334   0.000000
    14  H    1.091820   1.781818   1.775640   0.000000
    15  Cl   3.746777   2.995073   4.207623   4.628110   0.000000
 Framework group  C1[X(C4H7ClFN2)]
 Deg. of freedom    39
                         Standard orientation:                         
 ---------------------------------------------------------------------
 Center     Atomic      Atomic             Coordinates (Angstroms)
 Number     Number       Type             X           Y           Z
 ---------------------------------------------------------------------
      1          6           0       -0.975798    0.093569    0.216869
      2          6           0       -0.300953    0.851298   -0.916057
      3          9           0       -2.034401    0.896151    0.715922
      4          1           0       -1.074312    1.080691   -1.655993
      5          1           0        0.438429    0.185454   -1.369064
      6          6           0       -1.688899   -1.102642   -0.318128
      7          7           0       -2.241185   -2.054543   -0.729422
      8          7           0       -0.078856   -0.194496    1.261269
      9          1           0       -0.375427   -0.977182    1.826711
     10          1           0        0.880248   -0.345493    0.922502
     11          6           0        0.385380    2.122128   -0.426490
     12          1           0        1.271355    1.870022    0.153990
     13          1           0        0.704645    2.720930   -1.283949
     14          1           0       -0.294460    2.719848    0.183936
     15         17           0        2.851825   -0.668381   -0.016560
 ---------------------------------------------------------------------
 Rotational constants (GHZ):           2.0033586           0.9185145           0.7484170
 ======================================================================================================
                                       Pseudopotential Parameters
 ======================================================================================================
  Center     Atomic      Valence      Angular      Power
  Number     Number     Electrons     Momentum     of R      Exponent        Coefficient   SO-Coeffient
 ======================================================================================================
    1          6            6
                                      G and up 
                                                     0        0.0000010       -0.00007288    0.00000000
                                                     2        0.1200000        0.10466671    0.00000000
                                                     2        0.1400000       -0.65716157    0.00000000
                                                     2        0.1600000        1.18890794    0.00000000
                                                     2        0.2000000       -1.25772850    0.00000000
                                                     2        0.2600000        1.01188378    0.00000000
                                                     2        0.4000000       -1.09380874    0.00000000
                                                     2        0.5000000        0.96944888    0.00000000
                                                     2        1.0000000       -0.79256938    0.00000000
                                                     2        3.0000000        1.06443276    0.00000000
                                      S - G
                                                     0        0.0000010       -0.00635295    0.00000000
                                                     2        0.1200000        0.16918955    0.00000000
                                                     2        0.1600000       -0.38862576    0.00000000
                                                     2        0.2800000        0.25638263    0.00000000
                                                     2        0.5000000        0.29628419    0.00000000
                                                     2        0.9000000       -0.28791512    0.00000000
                                      P - G
                                                     0        0.0000010       -0.04756931    0.00000000
                                                     2        0.1200000        0.28430375    0.00000000
                                                     2        0.1600000       -0.69640032    0.00000000
                                                     2        0.2600000        1.13005668    0.00000000
                                                     2        0.4000000       -1.31433324    0.00000000
                                                     2        0.7000000        0.91526469    0.00000000
                                      D - G
                                                     0        0.0000010       -0.11496411    0.00000000
                                                     2        0.1200000        0.16620776    0.00000000
                                                     2        0.1800000       -0.30959819    0.00000000
                                                     2        0.3000000        0.16621458    0.00000000
                                                     2        0.6000000        0.27350556    0.00000000
                                      F - G
                                                     0        0.0000010        0.12037550    0.00000000
                                                     2        0.1200000       -0.48737077    0.00000000
                                                     2        0.1400000        0.58315350    0.00000000
                                                     2        0.3000000        0.00005188    0.00000000
                                                     2        0.5000000       -1.16063549    0.00000000
                                                     2        0.8000000        2.09053308    0.00000000
    2          6            6
                                      G and up 
                                                     0        0.0000010       -0.00007288    0.00000000
                                                     2        0.1200000        0.10466671    0.00000000
                                                     2        0.1400000       -0.65716157    0.00000000
                                                     2        0.1600000        1.18890794    0.00000000
                                                     2        0.2000000       -1.25772850    0.00000000
                                                     2        0.2600000        1.01188378    0.00000000
                                                     2        0.4000000       -1.09380874    0.00000000
                                                     2        0.5000000        0.96944888    0.00000000
                                                     2        1.0000000       -0.79256938    0.00000000
                                                     2        3.0000000        1.06443276    0.00000000
                                      S - G
                                                     0        0.0000010       -0.00635295    0.00000000
                                                     2        0.1200000        0.16918955    0.00000000
                                                     2        0.1600000       -0.38862576    0.00000000
                                                     2        0.2800000        0.25638263    0.00000000
                                                     2        0.5000000        0.29628419    0.00000000
                                                     2        0.9000000       -0.28791512    0.00000000
                                      P - G
                                                     0        0.0000010       -0.04756931    0.00000000
                                                     2        0.1200000        0.28430375    0.00000000
                                                     2        0.1600000       -0.69640032    0.00000000
                                                     2        0.2600000        1.13005668    0.00000000
                                                     2        0.4000000       -1.31433324    0.00000000
                                                     2        0.7000000        0.91526469    0.00000000
                                      D - G
                                                     0        0.0000010       -0.11496411    0.00000000
                                                     2        0.1200000        0.16620776    0.00000000
                                                     2        0.1800000       -0.30959819    0.00000000
                                                     2        0.3000000        0.16621458    0.00000000
                                                     2        0.6000000        0.27350556    0.00000000
                                      F - G
                                                     0        0.0000010        0.12037550    0.00000000
                                                     2        0.1200000       -0.48737077    0.00000000
                                                     2        0.1400000        0.58315350    0.00000000
                                                     2        0.3000000        0.00005188    0.00000000
                                                     2        0.5000000       -1.16063549    0.00000000
                                                     2        0.8000000        2.09053308    0.00000000
    3          9            9
                                      G and up 
                                                     0        0.0000010        0.00055569    0.00000000
                                                     2        0.1200000       -0.17741904    0.00000000
                                                     2        0.1400000        1.01928615    0.00000000
                                                     2        0.1600000       -1.52148367    0.00000000
                                                     2        0.2200000        1.83718211    0.00000000
                                                     2        0.3000000       -2.87348318    0.00000000
                                                     2        0.4000000        2.99646231    0.00000000
                                                     2        0.6000000       -2.11894556    0.00000000
                                                     2        1.3000000        1.79216257    0.00000000
                                      S - G
                                                     0        0.0000010       -0.00623030    0.00000000
                                                     2        0.1200000        0.13717684    0.00000000
                                                     2        0.2200000       -0.32899255    0.00000000
                                      P - G
                                                     0        0.0000010       -0.03918431    0.00000000
                                                     2        0.1200000       -0.03806127    0.00000000
                                                     2        0.3000000        0.26895041    0.00000000
                                                     2        0.8000000       -0.57822379    0.00000000
                                      D - G
                                                     0        0.0000010        0.21590327    0.00000000
                                                     2        0.1200000       -0.34443966    0.00000000
                                                     2        0.1600000        0.69000806    0.00000000
                                                     2        0.2600000       -0.73210453    0.00000000
                                      F - G
                                                     0        0.0000010       -0.14642430    0.00000000
                                                     2        0.1200000        0.06245232    0.00000000
                                                     2        0.2800000       -0.60801466    0.00000000
                                                     2        0.5000000        2.37940491    0.00000000
    4          1            1
                                      F and up 
                                                     0        0.0000010       -0.00007675    0.00000000
                                                     2        0.1200000        0.05352699    0.00000000
                                                     2        0.1400000       -0.25123645    0.00000000
                                                     2        0.1600000        0.32188106    0.00000000
                                                     2        0.2200000       -0.25206857    0.00000000
                                                     2        0.3000000        0.19290477    0.00000000
                                                     2        0.5000000       -0.10129770    0.00000000
                                                     2        0.9000000        0.00314995    0.00000000
                                                     2        1.5000000        0.18401192    0.00000000
                                      S - F
                                                     0        0.0000010        0.08065976    0.00000000
                                                     2        0.1200000       -0.09231673    0.00000000
                                                     2        0.1600000       -0.03278082    0.00000000
                                                     2        0.2800000        0.38423402    0.00000000
                                                     2        0.6000000       -1.09357590    0.00000000
                                                     2        1.1000000        1.53099489    0.00000000
                                                     2        3.0000000       -2.63300202    0.00000000
                                      P - F
                                                     0        0.0000010       -0.11638665    0.00000000
                                                     2        0.1200000        0.35468655    0.00000000
                                                     2        0.1600000       -0.59160923    0.00000000
                                                     2        0.3000000        0.49390547    0.00000000
                                                     2        0.6000000       -0.37949835    0.00000000
                                                     2        1.6000000        0.89304688    0.00000000
                                      D - F
                                                     0        0.0000010        0.05443663    0.00000000
                                                     2        0.1200000       -0.29679479    0.00000000
                                                     2        0.1400000        0.36849872    0.00000000
                                                     2        0.2400000        0.02793449    0.00000000
                                                     2        0.4000000       -0.46312857    0.00000000
                                                     2        0.7000000        0.97587598    0.00000000
                                                     2        1.5000000       -2.43431102    0.00000000
    5          1            1
                                      F and up 
                                                     0        0.0000010       -0.00007675    0.00000000
                                                     2        0.1200000        0.05352699    0.00000000
                                                     2        0.1400000       -0.25123645    0.00000000
                                                     2        0.1600000        0.32188106    0.00000000
                                                     2        0.2200000       -0.25206857    0.00000000
                                                     2        0.3000000        0.19290477    0.00000000
                                                     2        0.5000000       -0.10129770    0.00000000
                                                     2        0.9000000        0.00314995    0.00000000
                                                     2        1.5000000        0.18401192    0.00000000
                                      S - F
                                                     0        0.0000010        0.08065976    0.00000000
                                                     2        0.1200000       -0.09231673    0.00000000
                                                     2        0.1600000       -0.03278082    0.00000000
                                                     2        0.2800000        0.38423402    0.00000000
                                                     2        0.6000000       -1.09357590    0.00000000
                                                     2        1.1000000        1.53099489    0.00000000
                                                     2        3.0000000       -2.63300202    0.00000000
                                      P - F
                                                     0        0.0000010       -0.11638665    0.00000000
                                                     2        0.1200000        0.35468655    0.00000000
                                                     2        0.1600000       -0.59160923    0.00000000
                                                     2        0.3000000        0.49390547    0.00000000
                                                     2        0.6000000       -0.37949835    0.00000000
                                                     2        1.6000000        0.89304688    0.00000000
                                      D - F
                                                     0        0.0000010        0.05443663    0.00000000
                                                     2        0.1200000       -0.29679479    0.00000000
                                                     2        0.1400000        0.36849872    0.00000000
                                                     2        0.2400000        0.02793449    0.00000000
                                                     2        0.4000000       -0.46312857    0.00000000
                                                     2        0.7000000        0.97587598    0.00000000
                                                     2        1.5000000       -2.43431102    0.00000000
    6          6            6
                                      G and up 
                                                     0        0.0000010       -0.00007288    0.00000000
                                                     2        0.1200000        0.10466671    0.00000000
                                                     2        0.1400000       -0.65716157    0.00000000
                                                     2        0.1600000        1.18890794    0.00000000
                                                     2        0.2000000       -1.25772850    0.00000000
                                                     2        0.2600000        1.01188378    0.00000000
                                                     2        0.4000000       -1.09380874    0.00000000
                                                     2        0.5000000        0.96944888    0.00000000
                                                     2        1.0000000       -0.79256938    0.00000000
                                                     2        3.0000000        1.06443276    0.00000000
                                      S - G
                                                     0        0.0000010       -0.00635295    0.00000000
                                                     2        0.1200000        0.16918955    0.00000000
                                                     2        0.1600000       -0.38862576    0.00000000
                                                     2        0.2800000        0.25638263    0.00000000
                                                     2        0.5000000        0.29628419    0.00000000
                                                     2        0.9000000       -0.28791512    0.00000000
                                      P - G
                                                     0        0.0000010       -0.04756931    0.00000000
                                                     2        0.1200000        0.28430375    0.00000000
                                                     2        0.1600000       -0.69640032    0.00000000
                                                     2        0.2600000        1.13005668    0.00000000
                                                     2        0.4000000       -1.31433324    0.00000000
                                                     2        0.7000000        0.91526469    0.00000000
                                      D - G
                                                     0        0.0000010       -0.11496411    0.00000000
                                                     2        0.1200000        0.16620776    0.00000000
                                                     2        0.1800000       -0.30959819    0.00000000
                                                     2        0.3000000        0.16621458    0.00000000
                                                     2        0.6000000        0.27350556    0.00000000
                                      F - G
                                                     0        0.0000010        0.12037550    0.00000000
                                                     2        0.1200000       -0.48737077    0.00000000
                                                     2        0.1400000        0.58315350    0.00000000
                                                     2        0.3000000        0.00005188    0.00000000
                                                     2        0.5000000       -1.16063549    0.00000000
                                                     2        0.8000000        2.09053308    0.00000000
    7          7            7
                                      G and up 
                                                     0        0.0000010       -0.00039818    0.00000000
                                                     2        0.1200000       -0.37616123    0.00000000
                                                     2        0.1400000        2.13837358    0.00000000
                                                     2        0.1600000       -3.36562035    0.00000000
                                                     2        0.2000000        2.53463289    0.00000000
                                                     2        0.3000000       -1.98118833    0.00000000
                                                     2        0.5000000        4.06642919    0.00000000
                                                     2        0.7000000       -6.15327959    0.00000000
                                                     2        1.2000000       10.22492851    0.00000000
                                                     2        2.0000000      -14.94707511    0.00000000
                                      S - G
                                                     0        0.0000010        0.02721443    0.00000000
                                                     2        0.1200000       -0.60186009    0.00000000
                                                     2        0.1600000        1.10088134    0.00000000
                                                     2        0.2600000       -0.59857981    0.00000000
                                                     2        0.6000000        0.21288222    0.00000000
                                                     2        3.0000000        5.09059205    0.00000000
                                      P - G
                                                     0        0.0000010        0.40558062    0.00000000
                                                     2        0.1200000        0.81809854    0.00000000
                                                     2        0.1600000       -2.44952728    0.00000000
                                                     2        0.2800000        4.16638749    0.00000000
                                                     2        0.5000000       -6.02944147    0.00000000
                                                     2        1.1000000        5.78262914    0.00000000
                                      D - G
                                                     0        0.0000010       -0.62770267    0.00000000
                                                     2        0.1600000        0.91438653    0.00000000
                                                     2        0.2600000       -2.00568466    0.00000000
                                                     2        0.5000000        3.30798839    0.00000000
                                                     2        1.1000000       -3.91526108    0.00000000
                                      F - G
                                                     0        0.0000010        0.29726344    0.00000000
                                                     2        0.1200000       -0.41591527    0.00000000
                                                     2        0.1600000        0.51444439    0.00000000
                                                     2        0.4000000       -0.69401726    0.00000000
                                                     2        0.7000000        0.51478123    0.00000000
    8          7            7
                                      G and up 
                                                     0        0.0000010       -0.00039818    0.00000000
                                                     2        0.1200000       -0.37616123    0.00000000
                                                     2        0.1400000        2.13837358    0.00000000
                                                     2        0.1600000       -3.36562035    0.00000000
                                                     2        0.2000000        2.53463289    0.00000000
                                                     2        0.3000000       -1.98118833    0.00000000
                                                     2        0.5000000        4.06642919    0.00000000
                                                     2        0.7000000       -6.15327959    0.00000000
                                                     2        1.2000000       10.22492851    0.00000000
                                                     2        2.0000000      -14.94707511    0.00000000
                                      S - G
                                                     0        0.0000010        0.02721443    0.00000000
                                                     2        0.1200000       -0.60186009    0.00000000
                                                     2        0.1600000        1.10088134    0.00000000
                                                     2        0.2600000       -0.59857981    0.00000000
                                                     2        0.6000000        0.21288222    0.00000000
                                                     2        3.0000000        5.09059205    0.00000000
                                      P - G
                                                     0        0.0000010        0.40558062    0.00000000
                                                     2        0.1200000        0.81809854    0.00000000
                                                     2        0.1600000       -2.44952728    0.00000000
                                                     2        0.2800000        4.16638749    0.00000000
                                                     2        0.5000000       -6.02944147    0.00000000
                                                     2        1.1000000        5.78262914    0.00000000
                                      D - G
                                                     0        0.0000010       -0.62770267    0.00000000
                                                     2        0.1600000        0.91438653    0.00000000
                                                     2        0.2600000       -2.00568466    0.00000000
                                                     2        0.5000000        3.30798839    0.00000000
                                                     2        1.1000000       -3.91526108    0.00000000
                                      F - G
                                                     0        0.0000010        0.29726344    0.00000000
                                                     2        0.1200000       -0.41591527    0.00000000
                                                     2        0.1600000        0.51444439    0.00000000
                                                     2        0.4000000       -0.69401726    0.00000000
                                                     2        0.7000000        0.51478123    0.00000000
    9          1            1
                                      F and up 
                                                     0        0.0000010       -0.00007675    0.00000000
                                                     2        0.1200000        0.05352699    0.00000000
                                                     2        0.1400000       -0.25123645    0.00000000
                                                     2        0.1600000        0.32188106    0.00000000
                                                     2        0.2200000       -0.25206857    0.00000000
                                                     2        0.3000000        0.19290477    0.00000000
                                                     2        0.5000000       -0.10129770    0.00000000
                                                     2        0.9000000        0.00314995    0.00000000
                                                     2        1.5000000        0.18401192    0.00000000
                                      S - F
                                                     0        0.0000010        0.08065976    0.00000000
                                                     2        0.1200000       -0.09231673    0.00000000
                                                     2        0.1600000       -0.03278082    0.00000000
                                                     2        0.2800000        0.38423402    0.00000000
                                                     2        0.6000000       -1.09357590    0.00000000
                                                     2        1.1000000        1.53099489    0.00000000
                                                     2        3.0000000       -2.63300202    0.00000000
                                      P - F
                                                     0        0.0000010       -0.11638665    0.00000000
                                                     2        0.1200000        0.35468655    0.00000000
                                                     2        0.1600000       -0.59160923    0.00000000
                                                     2        0.3000000        0.49390547    0.00000000
                                                     2        0.6000000       -0.37949835    0.00000000
                                                     2        1.6000000        0.89304688    0.00000000
                                      D - F
                                                     0        0.0000010        0.05443663    0.00000000
                                                     2        0.1200000       -0.29679479    0.00000000
                                                     2        0.1400000        0.36849872    0.00000000
                                                     2        0.2400000        0.02793449    0.00000000
                                                     2        0.4000000       -0.46312857    0.00000000
                                                     2        0.7000000        0.97587598    0.00000000
                                                     2        1.5000000       -2.43431102    0.00000000
   10          1            1
                                      F and up 
                                                     0        0.0000010       -0.00007675    0.00000000
                                                     2        0.1200000        0.05352699    0.00000000
                                                     2        0.1400000       -0.25123645    0.00000000
                                                     2        0.1600000        0.32188106    0.00000000
                                                     2        0.2200000       -0.25206857    0.00000000
                                                     2        0.3000000        0.19290477    0.00000000
                                                     2        0.5000000       -0.10129770    0.00000000
                                                     2        0.9000000        0.00314995    0.00000000
                                                     2        1.5000000        0.18401192    0.00000000
                                      S - F
                                                     0        0.0000010        0.08065976    0.00000000
                                                     2        0.1200000       -0.09231673    0.00000000
                                                     2        0.1600000       -0.03278082    0.00000000
                                                     2        0.2800000        0.38423402    0.00000000
                                                     2        0.6000000       -1.09357590    0.00000000
                                                     2        1.1000000        1.53099489    0.00000000
                                                     2        3.0000000       -2.63300202    0.00000000
                                      P - F
                                                     0        0.0000010       -0.11638665    0.00000000
                                                     2        0.1200000        0.35468655    0.00000000
                                                     2        0.1600000       -0.59160923    0.00000000
                                                     2        0.3000000        0.49390547    0.00000000
                                                     2        0.6000000       -0.37949835    0.00000000
                                                     2        1.6000000        0.89304688    0.00000000
                                      D - F
                                                     0        0.0000010        0.05443663    0.00000000
                                                     2        0.1200000       -0.29679479    0.00000000
                                                     2        0.1400000        0.36849872    0.00000000
                                                     2        0.2400000        0.02793449    0.00000000
                                                     2        0.4000000       -0.46312857    0.00000000
                                                     2        0.7000000        0.97587598    0.00000000
                                                     2        1.5000000       -2.43431102    0.00000000
   11          6            6
                                      G and up 
                                                     0        0.0000010       -0.00007288    0.00000000
                                                     2        0.1200000        0.10466671    0.00000000
                                                     2        0.1400000       -0.65716157    0.00000000
                                                     2        0.1600000        1.18890794    0.00000000
                                                     2        0.2000000       -1.25772850    0.00000000
                                                     2        0.2600000        1.01188378    0.00000000
                                                     2        0.4000000       -1.09380874    0.00000000
                                                     2        0.5000000        0.96944888    0.00000000
                                                     2        1.0000000       -0.79256938    0.00000000
                                                     2        3.0000000        1.06443276    0.00000000
                                      S - G
                                                     0        0.0000010       -0.00635295    0.00000000
                                                     2        0.1200000        0.16918955    0.00000000
                                                     2        0.1600000       -0.38862576    0.00000000
                                                     2        0.2800000        0.25638263    0.00000000
                                                     2        0.5000000        0.29628419    0.00000000
                                                     2        0.9000000       -0.28791512    0.00000000
                                      P - G
                                                     0        0.0000010       -0.04756931    0.00000000
                                                     2        0.1200000        0.28430375    0.00000000
                                                     2        0.1600000       -0.69640032    0.00000000
                                                     2        0.2600000        1.13005668    0.00000000
                                                     2        0.4000000       -1.31433324    0.00000000
                                                     2        0.7000000        0.91526469    0.00000000
                                      D - G
                                                     0        0.0000010       -0.11496411    0.00000000
                                                     2        0.1200000        0.16620776    0.00000000
                                                     2        0.1800000       -0.30959819    0.00000000
                                                     2        0.3000000        0.16621458    0.00000000
                                                     2        0.6000000        0.27350556    0.00000000
                                      F - G
                                                     0        0.0000010        0.12037550    0.00000000
                                                     2        0.1200000       -0.48737077    0.00000000
                                                     2        0.1400000        0.58315350    0.00000000
                                                     2        0.3000000        0.00005188    0.00000000
                                                     2        0.5000000       -1.16063549    0.00000000
                                                     2        0.8000000        2.09053308    0.00000000
   12          1            1
                                      F and up 
                                                     0        0.0000010       -0.00007675    0.00000000
                                                     2        0.1200000        0.05352699    0.00000000
                                                     2        0.1400000       -0.25123645    0.00000000
                                                     2        0.1600000        0.32188106    0.00000000
                                                     2        0.2200000       -0.25206857    0.00000000
                                                     2        0.3000000        0.19290477    0.00000000
                                                     2        0.5000000       -0.10129770    0.00000000
                                                     2        0.9000000        0.00314995    0.00000000
                                                     2        1.5000000        0.18401192    0.00000000
                                      S - F
                                                     0        0.0000010        0.08065976    0.00000000
                                                     2        0.1200000       -0.09231673    0.00000000
                                                     2        0.1600000       -0.03278082    0.00000000
                                                     2        0.2800000        0.38423402    0.00000000
                                                     2        0.6000000       -1.09357590    0.00000000
                                                     2        1.1000000        1.53099489    0.00000000
                                                     2        3.0000000       -2.63300202    0.00000000
                                      P - F
                                                     0        0.0000010       -0.11638665    0.00000000
                                                     2        0.1200000        0.35468655    0.00000000
                                                     2        0.1600000       -0.59160923    0.00000000
                                                     2        0.3000000        0.49390547    0.00000000
                                                     2        0.6000000       -0.37949835    0.00000000
                                                     2        1.6000000        0.89304688    0.00000000
                                      D - F
                                                     0        0.0000010        0.05443663    0.00000000
                                                     2        0.1200000       -0.29679479    0.00000000
                                                     2        0.1400000        0.36849872    0.00000000
                                                     2        0.2400000        0.02793449    0.00000000
                                                     2        0.4000000       -0.46312857    0.00000000
                                                     2        0.7000000        0.97587598    0.00000000
                                                     2        1.5000000       -2.43431102    0.00000000
   13          1            1
                                      F and up 
                                                     0        0.0000010       -0.00007675    0.00000000
                                                     2        0.1200000        0.05352699    0.00000000
                                                     2        0.1400000       -0.25123645    0.00000000
                                                     2        0.1600000        0.32188106    0.00000000
                                                     2        0.2200000       -0.25206857    0.00000000
                                                     2        0.3000000        0.19290477    0.00000000
                                                     2        0.5000000       -0.10129770    0.00000000
                                                     2        0.9000000        0.00314995    0.00000000
                                                     2        1.5000000        0.18401192    0.00000000
                                      S - F
                                                     0        0.0000010        0.08065976    0.00000000
                                                     2        0.1200000       -0.09231673    0.00000000
                                                     2        0.1600000       -0.03278082    0.00000000
                                                     2        0.2800000        0.38423402    0.00000000
                                                     2        0.6000000       -1.09357590    0.00000000
                                                     2        1.1000000        1.53099489    0.00000000
                                                     2        3.0000000       -2.63300202    0.00000000
                                      P - F
                                                     0        0.0000010       -0.11638665    0.00000000
                                                     2        0.1200000        0.35468655    0.00000000
                                                     2        0.1600000       -0.59160923    0.00000000
                                                     2        0.3000000        0.49390547    0.00000000
                                                     2        0.6000000       -0.37949835    0.00000000
                                                     2        1.6000000        0.89304688    0.00000000
                                      D - F
                                                     0        0.0000010        0.05443663    0.00000000
                                                     2        0.1200000       -0.29679479    0.00000000
                                                     2        0.1400000        0.36849872    0.00000000
                                                     2        0.2400000        0.02793449    0.00000000
                                                     2        0.4000000       -0.46312857    0.00000000
                                                     2        0.7000000        0.97587598    0.00000000
                                                     2        1.5000000       -2.43431102    0.00000000
   14          1            1
                                      F and up 
                                                     0        0.0000010       -0.00007675    0.00000000
                                                     2        0.1200000        0.05352699    0.00000000
                                                     2        0.1400000       -0.25123645    0.00000000
                                                     2        0.1600000        0.32188106    0.00000000
                                                     2        0.2200000       -0.25206857    0.00000000
                                                     2        0.3000000        0.19290477    0.00000000
                                                     2        0.5000000       -0.10129770    0.00000000
                                                     2        0.9000000        0.00314995    0.00000000
                                                     2        1.5000000        0.18401192    0.00000000
                                      S - F
                                                     0        0.0000010        0.08065976    0.00000000
                                                     2        0.1200000       -0.09231673    0.00000000
                                                     2        0.1600000       -0.03278082    0.00000000
                                                     2        0.2800000        0.38423402    0.00000000
                                                     2        0.6000000       -1.09357590    0.00000000
                                                     2        1.1000000        1.53099489    0.00000000
                                                     2        3.0000000       -2.63300202    0.00000000
                                      P - F
                                                     0        0.0000010       -0.11638665    0.00000000
                                                     2        0.1200000        0.35468655    0.00000000
                                                     2        0.1600000       -0.59160923    0.00000000
                                                     2        0.3000000        0.49390547    0.00000000
                                                     2        0.6000000       -0.37949835    0.00000000
                                                     2        1.6000000        0.89304688    0.00000000
                                      D - F
                                                     0        0.0000010        0.05443663    0.00000000
                                                     2        0.1200000       -0.29679479    0.00000000
                                                     2        0.1400000        0.36849872    0.00000000
                                                     2        0.2400000        0.02793449    0.00000000
                                                     2        0.4000000       -0.46312857    0.00000000
                                                     2        0.7000000        0.97587598    0.00000000
                                                     2        1.5000000       -2.43431102    0.00000000
   15         17           17
                                      G and up 
                                                     0        0.0000010        0.00010715    0.00000000
                                                     2        0.1200000       -0.00076261    0.00000000
                                                     2        0.1600000        0.04395058    0.00000000
                                                     2        0.2000000       -0.10504698    0.00000000
                                                     2        0.2800000        0.13950130    0.00000000
                                                     2        0.4000000       -0.12623641    0.00000000
                                                     2        0.7000000       -0.42143984    0.00000000
                                      S - G
                                                     0        0.0000010       -0.00139392    0.00000000
                                                     2        0.1200000       -0.01887585    0.00000000
                                                     2        0.4000000        0.46511854    0.00000000
                                      P - G
                                                     0        0.0000010        0.03235088    0.00000000
                                                     2        0.1200000        0.42220750    0.00000000
                                                     2        0.1600000       -1.02263661    0.00000000
                                                     2        0.2600000        0.81322107    0.00000000
                                      D - G
                                                     0        0.0000010       -0.08073759    0.00000000
                                                     2        0.1200000       -0.02872770    0.00000000
                                                     2        0.2000000        0.11554000    0.00000000
                                      F - G
                                                     0        0.0000010        0.04269408    0.00000000
                                                     2        0.1200000       -0.09796467    0.00000000
                                                     2        0.2000000        0.26850099    0.00000000
 ======================================================================================================
   251 basis functions,   459 primitive gaussians,   267 cartesian basis functions
    36 alpha electrons       36 beta electrons
       nuclear repulsion energy       421.8205643632 Hartrees.
 NAtoms=   15 NActive=   15 NUniq=   15 SFac= 1.00D+00 NAtFMM=   60 NAOKFM=F Big=F
   1 Symmetry operations used in ECPInt.
 ECPInt:  NShTT=    5995 NPrTT=   32589 LenC2=    5955 LenP2D=   23355.
 LDataN:  DoStor=T MaxTD1= 6 Len=  172
 Initial guess from the checkpoint file:  "E2SN2_299_mol2.chk"
 B after Tr=    -1.653424    0.215642    0.416863
         Rot=   -0.269748    0.017738   -0.378082    0.885424 Ang= 211.30 deg.
 >>>>>>>>>> Convergence criterion not met.
 SCF Done:  E(RHF) =  -823.956079232     A.U. after    2 cycles
            NFock=  1  Conv=0.26D-01     -V/T= 2.0024

 **********************************************************************

            Population analysis using the SCF Density.

 **********************************************************************

 Orbital symmetries:
       Occupied  (A) (A) (A) (A) (A) (A) (A) (A) (A) (A) (A) (A)
                 (A) (A) (A) (A) (A) (A) (A) (A) (A) (A) (A) (A)
                 (A) (A) (A) (A) (A) (A) (A) (A) (A) (A) (A) (A)
       Virtual   (A) (A) (A) (A) (A) (A) (A) (A) (A) (A) (A) (A)
                 (A) (A) (A) (A) (A) (A) (A) (A) (A) (A) (A) (A)
                 (A) (A) (A) (A) (A) (A) (A) (A) (A) (A) (A) (A)
                 (A) (A) (A) (A) (A) (A) (A) (A) (A) (A) (A) (A)
                 (A) (A) (A) (A) (A) (A) (A) (A) (A) (A) (A) (A)
                 (A) (A) (A) (A) (A) (A) (A) (A) (A) (A) (A) (A)
                 (A) (A) (A) (A) (A) (A) (A) (A) (A) (A) (A) (A)
                 (A) (A) (A) (A) (A) (A) (A) (A) (A) (A) (A) (A)
                 (A) (A) (A) (A) (A) (A) (A) (A) (A) (A) (A) (A)
                 (A) (A) (A) (A) (A) (A) (A) (A) (A) (A) (A) (A)
                 (A) (A) (A) (A) (A) (A) (A) (A) (A) (A) (A) (A)
                 (A) (A) (A) (A) (A) (A) (A) (A) (A) (A) (A) (A)
                 (A) (A) (A) (A) (A) (A) (A) (A) (A) (A) (A) (A)
                 (A) (A) (A) (A) (A) (A) (A) (A) (A) (A) (A) (A)
                 (A) (A) (A) (A) (A) (A) (A) (A) (A) (A) (A) (A)
                 (A) (A) (A) (A) (A) (A) (A) (A) (A) (A) (A) (A)
                 (A) (A) (A) (A) (A) (A) (A) (A) (A) (A) (A) (A)
                 (A) (A) (A) (A) (A) (A) (A) (A) (A) (A) (A)
 The electronic state is 1-A.
 Alpha  occ. eigenvalues -- -105.28502 -26.34189 -15.41873 -15.37419 -11.27882
 Alpha  occ. eigenvalues --  -11.18317 -11.12947 -11.10977 -10.33098  -7.49872
 Alpha  occ. eigenvalues --   -7.49831  -7.49823  -1.46530  -1.12520  -1.09478
 Alpha  occ. eigenvalues --   -0.94411  -0.84406  -0.74102  -0.72812  -0.66554
 Alpha  occ. eigenvalues --   -0.60457  -0.59389  -0.53666  -0.51591  -0.48854
 Alpha  occ. eigenvalues --   -0.47728  -0.46162  -0.42944  -0.40214  -0.39807
 Alpha  occ. eigenvalues --   -0.38941  -0.37844  -0.34308  -0.21446  -0.20853
 Alpha  occ. eigenvalues --   -0.20753
 Alpha virt. eigenvalues --    0.12145   0.13381   0.13716   0.14643   0.17084
 Alpha virt. eigenvalues --    0.17747   0.18364   0.19743   0.20278   0.22391
 Alpha virt. eigenvalues --    0.23094   0.23285   0.24580   0.25200   0.25573
 Alpha virt. eigenvalues --    0.26131   0.26461   0.27092   0.27752   0.28195
 Alpha virt. eigenvalues --    0.29688   0.30496   0.31264   0.31953   0.32905
 Alpha virt. eigenvalues --    0.34348   0.34752   0.34956   0.36524   0.36869
 Alpha virt. eigenvalues --    0.37791   0.38554   0.39850   0.40804   0.41544
 Alpha virt. eigenvalues --    0.43139   0.44961   0.45537   0.46350   0.47317
 Alpha virt. eigenvalues --    0.48213   0.49054   0.49257   0.50196   0.51135
 Alpha virt. eigenvalues --    0.52565   0.52697   0.54248   0.55000   0.55471
 Alpha virt. eigenvalues --    0.56930   0.57788   0.58481   0.59625   0.61227
 Alpha virt. eigenvalues --    0.61626   0.62820   0.64126   0.64792   0.65691
 Alpha virt. eigenvalues --    0.65939   0.67452   0.68347   0.69239   0.69423
 Alpha virt. eigenvalues --    0.71053   0.71209   0.72824   0.73940   0.74386
 Alpha virt. eigenvalues --    0.75504   0.76842   0.77426   0.78873   0.79785
 Alpha virt. eigenvalues --    0.81256   0.81569   0.82570   0.83353   0.84804
 Alpha virt. eigenvalues --    0.85208   0.85869   0.87913   0.88396   0.89879
 Alpha virt. eigenvalues --    0.90962   0.91296   0.92243   0.94539   0.95033
 Alpha virt. eigenvalues --    0.96236   0.97646   0.99066   1.01232   1.01779
 Alpha virt. eigenvalues --    1.03368   1.03962   1.05583   1.06328   1.07246
 Alpha virt. eigenvalues --    1.10198   1.11499   1.14192   1.14712   1.17216
 Alpha virt. eigenvalues --    1.18552   1.19401   1.23063   1.24228   1.24796
 Alpha virt. eigenvalues --    1.26249   1.27897   1.29172   1.32028   1.33271
 Alpha virt. eigenvalues --    1.33897   1.35394   1.38742   1.39389   1.41876
 Alpha virt. eigenvalues --    1.43528   1.47609   1.49275   1.51699   1.55980
 Alpha virt. eigenvalues --    1.58375   1.58801   1.60918   1.62325   1.62634
 Alpha virt. eigenvalues --    1.65180   1.66466   1.68665   1.70183   1.72731
 Alpha virt. eigenvalues --    1.73620   1.74490   1.77336   1.79253   1.79359
 Alpha virt. eigenvalues --    1.82228   1.82939   1.86169   1.87387   1.90511
 Alpha virt. eigenvalues --    1.91072   1.91925   1.94112   1.95617   1.96801
 Alpha virt. eigenvalues --    1.99593   2.03927   2.05332   2.05725   2.08090
 Alpha virt. eigenvalues --    2.08524   2.12299   2.12894   2.17310   2.20207
 Alpha virt. eigenvalues --    2.23960   2.24599   2.26771   2.28427   2.30183
 Alpha virt. eigenvalues --    2.31064   2.31934   2.33170   2.34883   2.37603
 Alpha virt. eigenvalues --    2.38743   2.41586   2.42800   2.44847   2.46139
 Alpha virt. eigenvalues --    2.49195   2.51773   2.53111   2.54185   2.57649
 Alpha virt. eigenvalues --    2.59457   2.63238   2.67787   2.69157   2.71622
 Alpha virt. eigenvalues --    2.73339   2.75050   2.78854   2.81759   2.85507
 Alpha virt. eigenvalues --    2.86473   2.91180   2.92171   2.96449   2.99168
 Alpha virt. eigenvalues --    3.01272   3.07664   3.10767   3.15163   3.19005
 Alpha virt. eigenvalues --    3.25315   3.29149   3.29814   3.35595   3.44437
 Alpha virt. eigenvalues --    3.62057   3.64026   3.66692   3.74618   4.07384
 Alpha virt. eigenvalues --    5.43550   5.47104   5.51684   5.51958   5.56622
          Condensed to atoms (all electrons):
 Mulliken charges:
               1
     1  C    1.171776
     2  C   -0.245057
     3  F   -0.979577
     4  H    0.078837
     5  H    0.230723
     6  C   -2.225344
     7  N    0.978168
     8  N    0.386929
     9  H    0.247180
    10  H    0.120710
    11  C   -0.292938
    12  H    0.213126
    13  H    0.100182
    14  H    0.183428
    15  Cl  -0.968144
 Sum of Mulliken charges =  -1.00000
 Mulliken charges with hydrogens summed into heavy atoms:
               1
     1  C    1.171776
     2  C    0.064503
     3  F   -0.979577
     6  C   -2.225344
     7  N    0.978168
     8  N    0.754819
    11  C    0.203798
    15  Cl  -0.968144
 Electronic spatial extent (au):  <R**2>=           1532.7177
 Charge=             -1.0000 electrons
 Dipole moment (field-independent basis, Debye):
    X=             -6.6503    Y=              4.3589    Z=              0.2197  Tot=              7.9546

 Test job not archived.
 1\1\GINC-SE398\SP\RHF\Aug-CC-pVDZ\C4H7Cl1F1N2(1-)\OHZDE\09-Apr-2025\0\
 \#t hf aug-cc-pvdz iop(5/13=1,5/36=2,99/5=2) pseudo=read geom=check gu
 ess=(read,tcheck) scf=(maxcycle=1)\\title\\-1,1\C,0,0.07569,0.063663,0
 .028695\C,0,-0.415404,0.049101,-1.410647\F,0,1.469654,-0.202147,0.0224
 05\H,0,0.177254,0.78679,-1.960903\H,0,-1.462482,0.363545,-1.409276\C,0
 ,0.003272,1.447081,0.58238\N,0,-0.063914,2.530974,1.030665\N,0,-0.5780
 62,-0.90229,0.814698\H,0,-0.555118,-0.684792,1.800824\H,0,-1.54683,-1.
 063876,0.510031\C,0,-0.29618,-1.333616,-2.0428\H,0,-1.033073,-2.008463
 ,-1.610321\H,0,-0.492609,-1.264988,-3.116315\H,0,0.705484,-1.742456,-1
 .895867\Cl,0,-3.601195,-1.228781,-0.280919\\Version=ES64L-G16RevC.01\S
 tate=1-A\HF=-823.9560792\RMSD=2.556e-02\Dipole=3.0505635,0.2527987,-0.
 6514217\Quadrupole=-13.8050643,-1.0008907,14.805955,-9.8400162,-2.0529
 477,-5.1522768\PG=C01 [X(C4H7Cl1F1N2)]\\@


 THE MOST BEAUTIFUL EXPERIENCE WE CAN HAVE IS THE MYSTERIOUS.
 IT IS THE FUNDAMENTAL EMOTION WHICH STANDS AT AT THE CRADLE 
 OF TRUE ART AND TRUE SCIENCE.

                                    -- ALBERT EINSTEIN
 Job cpu time:       0 days  0 hours  1 minutes 18.6 seconds.
 Elapsed time:       0 days  0 hours  0 minutes  5.8 seconds.
 File lengths (MBytes):  RWF=     14 Int=      0 D2E=      0 Chk=      9 Scr=      1
 Normal termination of Gaussian 16 at Wed Apr  9 02:51:21 2025.
