 Entering Gaussian System, Link 0=g16
 Input=Grambow2020_wb97xd3_006110_reverse_mol1.gjf
 Output=Grambow2020_wb97xd3_006110_reverse_mol1.log
 Initial command:
 /arc/software/Gaussian/g16.c01/l1.exe "/tmp/slurm/4877836/Gau-3693852.inp" -scrdir="/tmp/slurm/4877836/"
 Entering Link 1 = /arc/software/Gaussian/g16.c01/l1.exe PID=   3693853.
  
 Copyright (c) 1988-2019, Gaussian, Inc.  All Rights Reserved.
  
 This is part of the Gaussian(R) 16 program.  It is based on
 the Gaussian(R) 09 system (copyright 2009, Gaussian, Inc.),
 the Gaussian(R) 03 system (copyright 2003, Gaussian, Inc.),
 the Gaussian(R) 98 system (copyright 1998, Gaussian, Inc.),
 the Gaussian(R) 94 system (copyright 1995, Gaussian, Inc.),
 the Gaussian 92(TM) system (copyright 1992, Gaussian, Inc.),
 the Gaussian 90(TM) system (copyright 1990, Gaussian, Inc.),
 the Gaussian 88(TM) system (copyright 1988, Gaussian, Inc.),
 the Gaussian 86(TM) system (copyright 1986, Carnegie Mellon
 University), and the Gaussian 82(TM) system (copyright 1983,
 Carnegie Mellon University). Gaussian is a federally registered
 trademark of Gaussian, Inc.
  
 This software contains proprietary and confidential information,
 including trade secrets, belonging to Gaussian, Inc.
  
 This software is provided under written license and may be
 used, copied, transmitted, or stored only in accord with that
 written license.
  
 The following legend is applicable only to US Government
 contracts under FAR:
  
                    RESTRICTED RIGHTS LEGEND
  
 Use, reproduction and disclosure by the US Government is
 subject to restrictions as set forth in subparagraphs (a)
 and (c) of the Commercial Computer Software - Restricted
 Rights clause in FAR 52.227-19.
  
 Gaussian, Inc.
 340 Quinnipiac St., Bldg. 40, Wallingford CT 06492
  
  
 ---------------------------------------------------------------
 Warning -- This program may not be used in any manner that
 competes with the business of Gaussian, Inc. or will provide
 assistance to any competitor of Gaussian, Inc.  The licensee
 of this program is prohibited from giving any competitor of
 Gaussian, Inc. access to this program.  By using this program,
 the user acknowledges that Gaussian, Inc. is engaged in the
 business of creating and licensing software in the field of
 computational chemistry and represents and warrants to the
 licensee that it is not a competitor of Gaussian, Inc. and that
 it will not use this program in any manner prohibited above.
 ---------------------------------------------------------------
  

 Cite this work as:
 Gaussian 16, Revision C.01,
 M. J. Frisch, G. W. Trucks, H. B. Schlegel, G. E. Scuseria, 
 M. A. Robb, J. R. Cheeseman, G. Scalmani, V. Barone, 
 G. A. Petersson, H. Nakatsuji, X. Li, M. Caricato, A. V. Marenich, 
 J. Bloino, B. G. Janesko, R. Gomperts, B. Mennucci, H. P. Hratchian, 
 J. V. Ortiz, A. F. Izmaylov, J. L. Sonnenberg, D. Williams-Young, 
 F. Ding, F. Lipparini, F. Egidi, J. Goings, B. Peng, A. Petrone, 
 T. Henderson, D. Ranasinghe, V. G. Zakrzewski, J. Gao, N. Rega, 
 G. Zheng, W. Liang, M. Hada, M. Ehara, K. Toyota, R. Fukuda, 
 J. Hasegawa, M. Ishida, T. Nakajima, Y. Honda, O. Kitao, H. Nakai, 
 T. Vreven, K. Throssell, J. A. Montgomery, Jr., J. E. Peralta, 
 F. Ogliaro, M. J. Bearpark, J. J. Heyd, E. N. Brothers, K. N. Kudin, 
 V. N. Staroverov, T. A. Keith, R. Kobayashi, J. Normand, 
 K. Raghavachari, A. P. Rendell, J. C. Burant, S. S. Iyengar, 
 J. Tomasi, M. Cossi, J. M. Millam, M. Klene, C. Adamo, R. Cammi, 
 J. W. Ochterski, R. L. Martin, K. Morokuma, O. Farkas, 
 J. B. Foresman, and D. J. Fox, Gaussian, Inc., Wallingford CT, 2019.
 
 ******************************************
 Gaussian 16:  ES64L-G16RevC.01  3-Jul-2019
                 9-Apr-2025 
 ******************************************
 %nprocs=16
 Will use up to   16 processors via shared memory.
 %mem=30GB
 %chk=Grambow2020_wb97xd3_006110_reverse_mol1.chk
 ----------------------------------------------------------------------
 #t hf aug-cc-pvdz symm=none int=(grid=ultrafine) guess=(read,tcheck) s
 table=(opt,rrhf)
 ----------------------------------------------------------------------
 -----
 title
 -----
 Symbolic Z-matrix:
 Charge =  0 Multiplicity = 1
 C                    -0.4916   -1.72895  -0.29574 
 C                    -0.44363   1.81628   0.18218 
 N                     0.34825   0.83128   0.15716 
 C                     1.17331  -0.14108   0.138 
 O                     0.72368  -1.41306  -0.09126 
 H                    -0.68083  -2.77818  -0.46123 
 H                    -1.25376  -0.96069  -0.29569 
 H                    -1.5197    1.69118   0.02251 
 H                    -0.09352   2.83686   0.36414 
 H                     2.24541  -0.15519   0.2787 
 
                    Distance matrix (angstroms):
                    1          2          3          4          5
     1  C    0.000000
     2  C    3.577610   0.000000
     3  N    2.732258   1.264085   0.000000
     4  C    2.341236   2.539230   1.275375   0.000000
     5  O    1.272206   3.444701   2.289043   1.368450   0.000000
     6  H    1.078923   4.645342   3.803890   3.278898   1.993253
     7  H    1.082171   2.931927   2.445947   2.598173   2.038794
     8  H    3.585462   1.095025   2.060778   3.259271   3.831711
     9  H    4.630389   1.094204   2.064062   3.244093   4.351669
    10  H    3.209039   3.335705   2.141756   1.081384   2.008673
                    6          7          8          9         10
     6  H    0.000000
     7  H    1.912826   0.000000
     8  H    4.573058   2.684100   0.000000
     9  H    5.705681   4.025285   1.860993   0.000000
    10  H    3.998801   3.636334   4.201286   3.798720   0.000000
 Symmetry turned off by external request.
 Rotational constants (GHZ):          13.9230720           3.6497385           2.8917158
   160 basis functions,   270 primitive gaussians,   170 cartesian basis functions
    19 alpha electrons       19 beta electrons
       nuclear repulsion energy       164.8274549311 Hartrees.
 NAtoms=   10 NActive=   10 NUniq=   10 SFac= 1.00D+00 NAtFMM=   60 NAOKFM=F Big=F
 ExpMin= 2.97D-02 ExpMax= 1.17D+04 ExpMxC= 4.01D+02 IAcc=3 IRadAn=         5 AccDes= 0.00D+00
 Harris functional with IExCor=  205 and IRadAn=       5 diagonalized for initial guess.
 HarFok:  IExCor=  205 AccDes= 0.00D+00 IRadAn=         5 IDoV= 1 UseB2=F ITyADJ=14
 ICtDFT=  3500011 ScaDFX=  1.000000  1.000000  1.000000  1.000000
 FoFCou: FMM=F IPFlag=           0 FMFlag=      100000 FMFlg1=           0
         NFxFlg=           0 DoJE=T BraDBF=F KetDBF=T FulRan=T
         wScrn=  0.000000 ICntrl=       500 IOpCl=  0 I1Cent=   200000004 NGrid=           0
         NMat0=    1 NMatS0=      1 NMatT0=    0 NMatD0=    1 NMtDS0=    0 NMtDT0=    0
 Symmetry not used in FoFCou.
 SCF Done:  E(RHF) =  -245.655641055     A.U. after   16 cycles
            NFock= 16  Conv=0.23D-08     -V/T= 2.0012

 **********************************************************************

            Population analysis using the SCF Density.

 **********************************************************************

 Alpha  occ. eigenvalues --  -20.70381 -15.56247 -11.34602 -11.30336 -11.26627
 Alpha  occ. eigenvalues --   -1.51784  -1.23126  -1.03364  -0.93186  -0.79524
 Alpha  occ. eigenvalues --   -0.75861  -0.70332  -0.65699  -0.64191  -0.59831
 Alpha  occ. eigenvalues --   -0.56649  -0.48501  -0.36007  -0.23958
 Alpha virt. eigenvalues --    0.03148   0.03163   0.04589   0.04863   0.06315
 Alpha virt. eigenvalues --    0.08005   0.08319   0.10770   0.12079   0.13946
 Alpha virt. eigenvalues --    0.14224   0.14606   0.15700   0.16021   0.17336
 Alpha virt. eigenvalues --    0.17500   0.19179   0.21597   0.24257   0.25633
 Alpha virt. eigenvalues --    0.26301   0.28427   0.28935   0.29546   0.30302
 Alpha virt. eigenvalues --    0.31827   0.33205   0.34159   0.35334   0.36586
 Alpha virt. eigenvalues --    0.38294   0.40262   0.40553   0.43536   0.44838
 Alpha virt. eigenvalues --    0.45259   0.45849   0.46935   0.47811   0.50018
 Alpha virt. eigenvalues --    0.53818   0.54034   0.54414   0.55318   0.58017
 Alpha virt. eigenvalues --    0.58269   0.59883   0.61552   0.63156   0.63687
 Alpha virt. eigenvalues --    0.64438   0.65471   0.66946   0.67907   0.68430
 Alpha virt. eigenvalues --    0.69048   0.70601   0.72264   0.73641   0.75837
 Alpha virt. eigenvalues --    0.78086   0.78145   0.79085   0.80737   0.81429
 Alpha virt. eigenvalues --    0.83330   0.90480   0.90958   0.93832   0.99205
 Alpha virt. eigenvalues --    0.99327   1.02716   1.07338   1.07955   1.08282
 Alpha virt. eigenvalues --    1.16321   1.20465   1.21308   1.27443   1.28533
 Alpha virt. eigenvalues --    1.29150   1.33374   1.33767   1.37943   1.45246
 Alpha virt. eigenvalues --    1.52658   1.57089   1.59602   1.59827   1.62337
 Alpha virt. eigenvalues --    1.65237   1.66120   1.67079   1.72278   1.74782
 Alpha virt. eigenvalues --    1.77973   1.82449   1.83671   1.86332   1.88056
 Alpha virt. eigenvalues --    1.89190   1.95017   2.00107   2.02275   2.05442
 Alpha virt. eigenvalues --    2.07962   2.09827   2.11680   2.16443   2.19885
 Alpha virt. eigenvalues --    2.20823   2.21292   2.26032   2.28647   2.33650
 Alpha virt. eigenvalues --    2.35224   2.38970   2.41528   2.44948   2.51621
 Alpha virt. eigenvalues --    2.55269   2.61642   2.72095   2.74600   2.81686
 Alpha virt. eigenvalues --    2.86099   2.91348   2.96109   3.07245   3.08695
 Alpha virt. eigenvalues --    3.13707   3.26084   3.29378   3.46411   3.66064
 Alpha virt. eigenvalues --    3.66787   3.73774   3.84810   3.99933   4.03747
 Alpha virt. eigenvalues --    4.13382
          Condensed to atoms (all electrons):
 Mulliken charges:
               1
     1  C    0.766870
     2  C    0.578994
     3  N   -0.305273
     4  C    0.713006
     5  O   -0.447995
     6  H   -0.262394
     7  H   -0.138599
     8  H   -0.271616
     9  H   -0.270536
    10  H   -0.362455
 Sum of Mulliken charges =  -0.00000
 Mulliken charges with hydrogens summed into heavy atoms:
               1
     1  C    0.365877
     2  C    0.036842
     3  N   -0.305273
     4  C    0.350550
     5  O   -0.447995
 Electronic spatial extent (au):  <R**2>=            441.9505
 Charge=             -0.0000 electrons
 Dipole moment (field-independent basis, Debye):
    X=             -1.1837    Y=             -1.9850    Z=             -0.4237  Tot=              2.3496
 NROrb=    160 NOA=    19 NOB=    19 NVA=   141 NVB=   141

 **** Warning!!: The largest alpha MO coefficient is  0.30650382D+02

    12 initial guesses have been made.
 Iteration     1 Dimension    12 NMult     0 NNew     12
 New state      1 was old state      3
 Iteration     2 Dimension    24 NMult    12 NNew     12
 New state      1 was old state      4
 Iteration     3 Dimension    27 NMult    24 NNew      3
 Iteration     4 Dimension    30 NMult    27 NNew      3
 Iteration     5 Dimension    33 NMult    30 NNew      3
 Iteration     6 Dimension    36 NMult    33 NNew      3
 Iteration     7 Dimension    39 NMult    36 NNew      3
 ***********************************************************************
 Stability analysis using <AA,BB:AA,BB> singles matrix:
 ***********************************************************************
 Ground to excited state transition densities written to RWF  633

 Eigenvectors of the stability matrix:
 
 Excited state symmetry could not be determined.
 Eigenvector   1:      Singlet-?Sym  Eigenvalue= 0.1211339  <S**2>=0.000
      19 -> 20         0.66457
 The wavefunction is stable under the perturbations considered.
 The wavefunction is already stable.

 **********************************************************************

            Population analysis using the SCF Density.

 **********************************************************************

 Alpha  occ. eigenvalues --  -20.70381 -15.56247 -11.34602 -11.30336 -11.26627
 Alpha  occ. eigenvalues --   -1.51784  -1.23126  -1.03364  -0.93186  -0.79524
 Alpha  occ. eigenvalues --   -0.75861  -0.70332  -0.65699  -0.64191  -0.59831
 Alpha  occ. eigenvalues --   -0.56649  -0.48501  -0.36007  -0.23958
 Alpha virt. eigenvalues --    0.03148   0.03163   0.04589   0.04863   0.06315
 Alpha virt. eigenvalues --    0.08005   0.08319   0.10770   0.12079   0.13946
 Alpha virt. eigenvalues --    0.14224   0.14606   0.15700   0.16021   0.17336
 Alpha virt. eigenvalues --    0.17500   0.19179   0.21597   0.24257   0.25633
 Alpha virt. eigenvalues --    0.26301   0.28427   0.28935   0.29546   0.30302
 Alpha virt. eigenvalues --    0.31827   0.33205   0.34159   0.35334   0.36586
 Alpha virt. eigenvalues --    0.38294   0.40262   0.40553   0.43536   0.44838
 Alpha virt. eigenvalues --    0.45259   0.45849   0.46935   0.47811   0.50018
 Alpha virt. eigenvalues --    0.53818   0.54034   0.54414   0.55318   0.58017
 Alpha virt. eigenvalues --    0.58269   0.59883   0.61552   0.63156   0.63687
 Alpha virt. eigenvalues --    0.64438   0.65471   0.66946   0.67907   0.68430
 Alpha virt. eigenvalues --    0.69048   0.70601   0.72264   0.73641   0.75837
 Alpha virt. eigenvalues --    0.78086   0.78145   0.79085   0.80737   0.81429
 Alpha virt. eigenvalues --    0.83330   0.90480   0.90958   0.93832   0.99205
 Alpha virt. eigenvalues --    0.99327   1.02716   1.07338   1.07955   1.08282
 Alpha virt. eigenvalues --    1.16321   1.20465   1.21308   1.27443   1.28533
 Alpha virt. eigenvalues --    1.29150   1.33374   1.33767   1.37943   1.45246
 Alpha virt. eigenvalues --    1.52658   1.57089   1.59602   1.59827   1.62337
 Alpha virt. eigenvalues --    1.65237   1.66120   1.67079   1.72278   1.74782
 Alpha virt. eigenvalues --    1.77973   1.82449   1.83671   1.86332   1.88056
 Alpha virt. eigenvalues --    1.89190   1.95017   2.00107   2.02275   2.05442
 Alpha virt. eigenvalues --    2.07962   2.09827   2.11680   2.16443   2.19885
 Alpha virt. eigenvalues --    2.20823   2.21292   2.26032   2.28647   2.33650
 Alpha virt. eigenvalues --    2.35224   2.38970   2.41528   2.44948   2.51621
 Alpha virt. eigenvalues --    2.55269   2.61642   2.72095   2.74600   2.81686
 Alpha virt. eigenvalues --    2.86099   2.91348   2.96109   3.07245   3.08695
 Alpha virt. eigenvalues --    3.13707   3.26084   3.29378   3.46411   3.66064
 Alpha virt. eigenvalues --    3.66787   3.73774   3.84810   3.99933   4.03747
 Alpha virt. eigenvalues --    4.13382
          Condensed to atoms (all electrons):
 Mulliken charges:
               1
     1  C    0.766870
     2  C    0.578994
     3  N   -0.305273
     4  C    0.713006
     5  O   -0.447995
     6  H   -0.262394
     7  H   -0.138599
     8  H   -0.271616
     9  H   -0.270536
    10  H   -0.362455
 Sum of Mulliken charges =  -0.00000
 Mulliken charges with hydrogens summed into heavy atoms:
               1
     1  C    0.365877
     2  C    0.036842
     3  N   -0.305273
     4  C    0.350550
     5  O   -0.447995
 Electronic spatial extent (au):  <R**2>=            441.9505
 Charge=             -0.0000 electrons
 Dipole moment (field-independent basis, Debye):
    X=             -1.1837    Y=             -1.9850    Z=             -0.4237  Tot=              2.3496
 Unable to Open any file for archive entry.
 1\1\GINC-SE168\Stability\RHF\Aug-CC-pVDZ\C3H5N1O1\OHZDE\09-Apr-2025\0\
 \#t hf aug-cc-pvdz symm=none int=(grid=ultrafine) guess=(read,tcheck) 
 stable=(opt,rrhf)\\title\\0,1\C,0,-0.49160289,-1.72894545,-0.29574027\
 C,0,-0.44362814,1.81627507,0.18217656\N,0,0.34825034,0.83128142,0.1571
 5915\C,0,1.17331189,-0.14108074,0.13800106\O,0,0.72367941,-1.41305818,
 -0.09125944\H,0,-0.68082703,-2.77817513,-0.46122713\H,0,-1.25375657,-0
 .96069002,-0.29568556\H,0,-1.51970283,1.69118099,0.02250823\H,0,-0.093
 52023,2.83686092,0.36414441\H,0,2.24541105,-0.15519086,0.27870099\\Ver
 sion=ES64L-G16RevC.01\HF=-245.6556411\RMSD=2.282e-09\Dipole=-0.4656886
 ,-0.7809643,-0.1666894\Quadrupole=0.697992,1.9670568,-2.6650488,1.3726
 339,0.656929,0.8274005\PG=Unknown\\@
 The archive entry for this job was punched.


 NECESSARY EVIL: ONE WE LIKE TOO MUCH TO RELINQUISH.
 Job cpu time:       0 days  0 hours  0 minutes 56.1 seconds.
 Elapsed time:       0 days  0 hours  0 minutes  7.3 seconds.
 File lengths (MBytes):  RWF=    136 Int=      0 D2E=      0 Chk=      4 Scr=      1
 Normal termination of Gaussian 16 at Wed Apr  9 16:28:39 2025.
 Initial command:
 /arc/software/Gaussian/g16.c01/l1.exe "/tmp/slurm/4877836/Gau-3693852.inp" -scrdir="/tmp/slurm/4877836/"
 Entering Link 1 = /arc/software/Gaussian/g16.c01/l1.exe PID=   3694064.
  
 Copyright (c) 1988-2019, Gaussian, Inc.  All Rights Reserved.
  
 This is part of the Gaussian(R) 16 program.  It is based on
 the Gaussian(R) 09 system (copyright 2009, Gaussian, Inc.),
 the Gaussian(R) 03 system (copyright 2003, Gaussian, Inc.),
 the Gaussian(R) 98 system (copyright 1998, Gaussian, Inc.),
 the Gaussian(R) 94 system (copyright 1995, Gaussian, Inc.),
 the Gaussian 92(TM) system (copyright 1992, Gaussian, Inc.),
 the Gaussian 90(TM) system (copyright 1990, Gaussian, Inc.),
 the Gaussian 88(TM) system (copyright 1988, Gaussian, Inc.),
 the Gaussian 86(TM) system (copyright 1986, Carnegie Mellon
 University), and the Gaussian 82(TM) system (copyright 1983,
 Carnegie Mellon University). Gaussian is a federally registered
 trademark of Gaussian, Inc.
  
 This software contains proprietary and confidential information,
 including trade secrets, belonging to Gaussian, Inc.
  
 This software is provided under written license and may be
 used, copied, transmitted, or stored only in accord with that
 written license.
  
 The following legend is applicable only to US Government
 contracts under FAR:
  
                    RESTRICTED RIGHTS LEGEND
  
 Use, reproduction and disclosure by the US Government is
 subject to restrictions as set forth in subparagraphs (a)
 and (c) of the Commercial Computer Software - Restricted
 Rights clause in FAR 52.227-19.
  
 Gaussian, Inc.
 340 Quinnipiac St., Bldg. 40, Wallingford CT 06492
  
  
 ---------------------------------------------------------------
 Warning -- This program may not be used in any manner that
 competes with the business of Gaussian, Inc. or will provide
 assistance to any competitor of Gaussian, Inc.  The licensee
 of this program is prohibited from giving any competitor of
 Gaussian, Inc. access to this program.  By using this program,
 the user acknowledges that Gaussian, Inc. is engaged in the
 business of creating and licensing software in the field of
 computational chemistry and represents and warrants to the
 licensee that it is not a competitor of Gaussian, Inc. and that
 it will not use this program in any manner prohibited above.
 ---------------------------------------------------------------
  

 Cite this work as:
 Gaussian 16, Revision C.01,
 M. J. Frisch, G. W. Trucks, H. B. Schlegel, G. E. Scuseria, 
 M. A. Robb, J. R. Cheeseman, G. Scalmani, V. Barone, 
 G. A. Petersson, H. Nakatsuji, X. Li, M. Caricato, A. V. Marenich, 
 J. Bloino, B. G. Janesko, R. Gomperts, B. Mennucci, H. P. Hratchian, 
 J. V. Ortiz, A. F. Izmaylov, J. L. Sonnenberg, D. Williams-Young, 
 F. Ding, F. Lipparini, F. Egidi, J. Goings, B. Peng, A. Petrone, 
 T. Henderson, D. Ranasinghe, V. G. Zakrzewski, J. Gao, N. Rega, 
 G. Zheng, W. Liang, M. Hada, M. Ehara, K. Toyota, R. Fukuda, 
 J. Hasegawa, M. Ishida, T. Nakajima, Y. Honda, O. Kitao, H. Nakai, 
 T. Vreven, K. Throssell, J. A. Montgomery, Jr., J. E. Peralta, 
 F. Ogliaro, M. J. Bearpark, J. J. Heyd, E. N. Brothers, K. N. Kudin, 
 V. N. Staroverov, T. A. Keith, R. Kobayashi, J. Normand, 
 K. Raghavachari, A. P. Rendell, J. C. Burant, S. S. Iyengar, 
 J. Tomasi, M. Cossi, J. M. Millam, M. Klene, C. Adamo, R. Cammi, 
 J. W. Ochterski, R. L. Martin, K. Morokuma, O. Farkas, 
 J. B. Foresman, and D. J. Fox, Gaussian, Inc., Wallingford CT, 2019.
 
 ******************************************
 Gaussian 16:  ES64L-G16RevC.01  3-Jul-2019
                 9-Apr-2025 
 ******************************************
 %nprocs=16
 Will use up to   16 processors via shared memory.
 %mem=30GB
 %chk=Grambow2020_wb97xd3_006110_reverse_mol1.chk
 ----------------------------------------------------------------------
 #t hf aug-cc-pvdz iop(5/13=1,5/36=2,99/5=2) pseudo=read geom=check gue
 ss=(read,tcheck) scf=(maxcycle=1)
 ----------------------------------------------------------------------
 -----
 title
 -----
 Structure from the checkpoint file:  "Grambow2020_wb97xd3_006110_reverse_mol1.chk"
 Charge =  0 Multiplicity = 1
 Z-Matrix found in chk file.
 C,0,-0.49160289,-1.72894545,-0.29574027
 C,0,-0.44362814,1.81627507,0.18217656
 N,0,0.34825034,0.83128142,0.15715915
 C,0,1.17331189,-0.14108074,0.13800106
 O,0,0.72367941,-1.41305818,-0.09125944
 H,0,-0.68082703,-2.77817513,-0.46122713
 H,0,-1.25375657,-0.96069002,-0.29568556
 H,0,-1.51970283,1.69118099,0.02250823
 H,0,-0.09352023,2.83686092,0.36414441
 H,0,2.24541105,-0.15519086,0.27870099
 Recover connectivity data from disk.
                    Distance matrix (angstroms):
                    1          2          3          4          5
     1  C    0.000000
     2  C    3.577610   0.000000
     3  N    2.732258   1.264085   0.000000
     4  C    2.341236   2.539230   1.275375   0.000000
     5  O    1.272206   3.444701   2.289043   1.368450   0.000000
     6  H    1.078923   4.645342   3.803890   3.278898   1.993253
     7  H    1.082171   2.931927   2.445947   2.598173   2.038794
     8  H    3.585462   1.095025   2.060778   3.259271   3.831711
     9  H    4.630389   1.094204   2.064062   3.244093   4.351669
    10  H    3.209039   3.335705   2.141756   1.081384   2.008673
                    6          7          8          9         10
     6  H    0.000000
     7  H    1.912826   0.000000
     8  H    4.573058   2.684100   0.000000
     9  H    5.705681   4.025285   1.860993   0.000000
    10  H    3.998801   3.636334   4.201286   3.798720   0.000000
 Framework group  C1[X(C3H5NO)]
 Deg. of freedom    24
                         Standard orientation:                         
 ---------------------------------------------------------------------
 Center     Atomic      Atomic             Coordinates (Angstroms)
 Number     Number       Type             X           Y           Z
 ---------------------------------------------------------------------
      1          6           0       -1.540168   -0.874748   -0.000008
      2          6           0        2.014668   -0.471715    0.000083
      3          7           0        0.960561    0.225973   -0.000118
      4          6           0       -0.083635    0.958255   -0.000068
      5          8           0       -1.323372    0.378850   -0.000088
      6          1           0       -2.577875   -1.170111    0.000613
      7          1           0       -0.706096   -1.564253    0.000294
      8          1           0        1.978004   -1.566125   -0.000655
      9          1           0        3.010199   -0.017621    0.000647
     10          1           0       -0.186371    2.034748    0.000591
 ---------------------------------------------------------------------
 Rotational constants (GHZ):          13.9230720           3.6497385           2.8917158
 ======================================================================================================
                                       Pseudopotential Parameters
 ======================================================================================================
  Center     Atomic      Valence      Angular      Power
  Number     Number     Electrons     Momentum     of R      Exponent        Coefficient   SO-Coeffient
 ======================================================================================================
    1          6            6
                                      G and up 
                                                     0        0.0000010       -0.00007288    0.00000000
                                                     2        0.1200000        0.10466671    0.00000000
                                                     2        0.1400000       -0.65716157    0.00000000
                                                     2        0.1600000        1.18890794    0.00000000
                                                     2        0.2000000       -1.25772850    0.00000000
                                                     2        0.2600000        1.01188378    0.00000000
                                                     2        0.4000000       -1.09380874    0.00000000
                                                     2        0.5000000        0.96944888    0.00000000
                                                     2        1.0000000       -0.79256938    0.00000000
                                                     2        3.0000000        1.06443276    0.00000000
                                      S - G
                                                     0        0.0000010       -0.00635295    0.00000000
                                                     2        0.1200000        0.16918955    0.00000000
                                                     2        0.1600000       -0.38862576    0.00000000
                                                     2        0.2800000        0.25638263    0.00000000
                                                     2        0.5000000        0.29628419    0.00000000
                                                     2        0.9000000       -0.28791512    0.00000000
                                      P - G
                                                     0        0.0000010       -0.04756931    0.00000000
                                                     2        0.1200000        0.28430375    0.00000000
                                                     2        0.1600000       -0.69640032    0.00000000
                                                     2        0.2600000        1.13005668    0.00000000
                                                     2        0.4000000       -1.31433324    0.00000000
                                                     2        0.7000000        0.91526469    0.00000000
                                      D - G
                                                     0        0.0000010       -0.11496411    0.00000000
                                                     2        0.1200000        0.16620776    0.00000000
                                                     2        0.1800000       -0.30959819    0.00000000
                                                     2        0.3000000        0.16621458    0.00000000
                                                     2        0.6000000        0.27350556    0.00000000
                                      F - G
                                                     0        0.0000010        0.12037550    0.00000000
                                                     2        0.1200000       -0.48737077    0.00000000
                                                     2        0.1400000        0.58315350    0.00000000
                                                     2        0.3000000        0.00005188    0.00000000
                                                     2        0.5000000       -1.16063549    0.00000000
                                                     2        0.8000000        2.09053308    0.00000000
    2          6            6
                                      G and up 
                                                     0        0.0000010       -0.00007288    0.00000000
                                                     2        0.1200000        0.10466671    0.00000000
                                                     2        0.1400000       -0.65716157    0.00000000
                                                     2        0.1600000        1.18890794    0.00000000
                                                     2        0.2000000       -1.25772850    0.00000000
                                                     2        0.2600000        1.01188378    0.00000000
                                                     2        0.4000000       -1.09380874    0.00000000
                                                     2        0.5000000        0.96944888    0.00000000
                                                     2        1.0000000       -0.79256938    0.00000000
                                                     2        3.0000000        1.06443276    0.00000000
                                      S - G
                                                     0        0.0000010       -0.00635295    0.00000000
                                                     2        0.1200000        0.16918955    0.00000000
                                                     2        0.1600000       -0.38862576    0.00000000
                                                     2        0.2800000        0.25638263    0.00000000
                                                     2        0.5000000        0.29628419    0.00000000
                                                     2        0.9000000       -0.28791512    0.00000000
                                      P - G
                                                     0        0.0000010       -0.04756931    0.00000000
                                                     2        0.1200000        0.28430375    0.00000000
                                                     2        0.1600000       -0.69640032    0.00000000
                                                     2        0.2600000        1.13005668    0.00000000
                                                     2        0.4000000       -1.31433324    0.00000000
                                                     2        0.7000000        0.91526469    0.00000000
                                      D - G
                                                     0        0.0000010       -0.11496411    0.00000000
                                                     2        0.1200000        0.16620776    0.00000000
                                                     2        0.1800000       -0.30959819    0.00000000
                                                     2        0.3000000        0.16621458    0.00000000
                                                     2        0.6000000        0.27350556    0.00000000
                                      F - G
                                                     0        0.0000010        0.12037550    0.00000000
                                                     2        0.1200000       -0.48737077    0.00000000
                                                     2        0.1400000        0.58315350    0.00000000
                                                     2        0.3000000        0.00005188    0.00000000
                                                     2        0.5000000       -1.16063549    0.00000000
                                                     2        0.8000000        2.09053308    0.00000000
    3          7            7
                                      G and up 
                                                     0        0.0000010       -0.00039818    0.00000000
                                                     2        0.1200000       -0.37616123    0.00000000
                                                     2        0.1400000        2.13837358    0.00000000
                                                     2        0.1600000       -3.36562035    0.00000000
                                                     2        0.2000000        2.53463289    0.00000000
                                                     2        0.3000000       -1.98118833    0.00000000
                                                     2        0.5000000        4.06642919    0.00000000
                                                     2        0.7000000       -6.15327959    0.00000000
                                                     2        1.2000000       10.22492851    0.00000000
                                                     2        2.0000000      -14.94707511    0.00000000
                                      S - G
                                                     0        0.0000010        0.02721443    0.00000000
                                                     2        0.1200000       -0.60186009    0.00000000
                                                     2        0.1600000        1.10088134    0.00000000
                                                     2        0.2600000       -0.59857981    0.00000000
                                                     2        0.6000000        0.21288222    0.00000000
                                                     2        3.0000000        5.09059205    0.00000000
                                      P - G
                                                     0        0.0000010        0.40558062    0.00000000
                                                     2        0.1200000        0.81809854    0.00000000
                                                     2        0.1600000       -2.44952728    0.00000000
                                                     2        0.2800000        4.16638749    0.00000000
                                                     2        0.5000000       -6.02944147    0.00000000
                                                     2        1.1000000        5.78262914    0.00000000
                                      D - G
                                                     0        0.0000010       -0.62770267    0.00000000
                                                     2        0.1600000        0.91438653    0.00000000
                                                     2        0.2600000       -2.00568466    0.00000000
                                                     2        0.5000000        3.30798839    0.00000000
                                                     2        1.1000000       -3.91526108    0.00000000
                                      F - G
                                                     0        0.0000010        0.29726344    0.00000000
                                                     2        0.1200000       -0.41591527    0.00000000
                                                     2        0.1600000        0.51444439    0.00000000
                                                     2        0.4000000       -0.69401726    0.00000000
                                                     2        0.7000000        0.51478123    0.00000000
    4          6            6
                                      G and up 
                                                     0        0.0000010       -0.00007288    0.00000000
                                                     2        0.1200000        0.10466671    0.00000000
                                                     2        0.1400000       -0.65716157    0.00000000
                                                     2        0.1600000        1.18890794    0.00000000
                                                     2        0.2000000       -1.25772850    0.00000000
                                                     2        0.2600000        1.01188378    0.00000000
                                                     2        0.4000000       -1.09380874    0.00000000
                                                     2        0.5000000        0.96944888    0.00000000
                                                     2        1.0000000       -0.79256938    0.00000000
                                                     2        3.0000000        1.06443276    0.00000000
                                      S - G
                                                     0        0.0000010       -0.00635295    0.00000000
                                                     2        0.1200000        0.16918955    0.00000000
                                                     2        0.1600000       -0.38862576    0.00000000
                                                     2        0.2800000        0.25638263    0.00000000
                                                     2        0.5000000        0.29628419    0.00000000
                                                     2        0.9000000       -0.28791512    0.00000000
                                      P - G
                                                     0        0.0000010       -0.04756931    0.00000000
                                                     2        0.1200000        0.28430375    0.00000000
                                                     2        0.1600000       -0.69640032    0.00000000
                                                     2        0.2600000        1.13005668    0.00000000
                                                     2        0.4000000       -1.31433324    0.00000000
                                                     2        0.7000000        0.91526469    0.00000000
                                      D - G
                                                     0        0.0000010       -0.11496411    0.00000000
                                                     2        0.1200000        0.16620776    0.00000000
                                                     2        0.1800000       -0.30959819    0.00000000
                                                     2        0.3000000        0.16621458    0.00000000
                                                     2        0.6000000        0.27350556    0.00000000
                                      F - G
                                                     0        0.0000010        0.12037550    0.00000000
                                                     2        0.1200000       -0.48737077    0.00000000
                                                     2        0.1400000        0.58315350    0.00000000
                                                     2        0.3000000        0.00005188    0.00000000
                                                     2        0.5000000       -1.16063549    0.00000000
                                                     2        0.8000000        2.09053308    0.00000000
    5          8            8
                                      G and up 
                                                     0        0.0000010        0.00049668    0.00000000
                                                     2        0.1200000       -0.01803391    0.00000000
                                                     2        0.1400000        0.04014195    0.00000000
                                                     2        0.2000000       -0.02692147    0.00000000
                                                     2        0.2800000       -0.04241843    0.00000000
                                                     2        0.4000000        0.15412145    0.00000000
                                                     2        0.7000000       -0.40587006    0.00000000
                                                     2        1.1000000        1.75666647    0.00000000
                                      S - G
                                                     0        0.0000010       -0.01088195    0.00000000
                                                     2        0.1200000        0.09867335    0.00000000
                                                     2        0.2400000       -0.08484177    0.00000000
                                                     2        0.6000000       -1.39011554    0.00000000
                                                     2        2.5000000        1.36225910    0.00000000
                                      P - G
                                                     0        0.0000010        0.05874028    0.00000000
                                                     2        0.1200000       -0.11700340    0.00000000
                                                     2        0.1600000        0.08847775    0.00000000
                                                     2        0.3000000        0.04709907    0.00000000
                                                     2        1.2000000       -1.80388338    0.00000000
                                      D - G
                                                     0        0.0000010       -0.00541262    0.00000000
                                                     2        0.1200000       -0.26547906    0.00000000
                                                     2        0.1600000        1.04289661    0.00000000
                                                     2        0.2400000       -1.92800913    0.00000000
                                                     2        0.4000000        2.26691633    0.00000000
                                                     2        0.7000000       -1.97391482    0.00000000
                                      F - G
                                                     0        0.0000010       -0.02604870    0.00000000
                                                     2        0.1200000        0.37362552    0.00000000
                                                     2        0.1600000       -1.43526367    0.00000000
                                                     2        0.2200000        1.76778079    0.00000000
                                                     2        0.5000000       -1.90846303    0.00000000
    6          1            1
                                      F and up 
                                                     0        0.0000010       -0.00007675    0.00000000
                                                     2        0.1200000        0.05352699    0.00000000
                                                     2        0.1400000       -0.25123645    0.00000000
                                                     2        0.1600000        0.32188106    0.00000000
                                                     2        0.2200000       -0.25206857    0.00000000
                                                     2        0.3000000        0.19290477    0.00000000
                                                     2        0.5000000       -0.10129770    0.00000000
                                                     2        0.9000000        0.00314995    0.00000000
                                                     2        1.5000000        0.18401192    0.00000000
                                      S - F
                                                     0        0.0000010        0.08065976    0.00000000
                                                     2        0.1200000       -0.09231673    0.00000000
                                                     2        0.1600000       -0.03278082    0.00000000
                                                     2        0.2800000        0.38423402    0.00000000
                                                     2        0.6000000       -1.09357590    0.00000000
                                                     2        1.1000000        1.53099489    0.00000000
                                                     2        3.0000000       -2.63300202    0.00000000
                                      P - F
                                                     0        0.0000010       -0.11638665    0.00000000
                                                     2        0.1200000        0.35468655    0.00000000
                                                     2        0.1600000       -0.59160923    0.00000000
                                                     2        0.3000000        0.49390547    0.00000000
                                                     2        0.6000000       -0.37949835    0.00000000
                                                     2        1.6000000        0.89304688    0.00000000
                                      D - F
                                                     0        0.0000010        0.05443663    0.00000000
                                                     2        0.1200000       -0.29679479    0.00000000
                                                     2        0.1400000        0.36849872    0.00000000
                                                     2        0.2400000        0.02793449    0.00000000
                                                     2        0.4000000       -0.46312857    0.00000000
                                                     2        0.7000000        0.97587598    0.00000000
                                                     2        1.5000000       -2.43431102    0.00000000
    7          1            1
                                      F and up 
                                                     0        0.0000010       -0.00007675    0.00000000
                                                     2        0.1200000        0.05352699    0.00000000
                                                     2        0.1400000       -0.25123645    0.00000000
                                                     2        0.1600000        0.32188106    0.00000000
                                                     2        0.2200000       -0.25206857    0.00000000
                                                     2        0.3000000        0.19290477    0.00000000
                                                     2        0.5000000       -0.10129770    0.00000000
                                                     2        0.9000000        0.00314995    0.00000000
                                                     2        1.5000000        0.18401192    0.00000000
                                      S - F
                                                     0        0.0000010        0.08065976    0.00000000
                                                     2        0.1200000       -0.09231673    0.00000000
                                                     2        0.1600000       -0.03278082    0.00000000
                                                     2        0.2800000        0.38423402    0.00000000
                                                     2        0.6000000       -1.09357590    0.00000000
                                                     2        1.1000000        1.53099489    0.00000000
                                                     2        3.0000000       -2.63300202    0.00000000
                                      P - F
                                                     0        0.0000010       -0.11638665    0.00000000
                                                     2        0.1200000        0.35468655    0.00000000
                                                     2        0.1600000       -0.59160923    0.00000000
                                                     2        0.3000000        0.49390547    0.00000000
                                                     2        0.6000000       -0.37949835    0.00000000
                                                     2        1.6000000        0.89304688    0.00000000
                                      D - F
                                                     0        0.0000010        0.05443663    0.00000000
                                                     2        0.1200000       -0.29679479    0.00000000
                                                     2        0.1400000        0.36849872    0.00000000
                                                     2        0.2400000        0.02793449    0.00000000
                                                     2        0.4000000       -0.46312857    0.00000000
                                                     2        0.7000000        0.97587598    0.00000000
                                                     2        1.5000000       -2.43431102    0.00000000
    8          1            1
                                      F and up 
                                                     0        0.0000010       -0.00007675    0.00000000
                                                     2        0.1200000        0.05352699    0.00000000
                                                     2        0.1400000       -0.25123645    0.00000000
                                                     2        0.1600000        0.32188106    0.00000000
                                                     2        0.2200000       -0.25206857    0.00000000
                                                     2        0.3000000        0.19290477    0.00000000
                                                     2        0.5000000       -0.10129770    0.00000000
                                                     2        0.9000000        0.00314995    0.00000000
                                                     2        1.5000000        0.18401192    0.00000000
                                      S - F
                                                     0        0.0000010        0.08065976    0.00000000
                                                     2        0.1200000       -0.09231673    0.00000000
                                                     2        0.1600000       -0.03278082    0.00000000
                                                     2        0.2800000        0.38423402    0.00000000
                                                     2        0.6000000       -1.09357590    0.00000000
                                                     2        1.1000000        1.53099489    0.00000000
                                                     2        3.0000000       -2.63300202    0.00000000
                                      P - F
                                                     0        0.0000010       -0.11638665    0.00000000
                                                     2        0.1200000        0.35468655    0.00000000
                                                     2        0.1600000       -0.59160923    0.00000000
                                                     2        0.3000000        0.49390547    0.00000000
                                                     2        0.6000000       -0.37949835    0.00000000
                                                     2        1.6000000        0.89304688    0.00000000
                                      D - F
                                                     0        0.0000010        0.05443663    0.00000000
                                                     2        0.1200000       -0.29679479    0.00000000
                                                     2        0.1400000        0.36849872    0.00000000
                                                     2        0.2400000        0.02793449    0.00000000
                                                     2        0.4000000       -0.46312857    0.00000000
                                                     2        0.7000000        0.97587598    0.00000000
                                                     2        1.5000000       -2.43431102    0.00000000
    9          1            1
                                      F and up 
                                                     0        0.0000010       -0.00007675    0.00000000
                                                     2        0.1200000        0.05352699    0.00000000
                                                     2        0.1400000       -0.25123645    0.00000000
                                                     2        0.1600000        0.32188106    0.00000000
                                                     2        0.2200000       -0.25206857    0.00000000
                                                     2        0.3000000        0.19290477    0.00000000
                                                     2        0.5000000       -0.10129770    0.00000000
                                                     2        0.9000000        0.00314995    0.00000000
                                                     2        1.5000000        0.18401192    0.00000000
                                      S - F
                                                     0        0.0000010        0.08065976    0.00000000
                                                     2        0.1200000       -0.09231673    0.00000000
                                                     2        0.1600000       -0.03278082    0.00000000
                                                     2        0.2800000        0.38423402    0.00000000
                                                     2        0.6000000       -1.09357590    0.00000000
                                                     2        1.1000000        1.53099489    0.00000000
                                                     2        3.0000000       -2.63300202    0.00000000
                                      P - F
                                                     0        0.0000010       -0.11638665    0.00000000
                                                     2        0.1200000        0.35468655    0.00000000
                                                     2        0.1600000       -0.59160923    0.00000000
                                                     2        0.3000000        0.49390547    0.00000000
                                                     2        0.6000000       -0.37949835    0.00000000
                                                     2        1.6000000        0.89304688    0.00000000
                                      D - F
                                                     0        0.0000010        0.05443663    0.00000000
                                                     2        0.1200000       -0.29679479    0.00000000
                                                     2        0.1400000        0.36849872    0.00000000
                                                     2        0.2400000        0.02793449    0.00000000
                                                     2        0.4000000       -0.46312857    0.00000000
                                                     2        0.7000000        0.97587598    0.00000000
                                                     2        1.5000000       -2.43431102    0.00000000
   10          1            1
                                      F and up 
                                                     0        0.0000010       -0.00007675    0.00000000
                                                     2        0.1200000        0.05352699    0.00000000
                                                     2        0.1400000       -0.25123645    0.00000000
                                                     2        0.1600000        0.32188106    0.00000000
                                                     2        0.2200000       -0.25206857    0.00000000
                                                     2        0.3000000        0.19290477    0.00000000
                                                     2        0.5000000       -0.10129770    0.00000000
                                                     2        0.9000000        0.00314995    0.00000000
                                                     2        1.5000000        0.18401192    0.00000000
                                      S - F
                                                     0        0.0000010        0.08065976    0.00000000
                                                     2        0.1200000       -0.09231673    0.00000000
                                                     2        0.1600000       -0.03278082    0.00000000
                                                     2        0.2800000        0.38423402    0.00000000
                                                     2        0.6000000       -1.09357590    0.00000000
                                                     2        1.1000000        1.53099489    0.00000000
                                                     2        3.0000000       -2.63300202    0.00000000
                                      P - F
                                                     0        0.0000010       -0.11638665    0.00000000
                                                     2        0.1200000        0.35468655    0.00000000
                                                     2        0.1600000       -0.59160923    0.00000000
                                                     2        0.3000000        0.49390547    0.00000000
                                                     2        0.6000000       -0.37949835    0.00000000
                                                     2        1.6000000        0.89304688    0.00000000
                                      D - F
                                                     0        0.0000010        0.05443663    0.00000000
                                                     2        0.1200000       -0.29679479    0.00000000
                                                     2        0.1400000        0.36849872    0.00000000
                                                     2        0.2400000        0.02793449    0.00000000
                                                     2        0.4000000       -0.46312857    0.00000000
                                                     2        0.7000000        0.97587598    0.00000000
                                                     2        1.5000000       -2.43431102    0.00000000
 ======================================================================================================
   160 basis functions,   270 primitive gaussians,   170 cartesian basis functions
    19 alpha electrons       19 beta electrons
       nuclear repulsion energy       164.8274549311 Hartrees.
 NAtoms=   10 NActive=   10 NUniq=   10 SFac= 1.00D+00 NAtFMM=   60 NAOKFM=F Big=F
   1 Symmetry operations used in ECPInt.
 ECPInt:  NShTT=    2485 NPrTT=   11565 LenC2=    2484 LenP2D=    9401.
 LDataN:  DoStor=T MaxTD1= 6 Len=  172
 Initial guess from the checkpoint file:  "Grambow2020_wb97xd3_006110_reverse_mol1.chk"
 B after Tr=     0.292592   -0.391922   -0.000134
         Rot=    0.004421    0.671421    0.735212    0.092937 Ang= 179.49 deg.
 >>>>>>>>>> Convergence criterion not met.
 SCF Done:  E(RHF) =  -245.901959403     A.U. after    2 cycles
            NFock=  1  Conv=0.11D-01     -V/T= 2.0026

 **********************************************************************

            Population analysis using the SCF Density.

 **********************************************************************

 Orbital symmetries:
       Occupied  (A) (A) (A) (A) (A) (A) (A) (A) (A) (A) (A) (A)
                 (A) (A) (A) (A) (A) (A) (A)
       Virtual   (A) (A) (A) (A) (A) (A) (A) (A) (A) (A) (A) (A)
                 (A) (A) (A) (A) (A) (A) (A) (A) (A) (A) (A) (A)
                 (A) (A) (A) (A) (A) (A) (A) (A) (A) (A) (A) (A)
                 (A) (A) (A) (A) (A) (A) (A) (A) (A) (A) (A) (A)
                 (A) (A) (A) (A) (A) (A) (A) (A) (A) (A) (A) (A)
                 (A) (A) (A) (A) (A) (A) (A) (A) (A) (A) (A) (A)
                 (A) (A) (A) (A) (A) (A) (A) (A) (A) (A) (A) (A)
                 (A) (A) (A) (A) (A) (A) (A) (A) (A) (A) (A) (A)
                 (A) (A) (A) (A) (A) (A) (A) (A) (A) (A) (A) (A)
                 (A) (A) (A) (A) (A) (A) (A) (A) (A) (A) (A) (A)
                 (A) (A) (A) (A) (A) (A) (A) (A) (A) (A) (A) (A)
                 (A) (A) (A) (A) (A) (A) (A) (A) (A)
 The electronic state is 1-A.
 Alpha  occ. eigenvalues --  -20.67994 -15.49334 -11.34840 -11.30247 -11.26708
 Alpha  occ. eigenvalues --   -1.60149  -1.22996  -1.04014  -0.95087  -0.80254
 Alpha  occ. eigenvalues --   -0.76423  -0.72108  -0.65955  -0.65669  -0.61071
 Alpha  occ. eigenvalues --   -0.56809  -0.51288  -0.39371  -0.25058
 Alpha virt. eigenvalues --    0.02664   0.03213   0.04490   0.04966   0.05917
 Alpha virt. eigenvalues --    0.07545   0.08633   0.10676   0.11754   0.13566
 Alpha virt. eigenvalues --    0.13673   0.14118   0.15697   0.15965   0.16865
 Alpha virt. eigenvalues --    0.17525   0.19337   0.21119   0.22882   0.25641
 Alpha virt. eigenvalues --    0.26008   0.28367   0.28760   0.29567   0.30333
 Alpha virt. eigenvalues --    0.31269   0.32863   0.33867   0.35106   0.36360
 Alpha virt. eigenvalues --    0.38079   0.39886   0.40149   0.42795   0.44636
 Alpha virt. eigenvalues --    0.45020   0.45732   0.46776   0.47245   0.49724
 Alpha virt. eigenvalues --    0.53307   0.53677   0.54268   0.54915   0.57004
 Alpha virt. eigenvalues --    0.57999   0.59222   0.61088   0.63057   0.63225
 Alpha virt. eigenvalues --    0.64468   0.65358   0.66771   0.67367   0.68278
 Alpha virt. eigenvalues --    0.68952   0.69814   0.71907   0.73550   0.75460
 Alpha virt. eigenvalues --    0.77994   0.78056   0.78595   0.80773   0.80953
 Alpha virt. eigenvalues --    0.82878   0.90739   0.91076   0.93984   0.99714
 Alpha virt. eigenvalues --    1.00089   1.03040   1.07030   1.07412   1.08621
 Alpha virt. eigenvalues --    1.16167   1.20267   1.21537   1.25216   1.28059
 Alpha virt. eigenvalues --    1.30273   1.33445   1.35021   1.38114   1.43827
 Alpha virt. eigenvalues --    1.53937   1.55153   1.59048   1.62179   1.62264
 Alpha virt. eigenvalues --    1.65529   1.67674   1.68474   1.69122   1.75413
 Alpha virt. eigenvalues --    1.78281   1.84121   1.84722   1.85079   1.87954
 Alpha virt. eigenvalues --    1.90576   1.97735   2.02938   2.03021   2.05056
 Alpha virt. eigenvalues --    2.08334   2.11555   2.12260   2.16143   2.17676
 Alpha virt. eigenvalues --    2.19856   2.21598   2.21762   2.24486   2.27379
 Alpha virt. eigenvalues --    2.28233   2.31739   2.33802   2.38112   2.45282
 Alpha virt. eigenvalues --    2.48991   2.52566   2.59243   2.62855   2.68280
 Alpha virt. eigenvalues --    2.72102   2.79162   2.86150   2.95525   3.12532
 Alpha virt. eigenvalues --    3.14362   3.20575   3.29160   3.46039   3.59823
 Alpha virt. eigenvalues --    3.66918   3.76640   3.84210   3.91451   4.13694
 Alpha virt. eigenvalues --    4.22366
          Condensed to atoms (all electrons):
 Mulliken charges:
               1
     1  C    0.481668
     2  C   -0.383778
     3  N    0.756066
     4  C    0.128659
     5  O   -0.864253
     6  H   -0.025046
     7  H    0.131279
     8  H   -0.037386
     9  H   -0.041514
    10  H   -0.145696
 Sum of Mulliken charges =  -0.00000
 Mulliken charges with hydrogens summed into heavy atoms:
               1
     1  C    0.587902
     2  C   -0.462678
     3  N    0.756066
     4  C   -0.017037
     5  O   -0.864253
 Electronic spatial extent (au):  <R**2>=            431.1470
 Charge=             -0.0000 electrons
 Dipole moment (field-independent basis, Debye):
    X=             -2.0257    Y=             -1.4722    Z=              0.0015  Tot=              2.5042

 Test job not archived.
 1\1\GINC-SE168\SP\RHF\Aug-CC-pVDZ\C3H5N1O1\OHZDE\09-Apr-2025\0\\#t hf 
 aug-cc-pvdz iop(5/13=1,5/36=2,99/5=2) pseudo=read geom=check guess=(re
 ad,tcheck) scf=(maxcycle=1)\\title\\0,1\C,0,-0.49160289,-1.72894545,-0
 .29574027\C,0,-0.44362814,1.81627507,0.18217656\N,0,0.34825034,0.83128
 142,0.15715915\C,0,1.17331189,-0.14108074,0.13800106\O,0,0.72367941,-1
 .41305818,-0.09125944\H,0,-0.68082703,-2.77817513,-0.46122713\H,0,-1.2
 5375657,-0.96069002,-0.29568556\H,0,-1.51970283,1.69118099,0.02250823\
 H,0,-0.09352023,2.83686092,0.36414441\H,0,2.24541105,-0.15519086,0.278
 70099\\Version=ES64L-G16RevC.01\State=1-A\HF=-245.9019594\RMSD=1.110e-
 02\Dipole=-0.4928893,-0.8344025,-0.177458\Quadrupole=1.066924,1.941115
 3,-3.0080392,1.1854298,0.7289067,0.8458204\PG=C01 [X(C3H5N1O1)]\\@


 THE MOST SERIOUS THREAT TO THE SURVIVAL OF MANKIND IS NOT NOW
 IGNORANCE IN THE TRADITIONAL SENSE,
 BUT A MORALLY NEUTRAL, AN INSENSITIVE OR INHIBITED HUMAN INTELLIGENCE.

                     -- MARGO JEFFERSON IN NEWSWEEK, SEPTEMBER 2, 1974
 Job cpu time:       0 days  0 hours  0 minutes 25.7 seconds.
 Elapsed time:       0 days  0 hours  0 minutes  2.6 seconds.
 File lengths (MBytes):  RWF=     10 Int=      0 D2E=      0 Chk=      4 Scr=      1
 Normal termination of Gaussian 16 at Wed Apr  9 16:28:42 2025.
