 Entering Gaussian System, Link 0=g16
 Input=Grambow2020_wb97xd3_008130_reverse_mol1.gjf
 Output=Grambow2020_wb97xd3_008130_reverse_mol1.log
 Initial command:
 /arc/software/Gaussian/g16.c01/l1.exe "/tmp/slurm/4881956/Gau-2686559.inp" -scrdir="/tmp/slurm/4881956/"
 Entering Link 1 = /arc/software/Gaussian/g16.c01/l1.exe PID=   2686560.
  
 Copyright (c) 1988-2019, Gaussian, Inc.  All Rights Reserved.
  
 This is part of the Gaussian(R) 16 program.  It is based on
 the Gaussian(R) 09 system (copyright 2009, Gaussian, Inc.),
 the Gaussian(R) 03 system (copyright 2003, Gaussian, Inc.),
 the Gaussian(R) 98 system (copyright 1998, Gaussian, Inc.),
 the Gaussian(R) 94 system (copyright 1995, Gaussian, Inc.),
 the Gaussian 92(TM) system (copyright 1992, Gaussian, Inc.),
 the Gaussian 90(TM) system (copyright 1990, Gaussian, Inc.),
 the Gaussian 88(TM) system (copyright 1988, Gaussian, Inc.),
 the Gaussian 86(TM) system (copyright 1986, Carnegie Mellon
 University), and the Gaussian 82(TM) system (copyright 1983,
 Carnegie Mellon University). Gaussian is a federally registered
 trademark of Gaussian, Inc.
  
 This software contains proprietary and confidential information,
 including trade secrets, belonging to Gaussian, Inc.
  
 This software is provided under written license and may be
 used, copied, transmitted, or stored only in accord with that
 written license.
  
 The following legend is applicable only to US Government
 contracts under FAR:
  
                    RESTRICTED RIGHTS LEGEND
  
 Use, reproduction and disclosure by the US Government is
 subject to restrictions as set forth in subparagraphs (a)
 and (c) of the Commercial Computer Software - Restricted
 Rights clause in FAR 52.227-19.
  
 Gaussian, Inc.
 340 Quinnipiac St., Bldg. 40, Wallingford CT 06492
  
  
 ---------------------------------------------------------------
 Warning -- This program may not be used in any manner that
 competes with the business of Gaussian, Inc. or will provide
 assistance to any competitor of Gaussian, Inc.  The licensee
 of this program is prohibited from giving any competitor of
 Gaussian, Inc. access to this program.  By using this program,
 the user acknowledges that Gaussian, Inc. is engaged in the
 business of creating and licensing software in the field of
 computational chemistry and represents and warrants to the
 licensee that it is not a competitor of Gaussian, Inc. and that
 it will not use this program in any manner prohibited above.
 ---------------------------------------------------------------
  

 Cite this work as:
 Gaussian 16, Revision C.01,
 M. J. Frisch, G. W. Trucks, H. B. Schlegel, G. E. Scuseria, 
 M. A. Robb, J. R. Cheeseman, G. Scalmani, V. Barone, 
 G. A. Petersson, H. Nakatsuji, X. Li, M. Caricato, A. V. Marenich, 
 J. Bloino, B. G. Janesko, R. Gomperts, B. Mennucci, H. P. Hratchian, 
 J. V. Ortiz, A. F. Izmaylov, J. L. Sonnenberg, D. Williams-Young, 
 F. Ding, F. Lipparini, F. Egidi, J. Goings, B. Peng, A. Petrone, 
 T. Henderson, D. Ranasinghe, V. G. Zakrzewski, J. Gao, N. Rega, 
 G. Zheng, W. Liang, M. Hada, M. Ehara, K. Toyota, R. Fukuda, 
 J. Hasegawa, M. Ishida, T. Nakajima, Y. Honda, O. Kitao, H. Nakai, 
 T. Vreven, K. Throssell, J. A. Montgomery, Jr., J. E. Peralta, 
 F. Ogliaro, M. J. Bearpark, J. J. Heyd, E. N. Brothers, K. N. Kudin, 
 V. N. Staroverov, T. A. Keith, R. Kobayashi, J. Normand, 
 K. Raghavachari, A. P. Rendell, J. C. Burant, S. S. Iyengar, 
 J. Tomasi, M. Cossi, J. M. Millam, M. Klene, C. Adamo, R. Cammi, 
 J. W. Ochterski, R. L. Martin, K. Morokuma, O. Farkas, 
 J. B. Foresman, and D. J. Fox, Gaussian, Inc., Wallingford CT, 2019.
 
 ******************************************
 Gaussian 16:  ES64L-G16RevC.01  3-Jul-2019
                 9-Apr-2025 
 ******************************************
 %nprocs=16
 Will use up to   16 processors via shared memory.
 %mem=30GB
 %chk=Grambow2020_wb97xd3_008130_reverse_mol1.chk
 ----------------------------------------------------------------------
 #t hf aug-cc-pvdz symm=none int=(grid=ultrafine) guess=(read,tcheck) s
 table=(opt,rrhf)
 ----------------------------------------------------------------------
 -----
 title
 -----
 Symbolic Z-matrix:
 Charge =  0 Multiplicity = 1
 C                    -1.45117   1.01673   0.29339 
 O                    -0.94514   1.0674   -0.94248 
 C                     0.30665   0.81227  -1.15212 
 C                     0.1047   -1.5321   -0.65737 
 C                     0.01089  -1.01804   0.58865 
 C                     1.06268  -0.02555   0.94423 
 O                     1.19527   0.93758  -0.17019 
 H                    -2.52592   1.12847   0.2841 
 H                    -0.87803   1.50685   1.06777 
 H                     0.64534   0.96319  -2.16618 
 H                     1.0332   -1.48103  -1.21234 
 H                    -0.66921  -2.16592  -1.07245 
 H                    -0.74428  -1.28859   1.31034 
 H                     0.83808   0.54072   1.84623 
 H                     2.05725  -0.46462   1.03463 
 
                    Distance matrix (angstroms):
                    1          2          3          4          5
     1  C    0.000000
     2  O    1.336409   0.000000
     3  C    2.284994   1.294611   0.000000
     4  C    3.133871   2.817950   2.404503   0.000000
     5  C    2.522910   2.758157   2.543190   1.351151   0.000000
     6  C    2.798101   2.964049   2.380807   2.398448   1.489214
     7  O    2.687897   2.279175   1.330237   2.743357   2.408959
     8  H    1.080586   2.001771   3.191575   3.858123   3.337012
     9  H    1.080918   2.058819   2.610331   3.630025   2.719346
    10  H    3.232280   2.009457   1.079720   2.965678   3.452083
    11  H    3.831200   3.237467   2.406401   1.082922   2.122035
    12  H    3.550520   3.247674   3.135006   1.083028   2.130584
    13  H    2.616936   3.265917   3.403199   2.156834   1.079030
    14  H    2.806872   3.351740   3.057167   3.332032   2.166913
    15  H    3.879800   3.907741   3.078469   2.795504   2.166284
                    6          7          8          9         10
     6  C    0.000000
     7  O    1.478905   0.000000
     8  H    3.826954   3.753674   0.000000
     9  H    2.475859   2.480969   1.863558   0.000000
    10  H    3.290355   2.070512   4.010991   3.615887   0.000000
    11  H    2.601940   2.638565   4.660062   4.216535   2.652259
    12  H    3.412862   3.731228   4.017536   4.255985   3.565892
    13  H    2.234814   3.302977   3.173256   2.809129   4.368945
    14  H    1.088444   2.085919   3.755282   2.117645   4.039187
    15  H    1.090931   2.039805   4.909857   3.536058   3.778535
                   11         12         13         14         15
    11  H    0.000000
    12  H    1.840337   0.000000
    13  H    3.091984   2.540281   0.000000
    14  H    3.671567   4.256349   2.477376   0.000000
    15  H    2.670323   3.842887   2.933173   1.776460   0.000000
 Symmetry turned off by external request.
 Rotational constants (GHZ):           3.7712094           2.7955356           2.5212477
   233 basis functions,   389 primitive gaussians,   247 cartesian basis functions
    27 alpha electrons       27 beta electrons
       nuclear repulsion energy       321.9245619324 Hartrees.
 NAtoms=   15 NActive=   15 NUniq=   15 SFac= 1.00D+00 NAtFMM=   60 NAOKFM=F Big=F
 ExpMin= 2.97D-02 ExpMax= 1.17D+04 ExpMxC= 4.01D+02 IAcc=3 IRadAn=         5 AccDes= 0.00D+00
 Harris functional with IExCor=  205 and IRadAn=       5 diagonalized for initial guess.
 HarFok:  IExCor=  205 AccDes= 0.00D+00 IRadAn=         5 IDoV= 1 UseB2=F ITyADJ=14
 ICtDFT=  3500011 ScaDFX=  1.000000  1.000000  1.000000  1.000000
 FoFCou: FMM=F IPFlag=           0 FMFlag=      100000 FMFlg1=           0
         NFxFlg=           0 DoJE=T BraDBF=F KetDBF=T FulRan=T
         wScrn=  0.000000 ICntrl=       500 IOpCl=  0 I1Cent=   200000004 NGrid=           0
         NMat0=    1 NMatS0=      1 NMatT0=    0 NMatD0=    1 NMtDS0=    0 NMtDT0=    0
 Symmetry not used in FoFCou.
 SCF Done:  E(RHF) =  -343.551958960     A.U. after   16 cycles
            NFock= 16  Conv=0.39D-08     -V/T= 2.0010

 **********************************************************************

            Population analysis using the SCF Density.

 **********************************************************************

 Alpha  occ. eigenvalues --  -20.66414 -20.61146 -11.38249 -11.30569 -11.25476
 Alpha  occ. eigenvalues --  -11.24555 -11.22466  -1.51043  -1.41001  -1.07776
 Alpha  occ. eigenvalues --   -1.00747  -0.93694  -0.82365  -0.76585  -0.75270
 Alpha  occ. eigenvalues --   -0.71340  -0.68399  -0.64769  -0.62324  -0.59798
 Alpha  occ. eigenvalues --   -0.57010  -0.56768  -0.52382  -0.50370  -0.47794
 Alpha  occ. eigenvalues --   -0.35311  -0.24864
 Alpha virt. eigenvalues --    0.03551   0.04239   0.04608   0.04959   0.06215
 Alpha virt. eigenvalues --    0.06610   0.06947   0.08001   0.10003   0.10472
 Alpha virt. eigenvalues --    0.11884   0.12552   0.12680   0.13563   0.14502
 Alpha virt. eigenvalues --    0.15148   0.15311   0.15834   0.16323   0.16400
 Alpha virt. eigenvalues --    0.17334   0.18434   0.18997   0.19100   0.20091
 Alpha virt. eigenvalues --    0.21233   0.22981   0.25230   0.25819   0.28022
 Alpha virt. eigenvalues --    0.28661   0.29188   0.29441   0.31410   0.31693
 Alpha virt. eigenvalues --    0.33036   0.33288   0.33905   0.35651   0.36455
 Alpha virt. eigenvalues --    0.37823   0.38622   0.39362   0.41025   0.41301
 Alpha virt. eigenvalues --    0.42791   0.43591   0.44247   0.45510   0.45766
 Alpha virt. eigenvalues --    0.47307   0.47878   0.48987   0.50001   0.50420
 Alpha virt. eigenvalues --    0.50715   0.51869   0.54290   0.54426   0.55640
 Alpha virt. eigenvalues --    0.56025   0.56770   0.57959   0.58778   0.59676
 Alpha virt. eigenvalues --    0.61641   0.62589   0.63146   0.63411   0.64723
 Alpha virt. eigenvalues --    0.66394   0.66795   0.68008   0.68289   0.69774
 Alpha virt. eigenvalues --    0.71127   0.71322   0.71981   0.72738   0.73434
 Alpha virt. eigenvalues --    0.75217   0.75356   0.77022   0.78135   0.78818
 Alpha virt. eigenvalues --    0.79306   0.80120   0.80834   0.81206   0.82477
 Alpha virt. eigenvalues --    0.83765   0.86043   0.86617   0.88983   0.89111
 Alpha virt. eigenvalues --    0.90248   0.91234   0.92357   0.93800   0.95794
 Alpha virt. eigenvalues --    0.98095   1.01571   1.04767   1.07560   1.09418
 Alpha virt. eigenvalues --    1.11539   1.12617   1.16769   1.18926   1.20187
 Alpha virt. eigenvalues --    1.24151   1.25881   1.29615   1.29733   1.31929
 Alpha virt. eigenvalues --    1.34020   1.37460   1.41422   1.42288   1.44961
 Alpha virt. eigenvalues --    1.48191   1.51383   1.52649   1.55494   1.59157
 Alpha virt. eigenvalues --    1.60430   1.62328   1.64746   1.67234   1.69615
 Alpha virt. eigenvalues --    1.70379   1.72535   1.73210   1.75014   1.75244
 Alpha virt. eigenvalues --    1.79103   1.82054   1.83000   1.84040   1.85169
 Alpha virt. eigenvalues --    1.87386   1.87511   1.90566   1.94886   1.95779
 Alpha virt. eigenvalues --    1.96743   1.99493   2.01082   2.01904   2.03186
 Alpha virt. eigenvalues --    2.07245   2.08814   2.09485   2.12041   2.16733
 Alpha virt. eigenvalues --    2.18066   2.19838   2.21897   2.26651   2.28204
 Alpha virt. eigenvalues --    2.28795   2.30532   2.33394   2.33598   2.35329
 Alpha virt. eigenvalues --    2.39410   2.42933   2.42982   2.44073   2.46867
 Alpha virt. eigenvalues --    2.47501   2.53535   2.55168   2.56123   2.61015
 Alpha virt. eigenvalues --    2.64223   2.69541   2.73772   2.74733   2.78202
 Alpha virt. eigenvalues --    2.79041   2.85738   2.88285   2.90864   2.92244
 Alpha virt. eigenvalues --    3.01012   3.02257   3.04789   3.11735   3.16806
 Alpha virt. eigenvalues --    3.19180   3.20932   3.34731   3.42636   3.63654
 Alpha virt. eigenvalues --    3.68878   3.76744   3.82682   3.84390   3.86727
 Alpha virt. eigenvalues --    3.88686   3.96610   4.02031   4.07468   4.19047
 Alpha virt. eigenvalues --    4.25137
          Condensed to atoms (all electrons):
 Mulliken charges:
               1
     1  C    0.652503
     2  O   -0.579674
     3  C    1.228199
     4  C    0.463162
     5  C    0.411997
     6  C    1.050805
     7  O   -0.881447
     8  H   -0.354763
     9  H   -0.199947
    10  H   -0.337937
    11  H   -0.235739
    12  H   -0.371682
    13  H   -0.404635
    14  H   -0.250245
    15  H   -0.190597
 Sum of Mulliken charges =  -0.00000
 Mulliken charges with hydrogens summed into heavy atoms:
               1
     1  C    0.097793
     2  O   -0.579674
     3  C    0.890262
     4  C   -0.144259
     5  C    0.007362
     6  C    0.609962
     7  O   -0.881447
 Electronic spatial extent (au):  <R**2>=            645.5393
 Charge=             -0.0000 electrons
 Dipole moment (field-independent basis, Debye):
    X=              0.9272    Y=             -0.3645    Z=              0.1026  Tot=              1.0015
 NROrb=    233 NOA=    27 NOB=    27 NVA=   206 NVB=   206

 **** Warning!!: The largest alpha MO coefficient is  0.43780787D+02

    12 initial guesses have been made.
 Iteration     1 Dimension    12 NMult     0 NNew     12
 New state      1 was old state      3
 Iteration     2 Dimension    24 NMult    12 NNew     12
 Iteration     3 Dimension    27 NMult    24 NNew      3
 New state      1 was old state      2
 Iteration     4 Dimension    30 NMult    27 NNew      3
 Iteration     5 Dimension    33 NMult    30 NNew      3
 Iteration     6 Dimension    36 NMult    33 NNew      3
 Iteration     7 Dimension    39 NMult    36 NNew      3
 Iteration     8 Dimension    42 NMult    39 NNew      3
 ***********************************************************************
 Stability analysis using <AA,BB:AA,BB> singles matrix:
 ***********************************************************************
 Ground to excited state transition densities written to RWF  633

 Eigenvectors of the stability matrix:
 
 Excited state symmetry could not be determined.
 Eigenvector   1:      Singlet-?Sym  Eigenvalue= 0.1502054  <S**2>=0.000
      27 -> 29         0.13236
      27 -> 31         0.27774
      27 -> 32        -0.14621
      27 -> 35        -0.26702
      27 -> 36         0.29712
      27 -> 37         0.29548
      27 -> 38         0.16703
      27 -> 44        -0.10498
 The wavefunction is stable under the perturbations considered.
 The wavefunction is already stable.

 **********************************************************************

            Population analysis using the SCF Density.

 **********************************************************************

 Alpha  occ. eigenvalues --  -20.66414 -20.61146 -11.38249 -11.30569 -11.25476
 Alpha  occ. eigenvalues --  -11.24555 -11.22466  -1.51043  -1.41001  -1.07776
 Alpha  occ. eigenvalues --   -1.00747  -0.93694  -0.82365  -0.76585  -0.75270
 Alpha  occ. eigenvalues --   -0.71340  -0.68399  -0.64769  -0.62324  -0.59798
 Alpha  occ. eigenvalues --   -0.57010  -0.56768  -0.52382  -0.50370  -0.47794
 Alpha  occ. eigenvalues --   -0.35311  -0.24864
 Alpha virt. eigenvalues --    0.03551   0.04239   0.04608   0.04959   0.06215
 Alpha virt. eigenvalues --    0.06610   0.06947   0.08001   0.10003   0.10472
 Alpha virt. eigenvalues --    0.11884   0.12552   0.12680   0.13563   0.14502
 Alpha virt. eigenvalues --    0.15148   0.15311   0.15834   0.16323   0.16400
 Alpha virt. eigenvalues --    0.17334   0.18434   0.18997   0.19100   0.20091
 Alpha virt. eigenvalues --    0.21233   0.22981   0.25230   0.25819   0.28022
 Alpha virt. eigenvalues --    0.28661   0.29188   0.29441   0.31410   0.31693
 Alpha virt. eigenvalues --    0.33036   0.33288   0.33905   0.35651   0.36455
 Alpha virt. eigenvalues --    0.37823   0.38622   0.39362   0.41025   0.41301
 Alpha virt. eigenvalues --    0.42791   0.43591   0.44247   0.45510   0.45766
 Alpha virt. eigenvalues --    0.47307   0.47878   0.48987   0.50001   0.50420
 Alpha virt. eigenvalues --    0.50715   0.51869   0.54290   0.54426   0.55640
 Alpha virt. eigenvalues --    0.56025   0.56770   0.57959   0.58778   0.59676
 Alpha virt. eigenvalues --    0.61641   0.62589   0.63146   0.63411   0.64723
 Alpha virt. eigenvalues --    0.66394   0.66795   0.68008   0.68289   0.69774
 Alpha virt. eigenvalues --    0.71127   0.71322   0.71981   0.72738   0.73434
 Alpha virt. eigenvalues --    0.75217   0.75356   0.77022   0.78135   0.78818
 Alpha virt. eigenvalues --    0.79306   0.80120   0.80834   0.81206   0.82477
 Alpha virt. eigenvalues --    0.83765   0.86043   0.86617   0.88983   0.89111
 Alpha virt. eigenvalues --    0.90248   0.91234   0.92357   0.93800   0.95794
 Alpha virt. eigenvalues --    0.98095   1.01571   1.04767   1.07560   1.09418
 Alpha virt. eigenvalues --    1.11539   1.12617   1.16769   1.18926   1.20187
 Alpha virt. eigenvalues --    1.24151   1.25881   1.29615   1.29733   1.31929
 Alpha virt. eigenvalues --    1.34020   1.37460   1.41422   1.42288   1.44961
 Alpha virt. eigenvalues --    1.48191   1.51383   1.52649   1.55494   1.59157
 Alpha virt. eigenvalues --    1.60430   1.62328   1.64746   1.67234   1.69615
 Alpha virt. eigenvalues --    1.70379   1.72535   1.73210   1.75014   1.75244
 Alpha virt. eigenvalues --    1.79103   1.82054   1.83000   1.84040   1.85169
 Alpha virt. eigenvalues --    1.87386   1.87511   1.90566   1.94886   1.95779
 Alpha virt. eigenvalues --    1.96743   1.99493   2.01082   2.01904   2.03186
 Alpha virt. eigenvalues --    2.07245   2.08814   2.09485   2.12041   2.16733
 Alpha virt. eigenvalues --    2.18066   2.19838   2.21897   2.26651   2.28204
 Alpha virt. eigenvalues --    2.28795   2.30532   2.33394   2.33598   2.35329
 Alpha virt. eigenvalues --    2.39410   2.42933   2.42982   2.44073   2.46867
 Alpha virt. eigenvalues --    2.47501   2.53535   2.55168   2.56123   2.61015
 Alpha virt. eigenvalues --    2.64223   2.69541   2.73772   2.74733   2.78202
 Alpha virt. eigenvalues --    2.79041   2.85738   2.88285   2.90864   2.92244
 Alpha virt. eigenvalues --    3.01012   3.02257   3.04789   3.11735   3.16806
 Alpha virt. eigenvalues --    3.19180   3.20932   3.34731   3.42636   3.63654
 Alpha virt. eigenvalues --    3.68878   3.76744   3.82682   3.84390   3.86727
 Alpha virt. eigenvalues --    3.88686   3.96610   4.02031   4.07468   4.19047
 Alpha virt. eigenvalues --    4.25137
          Condensed to atoms (all electrons):
 Mulliken charges:
               1
     1  C    0.652503
     2  O   -0.579674
     3  C    1.228199
     4  C    0.463162
     5  C    0.411997
     6  C    1.050805
     7  O   -0.881447
     8  H   -0.354763
     9  H   -0.199947
    10  H   -0.337937
    11  H   -0.235739
    12  H   -0.371682
    13  H   -0.404635
    14  H   -0.250245
    15  H   -0.190597
 Sum of Mulliken charges =  -0.00000
 Mulliken charges with hydrogens summed into heavy atoms:
               1
     1  C    0.097793
     2  O   -0.579674
     3  C    0.890262
     4  C   -0.144259
     5  C    0.007362
     6  C    0.609962
     7  O   -0.881447
 Electronic spatial extent (au):  <R**2>=            645.5393
 Charge=             -0.0000 electrons
 Dipole moment (field-independent basis, Debye):
    X=              0.9272    Y=             -0.3645    Z=              0.1026  Tot=              1.0015
 Unable to Open any file for archive entry.
 1\1\GINC-SE028\Stability\RHF\Aug-CC-pVDZ\C5H8O2\OHZDE\09-Apr-2025\0\\#
 t hf aug-cc-pvdz symm=none int=(grid=ultrafine) guess=(read,tcheck) st
 able=(opt,rrhf)\\title\\0,1\C,0,-1.45116523,1.01672695,0.29338509\O,0,
 -0.94514108,1.06740176,-0.94247977\C,0,0.30664824,0.81227326,-1.152120
 81\C,0,0.10469727,-1.53209697,-0.65736932\C,0,0.01088759,-1.01804472,0
 .588648\C,0,1.06268122,-0.02555007,0.9442346\O,0,1.19527041,0.93758315
 ,-0.1701949\H,0,-2.52591798,1.12846878,0.28410261\H,0,-0.87802969,1.50
 685309,1.06777248\H,0,0.64533819,0.96319,-2.166176\H,0,1.03320411,-1.4
 810332,-1.21233542\H,0,-0.66920761,-2.16591801,-1.07244993\H,0,-0.7442
 7783,-1.28858603,1.31033896\H,0,0.83807514,0.54072281,1.84623095\H,0,2
 .05725327,-0.46462383,1.03463147\\Version=ES64L-G16RevC.01\HF=-343.551
 959\RMSD=3.892e-09\Dipole=0.3647735,-0.1433904,0.0403838\Quadrupole=-0
 .7351585,-2.7344178,3.4695763,0.2607754,-0.6040621,0.0596934\PG=Unknow
 n\\@
 The archive entry for this job was punched.


 ON A TOMBSTONE, "HERE LIES LESTER MOORE,
 FOUR SLUGS FROM A 44, NO LES, NO MORE".
 Job cpu time:       0 days  0 hours  8 minutes 54.5 seconds.
 Elapsed time:       0 days  0 hours  0 minutes 37.8 seconds.
 File lengths (MBytes):  RWF=    251 Int=      0 D2E=      0 Chk=      8 Scr=      1
 Normal termination of Gaussian 16 at Wed Apr  9 18:51:49 2025.
 Initial command:
 /arc/software/Gaussian/g16.c01/l1.exe "/tmp/slurm/4881956/Gau-2686559.inp" -scrdir="/tmp/slurm/4881956/"
 Entering Link 1 = /arc/software/Gaussian/g16.c01/l1.exe PID=   2686780.
  
 Copyright (c) 1988-2019, Gaussian, Inc.  All Rights Reserved.
  
 This is part of the Gaussian(R) 16 program.  It is based on
 the Gaussian(R) 09 system (copyright 2009, Gaussian, Inc.),
 the Gaussian(R) 03 system (copyright 2003, Gaussian, Inc.),
 the Gaussian(R) 98 system (copyright 1998, Gaussian, Inc.),
 the Gaussian(R) 94 system (copyright 1995, Gaussian, Inc.),
 the Gaussian 92(TM) system (copyright 1992, Gaussian, Inc.),
 the Gaussian 90(TM) system (copyright 1990, Gaussian, Inc.),
 the Gaussian 88(TM) system (copyright 1988, Gaussian, Inc.),
 the Gaussian 86(TM) system (copyright 1986, Carnegie Mellon
 University), and the Gaussian 82(TM) system (copyright 1983,
 Carnegie Mellon University). Gaussian is a federally registered
 trademark of Gaussian, Inc.
  
 This software contains proprietary and confidential information,
 including trade secrets, belonging to Gaussian, Inc.
  
 This software is provided under written license and may be
 used, copied, transmitted, or stored only in accord with that
 written license.
  
 The following legend is applicable only to US Government
 contracts under FAR:
  
                    RESTRICTED RIGHTS LEGEND
  
 Use, reproduction and disclosure by the US Government is
 subject to restrictions as set forth in subparagraphs (a)
 and (c) of the Commercial Computer Software - Restricted
 Rights clause in FAR 52.227-19.
  
 Gaussian, Inc.
 340 Quinnipiac St., Bldg. 40, Wallingford CT 06492
  
  
 ---------------------------------------------------------------
 Warning -- This program may not be used in any manner that
 competes with the business of Gaussian, Inc. or will provide
 assistance to any competitor of Gaussian, Inc.  The licensee
 of this program is prohibited from giving any competitor of
 Gaussian, Inc. access to this program.  By using this program,
 the user acknowledges that Gaussian, Inc. is engaged in the
 business of creating and licensing software in the field of
 computational chemistry and represents and warrants to the
 licensee that it is not a competitor of Gaussian, Inc. and that
 it will not use this program in any manner prohibited above.
 ---------------------------------------------------------------
  

 Cite this work as:
 Gaussian 16, Revision C.01,
 M. J. Frisch, G. W. Trucks, H. B. Schlegel, G. E. Scuseria, 
 M. A. Robb, J. R. Cheeseman, G. Scalmani, V. Barone, 
 G. A. Petersson, H. Nakatsuji, X. Li, M. Caricato, A. V. Marenich, 
 J. Bloino, B. G. Janesko, R. Gomperts, B. Mennucci, H. P. Hratchian, 
 J. V. Ortiz, A. F. Izmaylov, J. L. Sonnenberg, D. Williams-Young, 
 F. Ding, F. Lipparini, F. Egidi, J. Goings, B. Peng, A. Petrone, 
 T. Henderson, D. Ranasinghe, V. G. Zakrzewski, J. Gao, N. Rega, 
 G. Zheng, W. Liang, M. Hada, M. Ehara, K. Toyota, R. Fukuda, 
 J. Hasegawa, M. Ishida, T. Nakajima, Y. Honda, O. Kitao, H. Nakai, 
 T. Vreven, K. Throssell, J. A. Montgomery, Jr., J. E. Peralta, 
 F. Ogliaro, M. J. Bearpark, J. J. Heyd, E. N. Brothers, K. N. Kudin, 
 V. N. Staroverov, T. A. Keith, R. Kobayashi, J. Normand, 
 K. Raghavachari, A. P. Rendell, J. C. Burant, S. S. Iyengar, 
 J. Tomasi, M. Cossi, J. M. Millam, M. Klene, C. Adamo, R. Cammi, 
 J. W. Ochterski, R. L. Martin, K. Morokuma, O. Farkas, 
 J. B. Foresman, and D. J. Fox, Gaussian, Inc., Wallingford CT, 2019.
 
 ******************************************
 Gaussian 16:  ES64L-G16RevC.01  3-Jul-2019
                 9-Apr-2025 
 ******************************************
 %nprocs=16
 Will use up to   16 processors via shared memory.
 %mem=30GB
 %chk=Grambow2020_wb97xd3_008130_reverse_mol1.chk
 ----------------------------------------------------------------------
 #t hf aug-cc-pvdz iop(5/13=1,5/36=2,99/5=2) pseudo=read geom=check gue
 ss=(read,tcheck) scf=(maxcycle=1)
 ----------------------------------------------------------------------
 -----
 title
 -----
 Structure from the checkpoint file:  "Grambow2020_wb97xd3_008130_reverse_mol1.chk"
 Charge =  0 Multiplicity = 1
 Z-Matrix found in chk file.
 C,0,-1.45116523,1.01672695,0.29338509
 O,0,-0.94514108,1.06740176,-0.94247977
 C,0,0.30664824,0.81227326,-1.15212081
 C,0,0.10469727,-1.53209697,-0.65736932
 C,0,0.01088759,-1.01804472,0.588648
 C,0,1.06268122,-0.02555007,0.9442346
 O,0,1.19527041,0.93758315,-0.1701949
 H,0,-2.52591798,1.12846878,0.28410261
 H,0,-0.87802969,1.50685309,1.06777248
 H,0,0.64533819,0.96319,-2.166176
 H,0,1.03320411,-1.4810332,-1.21233542
 H,0,-0.66920761,-2.16591801,-1.07244993
 H,0,-0.74427783,-1.28858603,1.31033896
 H,0,0.83807514,0.54072281,1.84623095
 H,0,2.05725327,-0.46462383,1.03463147
 Recover connectivity data from disk.
                    Distance matrix (angstroms):
                    1          2          3          4          5
     1  C    0.000000
     2  O    1.336409   0.000000
     3  C    2.284994   1.294611   0.000000
     4  C    3.133871   2.817950   2.404503   0.000000
     5  C    2.522910   2.758157   2.543190   1.351151   0.000000
     6  C    2.798101   2.964049   2.380807   2.398448   1.489214
     7  O    2.687897   2.279175   1.330237   2.743357   2.408959
     8  H    1.080586   2.001771   3.191575   3.858123   3.337012
     9  H    1.080918   2.058819   2.610331   3.630025   2.719346
    10  H    3.232280   2.009457   1.079720   2.965678   3.452083
    11  H    3.831200   3.237467   2.406401   1.082922   2.122035
    12  H    3.550520   3.247674   3.135006   1.083028   2.130584
    13  H    2.616936   3.265917   3.403199   2.156834   1.079030
    14  H    2.806872   3.351740   3.057167   3.332032   2.166913
    15  H    3.879800   3.907741   3.078469   2.795504   2.166284
                    6          7          8          9         10
     6  C    0.000000
     7  O    1.478905   0.000000
     8  H    3.826954   3.753674   0.000000
     9  H    2.475859   2.480969   1.863558   0.000000
    10  H    3.290355   2.070512   4.010991   3.615887   0.000000
    11  H    2.601940   2.638565   4.660062   4.216535   2.652259
    12  H    3.412862   3.731228   4.017536   4.255985   3.565892
    13  H    2.234814   3.302977   3.173256   2.809129   4.368945
    14  H    1.088444   2.085919   3.755282   2.117645   4.039187
    15  H    1.090931   2.039805   4.909857   3.536058   3.778535
                   11         12         13         14         15
    11  H    0.000000
    12  H    1.840337   0.000000
    13  H    3.091984   2.540281   0.000000
    14  H    3.671567   4.256349   2.477376   0.000000
    15  H    2.670323   3.842887   2.933173   1.776460   0.000000
 Framework group  C1[X(C5H8O2)]
 Deg. of freedom    39
                         Standard orientation:                         
 ---------------------------------------------------------------------
 Center     Atomic      Atomic             Coordinates (Angstroms)
 Number     Number       Type             X           Y           Z
 ---------------------------------------------------------------------
      1          6           0       -1.392451   -0.584993    0.896610
      2          8           0       -1.470607   -0.236073   -0.391077
      3          6           0       -0.583298    0.547103   -0.915799
      4          6           0        1.183742   -1.080648   -0.817654
      5          6           0        1.091830   -0.751604    0.489592
      6          6           0        1.084960    0.709999    0.774947
      7          8           0        0.134081    1.364338   -0.149623
      8          1           0       -2.127092   -1.337017    1.146467
      9          1           0       -1.195926    0.212366    1.599448
     10          1           0       -0.775243    0.844833   -1.935754
     11          1           0        1.550725   -0.368788   -1.546556
     12          1           0        1.073856   -2.103134   -1.157354
     13          1           0        1.039976   -1.461703    1.300378
     14          1           0        0.778890    0.952545    1.790921
     15          1           0        2.038318    1.195631    0.561872
 ---------------------------------------------------------------------
 Rotational constants (GHZ):           3.7712094           2.7955356           2.5212477
 ======================================================================================================
                                       Pseudopotential Parameters
 ======================================================================================================
  Center     Atomic      Valence      Angular      Power
  Number     Number     Electrons     Momentum     of R      Exponent        Coefficient   SO-Coeffient
 ======================================================================================================
    1          6            6
                                      G and up 
                                                     0        0.0000010       -0.00007288    0.00000000
                                                     2        0.1200000        0.10466671    0.00000000
                                                     2        0.1400000       -0.65716157    0.00000000
                                                     2        0.1600000        1.18890794    0.00000000
                                                     2        0.2000000       -1.25772850    0.00000000
                                                     2        0.2600000        1.01188378    0.00000000
                                                     2        0.4000000       -1.09380874    0.00000000
                                                     2        0.5000000        0.96944888    0.00000000
                                                     2        1.0000000       -0.79256938    0.00000000
                                                     2        3.0000000        1.06443276    0.00000000
                                      S - G
                                                     0        0.0000010       -0.00635295    0.00000000
                                                     2        0.1200000        0.16918955    0.00000000
                                                     2        0.1600000       -0.38862576    0.00000000
                                                     2        0.2800000        0.25638263    0.00000000
                                                     2        0.5000000        0.29628419    0.00000000
                                                     2        0.9000000       -0.28791512    0.00000000
                                      P - G
                                                     0        0.0000010       -0.04756931    0.00000000
                                                     2        0.1200000        0.28430375    0.00000000
                                                     2        0.1600000       -0.69640032    0.00000000
                                                     2        0.2600000        1.13005668    0.00000000
                                                     2        0.4000000       -1.31433324    0.00000000
                                                     2        0.7000000        0.91526469    0.00000000
                                      D - G
                                                     0        0.0000010       -0.11496411    0.00000000
                                                     2        0.1200000        0.16620776    0.00000000
                                                     2        0.1800000       -0.30959819    0.00000000
                                                     2        0.3000000        0.16621458    0.00000000
                                                     2        0.6000000        0.27350556    0.00000000
                                      F - G
                                                     0        0.0000010        0.12037550    0.00000000
                                                     2        0.1200000       -0.48737077    0.00000000
                                                     2        0.1400000        0.58315350    0.00000000
                                                     2        0.3000000        0.00005188    0.00000000
                                                     2        0.5000000       -1.16063549    0.00000000
                                                     2        0.8000000        2.09053308    0.00000000
    2          8            8
                                      G and up 
                                                     0        0.0000010        0.00049668    0.00000000
                                                     2        0.1200000       -0.01803391    0.00000000
                                                     2        0.1400000        0.04014195    0.00000000
                                                     2        0.2000000       -0.02692147    0.00000000
                                                     2        0.2800000       -0.04241843    0.00000000
                                                     2        0.4000000        0.15412145    0.00000000
                                                     2        0.7000000       -0.40587006    0.00000000
                                                     2        1.1000000        1.75666647    0.00000000
                                      S - G
                                                     0        0.0000010       -0.01088195    0.00000000
                                                     2        0.1200000        0.09867335    0.00000000
                                                     2        0.2400000       -0.08484177    0.00000000
                                                     2        0.6000000       -1.39011554    0.00000000
                                                     2        2.5000000        1.36225910    0.00000000
                                      P - G
                                                     0        0.0000010        0.05874028    0.00000000
                                                     2        0.1200000       -0.11700340    0.00000000
                                                     2        0.1600000        0.08847775    0.00000000
                                                     2        0.3000000        0.04709907    0.00000000
                                                     2        1.2000000       -1.80388338    0.00000000
                                      D - G
                                                     0        0.0000010       -0.00541262    0.00000000
                                                     2        0.1200000       -0.26547906    0.00000000
                                                     2        0.1600000        1.04289661    0.00000000
                                                     2        0.2400000       -1.92800913    0.00000000
                                                     2        0.4000000        2.26691633    0.00000000
                                                     2        0.7000000       -1.97391482    0.00000000
                                      F - G
                                                     0        0.0000010       -0.02604870    0.00000000
                                                     2        0.1200000        0.37362552    0.00000000
                                                     2        0.1600000       -1.43526367    0.00000000
                                                     2        0.2200000        1.76778079    0.00000000
                                                     2        0.5000000       -1.90846303    0.00000000
    3          6            6
                                      G and up 
                                                     0        0.0000010       -0.00007288    0.00000000
                                                     2        0.1200000        0.10466671    0.00000000
                                                     2        0.1400000       -0.65716157    0.00000000
                                                     2        0.1600000        1.18890794    0.00000000
                                                     2        0.2000000       -1.25772850    0.00000000
                                                     2        0.2600000        1.01188378    0.00000000
                                                     2        0.4000000       -1.09380874    0.00000000
                                                     2        0.5000000        0.96944888    0.00000000
                                                     2        1.0000000       -0.79256938    0.00000000
                                                     2        3.0000000        1.06443276    0.00000000
                                      S - G
                                                     0        0.0000010       -0.00635295    0.00000000
                                                     2        0.1200000        0.16918955    0.00000000
                                                     2        0.1600000       -0.38862576    0.00000000
                                                     2        0.2800000        0.25638263    0.00000000
                                                     2        0.5000000        0.29628419    0.00000000
                                                     2        0.9000000       -0.28791512    0.00000000
                                      P - G
                                                     0        0.0000010       -0.04756931    0.00000000
                                                     2        0.1200000        0.28430375    0.00000000
                                                     2        0.1600000       -0.69640032    0.00000000
                                                     2        0.2600000        1.13005668    0.00000000
                                                     2        0.4000000       -1.31433324    0.00000000
                                                     2        0.7000000        0.91526469    0.00000000
                                      D - G
                                                     0        0.0000010       -0.11496411    0.00000000
                                                     2        0.1200000        0.16620776    0.00000000
                                                     2        0.1800000       -0.30959819    0.00000000
                                                     2        0.3000000        0.16621458    0.00000000
                                                     2        0.6000000        0.27350556    0.00000000
                                      F - G
                                                     0        0.0000010        0.12037550    0.00000000
                                                     2        0.1200000       -0.48737077    0.00000000
                                                     2        0.1400000        0.58315350    0.00000000
                                                     2        0.3000000        0.00005188    0.00000000
                                                     2        0.5000000       -1.16063549    0.00000000
                                                     2        0.8000000        2.09053308    0.00000000
    4          6            6
                                      G and up 
                                                     0        0.0000010       -0.00007288    0.00000000
                                                     2        0.1200000        0.10466671    0.00000000
                                                     2        0.1400000       -0.65716157    0.00000000
                                                     2        0.1600000        1.18890794    0.00000000
                                                     2        0.2000000       -1.25772850    0.00000000
                                                     2        0.2600000        1.01188378    0.00000000
                                                     2        0.4000000       -1.09380874    0.00000000
                                                     2        0.5000000        0.96944888    0.00000000
                                                     2        1.0000000       -0.79256938    0.00000000
                                                     2        3.0000000        1.06443276    0.00000000
                                      S - G
                                                     0        0.0000010       -0.00635295    0.00000000
                                                     2        0.1200000        0.16918955    0.00000000
                                                     2        0.1600000       -0.38862576    0.00000000
                                                     2        0.2800000        0.25638263    0.00000000
                                                     2        0.5000000        0.29628419    0.00000000
                                                     2        0.9000000       -0.28791512    0.00000000
                                      P - G
                                                     0        0.0000010       -0.04756931    0.00000000
                                                     2        0.1200000        0.28430375    0.00000000
                                                     2        0.1600000       -0.69640032    0.00000000
                                                     2        0.2600000        1.13005668    0.00000000
                                                     2        0.4000000       -1.31433324    0.00000000
                                                     2        0.7000000        0.91526469    0.00000000
                                      D - G
                                                     0        0.0000010       -0.11496411    0.00000000
                                                     2        0.1200000        0.16620776    0.00000000
                                                     2        0.1800000       -0.30959819    0.00000000
                                                     2        0.3000000        0.16621458    0.00000000
                                                     2        0.6000000        0.27350556    0.00000000
                                      F - G
                                                     0        0.0000010        0.12037550    0.00000000
                                                     2        0.1200000       -0.48737077    0.00000000
                                                     2        0.1400000        0.58315350    0.00000000
                                                     2        0.3000000        0.00005188    0.00000000
                                                     2        0.5000000       -1.16063549    0.00000000
                                                     2        0.8000000        2.09053308    0.00000000
    5          6            6
                                      G and up 
                                                     0        0.0000010       -0.00007288    0.00000000
                                                     2        0.1200000        0.10466671    0.00000000
                                                     2        0.1400000       -0.65716157    0.00000000
                                                     2        0.1600000        1.18890794    0.00000000
                                                     2        0.2000000       -1.25772850    0.00000000
                                                     2        0.2600000        1.01188378    0.00000000
                                                     2        0.4000000       -1.09380874    0.00000000
                                                     2        0.5000000        0.96944888    0.00000000
                                                     2        1.0000000       -0.79256938    0.00000000
                                                     2        3.0000000        1.06443276    0.00000000
                                      S - G
                                                     0        0.0000010       -0.00635295    0.00000000
                                                     2        0.1200000        0.16918955    0.00000000
                                                     2        0.1600000       -0.38862576    0.00000000
                                                     2        0.2800000        0.25638263    0.00000000
                                                     2        0.5000000        0.29628419    0.00000000
                                                     2        0.9000000       -0.28791512    0.00000000
                                      P - G
                                                     0        0.0000010       -0.04756931    0.00000000
                                                     2        0.1200000        0.28430375    0.00000000
                                                     2        0.1600000       -0.69640032    0.00000000
                                                     2        0.2600000        1.13005668    0.00000000
                                                     2        0.4000000       -1.31433324    0.00000000
                                                     2        0.7000000        0.91526469    0.00000000
                                      D - G
                                                     0        0.0000010       -0.11496411    0.00000000
                                                     2        0.1200000        0.16620776    0.00000000
                                                     2        0.1800000       -0.30959819    0.00000000
                                                     2        0.3000000        0.16621458    0.00000000
                                                     2        0.6000000        0.27350556    0.00000000
                                      F - G
                                                     0        0.0000010        0.12037550    0.00000000
                                                     2        0.1200000       -0.48737077    0.00000000
                                                     2        0.1400000        0.58315350    0.00000000
                                                     2        0.3000000        0.00005188    0.00000000
                                                     2        0.5000000       -1.16063549    0.00000000
                                                     2        0.8000000        2.09053308    0.00000000
    6          6            6
                                      G and up 
                                                     0        0.0000010       -0.00007288    0.00000000
                                                     2        0.1200000        0.10466671    0.00000000
                                                     2        0.1400000       -0.65716157    0.00000000
                                                     2        0.1600000        1.18890794    0.00000000
                                                     2        0.2000000       -1.25772850    0.00000000
                                                     2        0.2600000        1.01188378    0.00000000
                                                     2        0.4000000       -1.09380874    0.00000000
                                                     2        0.5000000        0.96944888    0.00000000
                                                     2        1.0000000       -0.79256938    0.00000000
                                                     2        3.0000000        1.06443276    0.00000000
                                      S - G
                                                     0        0.0000010       -0.00635295    0.00000000
                                                     2        0.1200000        0.16918955    0.00000000
                                                     2        0.1600000       -0.38862576    0.00000000
                                                     2        0.2800000        0.25638263    0.00000000
                                                     2        0.5000000        0.29628419    0.00000000
                                                     2        0.9000000       -0.28791512    0.00000000
                                      P - G
                                                     0        0.0000010       -0.04756931    0.00000000
                                                     2        0.1200000        0.28430375    0.00000000
                                                     2        0.1600000       -0.69640032    0.00000000
                                                     2        0.2600000        1.13005668    0.00000000
                                                     2        0.4000000       -1.31433324    0.00000000
                                                     2        0.7000000        0.91526469    0.00000000
                                      D - G
                                                     0        0.0000010       -0.11496411    0.00000000
                                                     2        0.1200000        0.16620776    0.00000000
                                                     2        0.1800000       -0.30959819    0.00000000
                                                     2        0.3000000        0.16621458    0.00000000
                                                     2        0.6000000        0.27350556    0.00000000
                                      F - G
                                                     0        0.0000010        0.12037550    0.00000000
                                                     2        0.1200000       -0.48737077    0.00000000
                                                     2        0.1400000        0.58315350    0.00000000
                                                     2        0.3000000        0.00005188    0.00000000
                                                     2        0.5000000       -1.16063549    0.00000000
                                                     2        0.8000000        2.09053308    0.00000000
    7          8            8
                                      G and up 
                                                     0        0.0000010        0.00049668    0.00000000
                                                     2        0.1200000       -0.01803391    0.00000000
                                                     2        0.1400000        0.04014195    0.00000000
                                                     2        0.2000000       -0.02692147    0.00000000
                                                     2        0.2800000       -0.04241843    0.00000000
                                                     2        0.4000000        0.15412145    0.00000000
                                                     2        0.7000000       -0.40587006    0.00000000
                                                     2        1.1000000        1.75666647    0.00000000
                                      S - G
                                                     0        0.0000010       -0.01088195    0.00000000
                                                     2        0.1200000        0.09867335    0.00000000
                                                     2        0.2400000       -0.08484177    0.00000000
                                                     2        0.6000000       -1.39011554    0.00000000
                                                     2        2.5000000        1.36225910    0.00000000
                                      P - G
                                                     0        0.0000010        0.05874028    0.00000000
                                                     2        0.1200000       -0.11700340    0.00000000
                                                     2        0.1600000        0.08847775    0.00000000
                                                     2        0.3000000        0.04709907    0.00000000
                                                     2        1.2000000       -1.80388338    0.00000000
                                      D - G
                                                     0        0.0000010       -0.00541262    0.00000000
                                                     2        0.1200000       -0.26547906    0.00000000
                                                     2        0.1600000        1.04289661    0.00000000
                                                     2        0.2400000       -1.92800913    0.00000000
                                                     2        0.4000000        2.26691633    0.00000000
                                                     2        0.7000000       -1.97391482    0.00000000
                                      F - G
                                                     0        0.0000010       -0.02604870    0.00000000
                                                     2        0.1200000        0.37362552    0.00000000
                                                     2        0.1600000       -1.43526367    0.00000000
                                                     2        0.2200000        1.76778079    0.00000000
                                                     2        0.5000000       -1.90846303    0.00000000
    8          1            1
                                      F and up 
                                                     0        0.0000010       -0.00007675    0.00000000
                                                     2        0.1200000        0.05352699    0.00000000
                                                     2        0.1400000       -0.25123645    0.00000000
                                                     2        0.1600000        0.32188106    0.00000000
                                                     2        0.2200000       -0.25206857    0.00000000
                                                     2        0.3000000        0.19290477    0.00000000
                                                     2        0.5000000       -0.10129770    0.00000000
                                                     2        0.9000000        0.00314995    0.00000000
                                                     2        1.5000000        0.18401192    0.00000000
                                      S - F
                                                     0        0.0000010        0.08065976    0.00000000
                                                     2        0.1200000       -0.09231673    0.00000000
                                                     2        0.1600000       -0.03278082    0.00000000
                                                     2        0.2800000        0.38423402    0.00000000
                                                     2        0.6000000       -1.09357590    0.00000000
                                                     2        1.1000000        1.53099489    0.00000000
                                                     2        3.0000000       -2.63300202    0.00000000
                                      P - F
                                                     0        0.0000010       -0.11638665    0.00000000
                                                     2        0.1200000        0.35468655    0.00000000
                                                     2        0.1600000       -0.59160923    0.00000000
                                                     2        0.3000000        0.49390547    0.00000000
                                                     2        0.6000000       -0.37949835    0.00000000
                                                     2        1.6000000        0.89304688    0.00000000
                                      D - F
                                                     0        0.0000010        0.05443663    0.00000000
                                                     2        0.1200000       -0.29679479    0.00000000
                                                     2        0.1400000        0.36849872    0.00000000
                                                     2        0.2400000        0.02793449    0.00000000
                                                     2        0.4000000       -0.46312857    0.00000000
                                                     2        0.7000000        0.97587598    0.00000000
                                                     2        1.5000000       -2.43431102    0.00000000
    9          1            1
                                      F and up 
                                                     0        0.0000010       -0.00007675    0.00000000
                                                     2        0.1200000        0.05352699    0.00000000
                                                     2        0.1400000       -0.25123645    0.00000000
                                                     2        0.1600000        0.32188106    0.00000000
                                                     2        0.2200000       -0.25206857    0.00000000
                                                     2        0.3000000        0.19290477    0.00000000
                                                     2        0.5000000       -0.10129770    0.00000000
                                                     2        0.9000000        0.00314995    0.00000000
                                                     2        1.5000000        0.18401192    0.00000000
                                      S - F
                                                     0        0.0000010        0.08065976    0.00000000
                                                     2        0.1200000       -0.09231673    0.00000000
                                                     2        0.1600000       -0.03278082    0.00000000
                                                     2        0.2800000        0.38423402    0.00000000
                                                     2        0.6000000       -1.09357590    0.00000000
                                                     2        1.1000000        1.53099489    0.00000000
                                                     2        3.0000000       -2.63300202    0.00000000
                                      P - F
                                                     0        0.0000010       -0.11638665    0.00000000
                                                     2        0.1200000        0.35468655    0.00000000
                                                     2        0.1600000       -0.59160923    0.00000000
                                                     2        0.3000000        0.49390547    0.00000000
                                                     2        0.6000000       -0.37949835    0.00000000
                                                     2        1.6000000        0.89304688    0.00000000
                                      D - F
                                                     0        0.0000010        0.05443663    0.00000000
                                                     2        0.1200000       -0.29679479    0.00000000
                                                     2        0.1400000        0.36849872    0.00000000
                                                     2        0.2400000        0.02793449    0.00000000
                                                     2        0.4000000       -0.46312857    0.00000000
                                                     2        0.7000000        0.97587598    0.00000000
                                                     2        1.5000000       -2.43431102    0.00000000
   10          1            1
                                      F and up 
                                                     0        0.0000010       -0.00007675    0.00000000
                                                     2        0.1200000        0.05352699    0.00000000
                                                     2        0.1400000       -0.25123645    0.00000000
                                                     2        0.1600000        0.32188106    0.00000000
                                                     2        0.2200000       -0.25206857    0.00000000
                                                     2        0.3000000        0.19290477    0.00000000
                                                     2        0.5000000       -0.10129770    0.00000000
                                                     2        0.9000000        0.00314995    0.00000000
                                                     2        1.5000000        0.18401192    0.00000000
                                      S - F
                                                     0        0.0000010        0.08065976    0.00000000
                                                     2        0.1200000       -0.09231673    0.00000000
                                                     2        0.1600000       -0.03278082    0.00000000
                                                     2        0.2800000        0.38423402    0.00000000
                                                     2        0.6000000       -1.09357590    0.00000000
                                                     2        1.1000000        1.53099489    0.00000000
                                                     2        3.0000000       -2.63300202    0.00000000
                                      P - F
                                                     0        0.0000010       -0.11638665    0.00000000
                                                     2        0.1200000        0.35468655    0.00000000
                                                     2        0.1600000       -0.59160923    0.00000000
                                                     2        0.3000000        0.49390547    0.00000000
                                                     2        0.6000000       -0.37949835    0.00000000
                                                     2        1.6000000        0.89304688    0.00000000
                                      D - F
                                                     0        0.0000010        0.05443663    0.00000000
                                                     2        0.1200000       -0.29679479    0.00000000
                                                     2        0.1400000        0.36849872    0.00000000
                                                     2        0.2400000        0.02793449    0.00000000
                                                     2        0.4000000       -0.46312857    0.00000000
                                                     2        0.7000000        0.97587598    0.00000000
                                                     2        1.5000000       -2.43431102    0.00000000
   11          1            1
                                      F and up 
                                                     0        0.0000010       -0.00007675    0.00000000
                                                     2        0.1200000        0.05352699    0.00000000
                                                     2        0.1400000       -0.25123645    0.00000000
                                                     2        0.1600000        0.32188106    0.00000000
                                                     2        0.2200000       -0.25206857    0.00000000
                                                     2        0.3000000        0.19290477    0.00000000
                                                     2        0.5000000       -0.10129770    0.00000000
                                                     2        0.9000000        0.00314995    0.00000000
                                                     2        1.5000000        0.18401192    0.00000000
                                      S - F
                                                     0        0.0000010        0.08065976    0.00000000
                                                     2        0.1200000       -0.09231673    0.00000000
                                                     2        0.1600000       -0.03278082    0.00000000
                                                     2        0.2800000        0.38423402    0.00000000
                                                     2        0.6000000       -1.09357590    0.00000000
                                                     2        1.1000000        1.53099489    0.00000000
                                                     2        3.0000000       -2.63300202    0.00000000
                                      P - F
                                                     0        0.0000010       -0.11638665    0.00000000
                                                     2        0.1200000        0.35468655    0.00000000
                                                     2        0.1600000       -0.59160923    0.00000000
                                                     2        0.3000000        0.49390547    0.00000000
                                                     2        0.6000000       -0.37949835    0.00000000
                                                     2        1.6000000        0.89304688    0.00000000
                                      D - F
                                                     0        0.0000010        0.05443663    0.00000000
                                                     2        0.1200000       -0.29679479    0.00000000
                                                     2        0.1400000        0.36849872    0.00000000
                                                     2        0.2400000        0.02793449    0.00000000
                                                     2        0.4000000       -0.46312857    0.00000000
                                                     2        0.7000000        0.97587598    0.00000000
                                                     2        1.5000000       -2.43431102    0.00000000
   12          1            1
                                      F and up 
                                                     0        0.0000010       -0.00007675    0.00000000
                                                     2        0.1200000        0.05352699    0.00000000
                                                     2        0.1400000       -0.25123645    0.00000000
                                                     2        0.1600000        0.32188106    0.00000000
                                                     2        0.2200000       -0.25206857    0.00000000
                                                     2        0.3000000        0.19290477    0.00000000
                                                     2        0.5000000       -0.10129770    0.00000000
                                                     2        0.9000000        0.00314995    0.00000000
                                                     2        1.5000000        0.18401192    0.00000000
                                      S - F
                                                     0        0.0000010        0.08065976    0.00000000
                                                     2        0.1200000       -0.09231673    0.00000000
                                                     2        0.1600000       -0.03278082    0.00000000
                                                     2        0.2800000        0.38423402    0.00000000
                                                     2        0.6000000       -1.09357590    0.00000000
                                                     2        1.1000000        1.53099489    0.00000000
                                                     2        3.0000000       -2.63300202    0.00000000
                                      P - F
                                                     0        0.0000010       -0.11638665    0.00000000
                                                     2        0.1200000        0.35468655    0.00000000
                                                     2        0.1600000       -0.59160923    0.00000000
                                                     2        0.3000000        0.49390547    0.00000000
                                                     2        0.6000000       -0.37949835    0.00000000
                                                     2        1.6000000        0.89304688    0.00000000
                                      D - F
                                                     0        0.0000010        0.05443663    0.00000000
                                                     2        0.1200000       -0.29679479    0.00000000
                                                     2        0.1400000        0.36849872    0.00000000
                                                     2        0.2400000        0.02793449    0.00000000
                                                     2        0.4000000       -0.46312857    0.00000000
                                                     2        0.7000000        0.97587598    0.00000000
                                                     2        1.5000000       -2.43431102    0.00000000
   13          1            1
                                      F and up 
                                                     0        0.0000010       -0.00007675    0.00000000
                                                     2        0.1200000        0.05352699    0.00000000
                                                     2        0.1400000       -0.25123645    0.00000000
                                                     2        0.1600000        0.32188106    0.00000000
                                                     2        0.2200000       -0.25206857    0.00000000
                                                     2        0.3000000        0.19290477    0.00000000
                                                     2        0.5000000       -0.10129770    0.00000000
                                                     2        0.9000000        0.00314995    0.00000000
                                                     2        1.5000000        0.18401192    0.00000000
                                      S - F
                                                     0        0.0000010        0.08065976    0.00000000
                                                     2        0.1200000       -0.09231673    0.00000000
                                                     2        0.1600000       -0.03278082    0.00000000
                                                     2        0.2800000        0.38423402    0.00000000
                                                     2        0.6000000       -1.09357590    0.00000000
                                                     2        1.1000000        1.53099489    0.00000000
                                                     2        3.0000000       -2.63300202    0.00000000
                                      P - F
                                                     0        0.0000010       -0.11638665    0.00000000
                                                     2        0.1200000        0.35468655    0.00000000
                                                     2        0.1600000       -0.59160923    0.00000000
                                                     2        0.3000000        0.49390547    0.00000000
                                                     2        0.6000000       -0.37949835    0.00000000
                                                     2        1.6000000        0.89304688    0.00000000
                                      D - F
                                                     0        0.0000010        0.05443663    0.00000000
                                                     2        0.1200000       -0.29679479    0.00000000
                                                     2        0.1400000        0.36849872    0.00000000
                                                     2        0.2400000        0.02793449    0.00000000
                                                     2        0.4000000       -0.46312857    0.00000000
                                                     2        0.7000000        0.97587598    0.00000000
                                                     2        1.5000000       -2.43431102    0.00000000
   14          1            1
                                      F and up 
                                                     0        0.0000010       -0.00007675    0.00000000
                                                     2        0.1200000        0.05352699    0.00000000
                                                     2        0.1400000       -0.25123645    0.00000000
                                                     2        0.1600000        0.32188106    0.00000000
                                                     2        0.2200000       -0.25206857    0.00000000
                                                     2        0.3000000        0.19290477    0.00000000
                                                     2        0.5000000       -0.10129770    0.00000000
                                                     2        0.9000000        0.00314995    0.00000000
                                                     2        1.5000000        0.18401192    0.00000000
                                      S - F
                                                     0        0.0000010        0.08065976    0.00000000
                                                     2        0.1200000       -0.09231673    0.00000000
                                                     2        0.1600000       -0.03278082    0.00000000
                                                     2        0.2800000        0.38423402    0.00000000
                                                     2        0.6000000       -1.09357590    0.00000000
                                                     2        1.1000000        1.53099489    0.00000000
                                                     2        3.0000000       -2.63300202    0.00000000
                                      P - F
                                                     0        0.0000010       -0.11638665    0.00000000
                                                     2        0.1200000        0.35468655    0.00000000
                                                     2        0.1600000       -0.59160923    0.00000000
                                                     2        0.3000000        0.49390547    0.00000000
                                                     2        0.6000000       -0.37949835    0.00000000
                                                     2        1.6000000        0.89304688    0.00000000
                                      D - F
                                                     0        0.0000010        0.05443663    0.00000000
                                                     2        0.1200000       -0.29679479    0.00000000
                                                     2        0.1400000        0.36849872    0.00000000
                                                     2        0.2400000        0.02793449    0.00000000
                                                     2        0.4000000       -0.46312857    0.00000000
                                                     2        0.7000000        0.97587598    0.00000000
                                                     2        1.5000000       -2.43431102    0.00000000
   15          1            1
                                      F and up 
                                                     0        0.0000010       -0.00007675    0.00000000
                                                     2        0.1200000        0.05352699    0.00000000
                                                     2        0.1400000       -0.25123645    0.00000000
                                                     2        0.1600000        0.32188106    0.00000000
                                                     2        0.2200000       -0.25206857    0.00000000
                                                     2        0.3000000        0.19290477    0.00000000
                                                     2        0.5000000       -0.10129770    0.00000000
                                                     2        0.9000000        0.00314995    0.00000000
                                                     2        1.5000000        0.18401192    0.00000000
                                      S - F
                                                     0        0.0000010        0.08065976    0.00000000
                                                     2        0.1200000       -0.09231673    0.00000000
                                                     2        0.1600000       -0.03278082    0.00000000
                                                     2        0.2800000        0.38423402    0.00000000
                                                     2        0.6000000       -1.09357590    0.00000000
                                                     2        1.1000000        1.53099489    0.00000000
                                                     2        3.0000000       -2.63300202    0.00000000
                                      P - F
                                                     0        0.0000010       -0.11638665    0.00000000
                                                     2        0.1200000        0.35468655    0.00000000
                                                     2        0.1600000       -0.59160923    0.00000000
                                                     2        0.3000000        0.49390547    0.00000000
                                                     2        0.6000000       -0.37949835    0.00000000
                                                     2        1.6000000        0.89304688    0.00000000
                                      D - F
                                                     0        0.0000010        0.05443663    0.00000000
                                                     2        0.1200000       -0.29679479    0.00000000
                                                     2        0.1400000        0.36849872    0.00000000
                                                     2        0.2400000        0.02793449    0.00000000
                                                     2        0.4000000       -0.46312857    0.00000000
                                                     2        0.7000000        0.97587598    0.00000000
                                                     2        1.5000000       -2.43431102    0.00000000
 ======================================================================================================
   233 basis functions,   389 primitive gaussians,   247 cartesian basis functions
    27 alpha electrons       27 beta electrons
       nuclear repulsion energy       321.9245619324 Hartrees.
 NAtoms=   15 NActive=   15 NUniq=   15 SFac= 1.00D+00 NAtFMM=   60 NAOKFM=F Big=F
   1 Symmetry operations used in ECPInt.
 ECPInt:  NShTT=    5356 NPrTT=   23992 LenC2=    5356 LenP2D=   19231.
 LDataN:  DoStor=T MaxTD1= 6 Len=  172
 Initial guess from the checkpoint file:  "Grambow2020_wb97xd3_008130_reverse_mol1.chk"
 B after Tr=     0.303178   -0.267852    0.209063
         Rot=    0.894754   -0.034094   -0.140210   -0.422603 Ang= -53.05 deg.
 >>>>>>>>>> Convergence criterion not met.
 SCF Done:  E(RHF) =  -343.901446609     A.U. after    2 cycles
            NFock=  1  Conv=0.10D-01     -V/T= 2.0043

 **********************************************************************

            Population analysis using the SCF Density.

 **********************************************************************

 Orbital symmetries:
       Occupied  (A) (A) (A) (A) (A) (A) (A) (A) (A) (A) (A) (A)
                 (A) (A) (A) (A) (A) (A) (A) (A) (A) (A) (A) (A)
                 (A) (A) (A)
       Virtual   (A) (A) (A) (A) (A) (A) (A) (A) (A) (A) (A) (A)
                 (A) (A) (A) (A) (A) (A) (A) (A) (A) (A) (A) (A)
                 (A) (A) (A) (A) (A) (A) (A) (A) (A) (A) (A) (A)
                 (A) (A) (A) (A) (A) (A) (A) (A) (A) (A) (A) (A)
                 (A) (A) (A) (A) (A) (A) (A) (A) (A) (A) (A) (A)
                 (A) (A) (A) (A) (A) (A) (A) (A) (A) (A) (A) (A)
                 (A) (A) (A) (A) (A) (A) (A) (A) (A) (A) (A) (A)
                 (A) (A) (A) (A) (A) (A) (A) (A) (A) (A) (A) (A)
                 (A) (A) (A) (A) (A) (A) (A) (A) (A) (A) (A) (A)
                 (A) (A) (A) (A) (A) (A) (A) (A) (A) (A) (A) (A)
                 (A) (A) (A) (A) (A) (A) (A) (A) (A) (A) (A) (A)
                 (A) (A) (A) (A) (A) (A) (A) (A) (A) (A) (A) (A)
                 (A) (A) (A) (A) (A) (A) (A) (A) (A) (A) (A) (A)
                 (A) (A) (A) (A) (A) (A) (A) (A) (A) (A) (A) (A)
                 (A) (A) (A) (A) (A) (A) (A) (A) (A) (A) (A) (A)
                 (A) (A) (A) (A) (A) (A) (A) (A) (A) (A) (A) (A)
                 (A) (A) (A) (A) (A) (A) (A) (A) (A) (A) (A) (A)
                 (A) (A)
 The electronic state is 1-A.
 Alpha  occ. eigenvalues --  -20.64017 -20.58838 -11.38271 -11.30747 -11.25706
 Alpha  occ. eigenvalues --  -11.24692 -11.22720  -1.59289  -1.49691  -1.07857
 Alpha  occ. eigenvalues --   -1.00790  -0.93741  -0.82715  -0.77028  -0.75637
 Alpha  occ. eigenvalues --   -0.71855  -0.68732  -0.65199  -0.62539  -0.60409
 Alpha  occ. eigenvalues --   -0.57880  -0.56816  -0.52594  -0.51076  -0.47345
 Alpha  occ. eigenvalues --   -0.35960  -0.25607
 Alpha virt. eigenvalues --    0.03629   0.03836   0.04151   0.04477   0.05915
 Alpha virt. eigenvalues --    0.06307   0.06664   0.07900   0.09881   0.10350
 Alpha virt. eigenvalues --    0.11933   0.12637   0.12789   0.13679   0.14525
 Alpha virt. eigenvalues --    0.15102   0.15273   0.15654   0.16257   0.16533
 Alpha virt. eigenvalues --    0.17124   0.18311   0.18875   0.19069   0.20064
 Alpha virt. eigenvalues --    0.21049   0.22946   0.25030   0.25699   0.27905
 Alpha virt. eigenvalues --    0.28598   0.29055   0.29389   0.31309   0.31581
 Alpha virt. eigenvalues --    0.32924   0.33164   0.33795   0.35556   0.36325
 Alpha virt. eigenvalues --    0.37651   0.38479   0.39259   0.40908   0.41192
 Alpha virt. eigenvalues --    0.42700   0.43441   0.44150   0.45454   0.45784
 Alpha virt. eigenvalues --    0.47256   0.47864   0.48953   0.49944   0.50309
 Alpha virt. eigenvalues --    0.50658   0.51854   0.54222   0.54523   0.55716
 Alpha virt. eigenvalues --    0.56224   0.56834   0.58067   0.58791   0.59661
 Alpha virt. eigenvalues --    0.61619   0.62600   0.63020   0.63426   0.64753
 Alpha virt. eigenvalues --    0.66344   0.66802   0.68016   0.68318   0.69822
 Alpha virt. eigenvalues --    0.71249   0.71470   0.72048   0.72760   0.73563
 Alpha virt. eigenvalues --    0.75365   0.75464   0.77159   0.78206   0.78944
 Alpha virt. eigenvalues --    0.79372   0.80143   0.81024   0.81336   0.82698
 Alpha virt. eigenvalues --    0.83911   0.86171   0.86750   0.89126   0.89382
 Alpha virt. eigenvalues --    0.90499   0.91379   0.92669   0.94065   0.96275
 Alpha virt. eigenvalues --    0.98310   1.01978   1.05305   1.08167   1.10437
 Alpha virt. eigenvalues --    1.12455   1.13424   1.17592   1.19809   1.21134
 Alpha virt. eigenvalues --    1.25175   1.26891   1.30591   1.30837   1.33029
 Alpha virt. eigenvalues --    1.35144   1.38496   1.42872   1.43562   1.46283
 Alpha virt. eigenvalues --    1.49904   1.53173   1.54357   1.56730   1.60181
 Alpha virt. eigenvalues --    1.62444   1.63894   1.67088   1.68806   1.71534
 Alpha virt. eigenvalues --    1.72692   1.73655   1.75694   1.76407   1.77024
 Alpha virt. eigenvalues --    1.81221   1.83701   1.84403   1.86026   1.86541
 Alpha virt. eigenvalues --    1.88640   1.89228   1.92334   1.96996   1.98375
 Alpha virt. eigenvalues --    1.99296   2.01157   2.03866   2.04437   2.05245
 Alpha virt. eigenvalues --    2.09710   2.11180   2.12025   2.14993   2.19075
 Alpha virt. eigenvalues --    2.20497   2.23378   2.24614   2.29213   2.31212
 Alpha virt. eigenvalues --    2.31431   2.33960   2.35740   2.36619   2.38829
 Alpha virt. eigenvalues --    2.41700   2.45435   2.45944   2.46860   2.49093
 Alpha virt. eigenvalues --    2.50349   2.54960   2.58144   2.58925   2.62717
 Alpha virt. eigenvalues --    2.66457   2.71527   2.75961   2.77466   2.81237
 Alpha virt. eigenvalues --    2.81953   2.89223   2.91929   2.94482   2.96815
 Alpha virt. eigenvalues --    3.02375   3.07970   3.11274   3.17069   3.21303
 Alpha virt. eigenvalues --    3.25216   3.25755   3.40556   3.46538   3.69605
 Alpha virt. eigenvalues --    3.74754   3.87199   3.93080   3.94449   3.96511
 Alpha virt. eigenvalues --    3.98802   4.07112   4.12698   4.17919   4.29487
 Alpha virt. eigenvalues --    4.34679
          Condensed to atoms (all electrons):
 Mulliken charges:
               1
     1  C    0.215271
     2  O   -1.013744
     3  C    1.672135
     4  C   -0.146724
     5  C    0.458254
     6  C    0.399318
     7  O   -1.287219
     8  H   -0.112524
     9  H    0.067731
    10  H   -0.016484
    11  H    0.000681
    12  H   -0.158356
    13  H   -0.173513
    14  H    0.057358
    15  H    0.037815
 Sum of Mulliken charges =  -0.00000
 Mulliken charges with hydrogens summed into heavy atoms:
               1
     1  C    0.170478
     2  O   -1.013744
     3  C    1.655650
     4  C   -0.304399
     5  C    0.284742
     6  C    0.494492
     7  O   -1.287219
 Electronic spatial extent (au):  <R**2>=            634.3434
 Charge=              0.0000 electrons
 Dipole moment (field-independent basis, Debye):
    X=              0.7168    Y=              0.5279    Z=             -0.1989  Tot=              0.9122

 Test job not archived.
 1\1\GINC-SE028\SP\RHF\Aug-CC-pVDZ\C5H8O2\OHZDE\09-Apr-2025\0\\#t hf au
 g-cc-pvdz iop(5/13=1,5/36=2,99/5=2) pseudo=read geom=check guess=(read
 ,tcheck) scf=(maxcycle=1)\\title\\0,1\C,0,-1.45116523,1.01672695,0.293
 38509\O,0,-0.94514108,1.06740176,-0.94247977\C,0,0.30664824,0.81227326
 ,-1.15212081\C,0,0.10469727,-1.53209697,-0.65736932\C,0,0.01088759,-1.
 01804472,0.588648\C,0,1.06268122,-0.02555007,0.9442346\O,0,1.19527041,
 0.93758315,-0.1701949\H,0,-2.52591798,1.12846878,0.28410261\H,0,-0.878
 02969,1.50685309,1.06777248\H,0,0.64533819,0.96319,-2.166176\H,0,1.033
 20411,-1.4810332,-1.21233542\H,0,-0.66920761,-2.16591801,-1.07244993\H
 ,0,-0.74427783,-1.28858603,1.31033896\H,0,0.83807514,0.54072281,1.8462
 3095\H,0,2.05725327,-0.46462383,1.03463147\\Version=ES64L-G16RevC.01\S
 tate=1-A\HF=-343.9014466\RMSD=1.006e-02\Dipole=0.3466202,-0.091622,0.0
 158175\Quadrupole=-0.7209173,-2.6688138,3.3897311,0.1268778,-0.4496293
 ,0.0215889\PG=C01 [X(C5H8O2)]\\@


 EDUCATION DOESN'T COST 
           ... IT PAYS!

 -- POSTMARK, UNIV. OF MISSISSIPPI, DEC 78
 Job cpu time:       0 days  0 hours  1 minutes  2.2 seconds.
 Elapsed time:       0 days  0 hours  0 minutes  4.8 seconds.
 File lengths (MBytes):  RWF=     10 Int=      0 D2E=      0 Chk=      8 Scr=      1
 Normal termination of Gaussian 16 at Wed Apr  9 18:51:54 2025.
