 Entering Gaussian System, Link 0=g16
 Input=Grambow2020_wb97xd3_006153_reverse_mol1.gjf
 Output=Grambow2020_wb97xd3_006153_reverse_mol1.log
 Initial command:
 /arc/software/Gaussian/g16.c01/l1.exe "/tmp/slurm/4878171/Gau-521111.inp" -scrdir="/tmp/slurm/4878171/"
 Entering Link 1 = /arc/software/Gaussian/g16.c01/l1.exe PID=    521112.
  
 Copyright (c) 1988-2019, Gaussian, Inc.  All Rights Reserved.
  
 This is part of the Gaussian(R) 16 program.  It is based on
 the Gaussian(R) 09 system (copyright 2009, Gaussian, Inc.),
 the Gaussian(R) 03 system (copyright 2003, Gaussian, Inc.),
 the Gaussian(R) 98 system (copyright 1998, Gaussian, Inc.),
 the Gaussian(R) 94 system (copyright 1995, Gaussian, Inc.),
 the Gaussian 92(TM) system (copyright 1992, Gaussian, Inc.),
 the Gaussian 90(TM) system (copyright 1990, Gaussian, Inc.),
 the Gaussian 88(TM) system (copyright 1988, Gaussian, Inc.),
 the Gaussian 86(TM) system (copyright 1986, Carnegie Mellon
 University), and the Gaussian 82(TM) system (copyright 1983,
 Carnegie Mellon University). Gaussian is a federally registered
 trademark of Gaussian, Inc.
  
 This software contains proprietary and confidential information,
 including trade secrets, belonging to Gaussian, Inc.
  
 This software is provided under written license and may be
 used, copied, transmitted, or stored only in accord with that
 written license.
  
 The following legend is applicable only to US Government
 contracts under FAR:
  
                    RESTRICTED RIGHTS LEGEND
  
 Use, reproduction and disclosure by the US Government is
 subject to restrictions as set forth in subparagraphs (a)
 and (c) of the Commercial Computer Software - Restricted
 Rights clause in FAR 52.227-19.
  
 Gaussian, Inc.
 340 Quinnipiac St., Bldg. 40, Wallingford CT 06492
  
  
 ---------------------------------------------------------------
 Warning -- This program may not be used in any manner that
 competes with the business of Gaussian, Inc. or will provide
 assistance to any competitor of Gaussian, Inc.  The licensee
 of this program is prohibited from giving any competitor of
 Gaussian, Inc. access to this program.  By using this program,
 the user acknowledges that Gaussian, Inc. is engaged in the
 business of creating and licensing software in the field of
 computational chemistry and represents and warrants to the
 licensee that it is not a competitor of Gaussian, Inc. and that
 it will not use this program in any manner prohibited above.
 ---------------------------------------------------------------
  

 Cite this work as:
 Gaussian 16, Revision C.01,
 M. J. Frisch, G. W. Trucks, H. B. Schlegel, G. E. Scuseria, 
 M. A. Robb, J. R. Cheeseman, G. Scalmani, V. Barone, 
 G. A. Petersson, H. Nakatsuji, X. Li, M. Caricato, A. V. Marenich, 
 J. Bloino, B. G. Janesko, R. Gomperts, B. Mennucci, H. P. Hratchian, 
 J. V. Ortiz, A. F. Izmaylov, J. L. Sonnenberg, D. Williams-Young, 
 F. Ding, F. Lipparini, F. Egidi, J. Goings, B. Peng, A. Petrone, 
 T. Henderson, D. Ranasinghe, V. G. Zakrzewski, J. Gao, N. Rega, 
 G. Zheng, W. Liang, M. Hada, M. Ehara, K. Toyota, R. Fukuda, 
 J. Hasegawa, M. Ishida, T. Nakajima, Y. Honda, O. Kitao, H. Nakai, 
 T. Vreven, K. Throssell, J. A. Montgomery, Jr., J. E. Peralta, 
 F. Ogliaro, M. J. Bearpark, J. J. Heyd, E. N. Brothers, K. N. Kudin, 
 V. N. Staroverov, T. A. Keith, R. Kobayashi, J. Normand, 
 K. Raghavachari, A. P. Rendell, J. C. Burant, S. S. Iyengar, 
 J. Tomasi, M. Cossi, J. M. Millam, M. Klene, C. Adamo, R. Cammi, 
 J. W. Ochterski, R. L. Martin, K. Morokuma, O. Farkas, 
 J. B. Foresman, and D. J. Fox, Gaussian, Inc., Wallingford CT, 2019.
 
 ******************************************
 Gaussian 16:  ES64L-G16RevC.01  3-Jul-2019
                 9-Apr-2025 
 ******************************************
 %nprocs=16
 Will use up to   16 processors via shared memory.
 %mem=30GB
 %chk=Grambow2020_wb97xd3_006153_reverse_mol1.chk
 ----------------------------------------------------------------------
 #t hf aug-cc-pvdz symm=none int=(grid=ultrafine) guess=(read,tcheck) s
 table=(opt,rrhf)
 ----------------------------------------------------------------------
 -----
 title
 -----
 Symbolic Z-matrix:
 Charge =  0 Multiplicity = 1
 O                     2.70755   0.29868   0.12694 
 C                     1.51917  -0.25731   0.48006 
 C                     0.348    -0.03129  -0.35852 
 C                    -0.49439  -1.20319   0.08455 
 C                    -1.85087   0.47833  -0.35569 
 C                    -0.60929   1.23519  -0.21827 
 H                     3.29286   0.35072   0.88495 
 H                     0.68031  -1.72952   0.3724 
 H                     1.33619  -0.29875   1.55472 
 H                     0.59375  -0.14867  -1.41438 
 H                    -0.9289   -1.16433   1.07718 
 H                    -0.91546  -1.89522  -0.63282 
 H                    -2.21317   0.25142  -1.35126 
 H                    -2.59807   0.47859   0.426 
 H                    -0.49358   1.69586   0.76326 
 H                    -0.39278   1.97662  -0.98588 
 
                    Distance matrix (angstroms):
                    1          2          3          4          5
     1  O    0.000000
     2  C    1.358701   0.000000
     3  C    2.431460   1.458054   0.000000
     4  C    3.536927   2.259547   1.509731   0.000000
     5  C    4.587413   3.549195   2.257157   2.204847   0.000000
     6  C    3.463761   2.691758   1.593756   2.459797   1.460557
     7  H    0.959105   1.918234   3.219367   4.171161   5.292769
     8  H    2.878119   1.697847   1.878472   1.319018   3.436799
     9  H    2.067873   1.090911   2.169911   2.516040   3.796163
    10  H    2.654044   2.111189   1.090425   2.131397   2.736808
    11  H    4.033248   2.678107   2.230576   1.084265   2.366741
    12  H    4.303095   3.138258   2.268438   1.082042   2.566229
    13  H    5.138166   4.188421   2.761352   2.670510   1.083471
    14  H    5.317079   4.182832   3.091077   2.714851   1.081357
    15  H    3.550244   2.818908   2.224794   2.977446   2.139315
    16  H    3.696741   3.285574   2.230262   3.356689   2.183584
                    6          7          8          9         10
     6  C    0.000000
     7  H    4.150442   0.000000
     8  H    3.286560   3.378690   0.000000
     9  H    3.046532   2.167707   1.968542   0.000000
    10  H    2.189308   3.580718   2.387297   3.064198   0.000000
    11  H    2.745543   4.489494   1.845456   2.471414   3.091585
    12  H    3.172546   5.005781   1.893253   3.521927   2.437002
    13  H    2.196334   5.943639   3.907347   4.620102   2.835990
    14  H    2.223225   5.910159   3.953021   4.166131   3.737396
    15  H    1.090417   4.020116   3.641986   2.820099   3.053969
    16  H    1.088959   4.441567   4.090473   3.823783   2.381960
                   11         12         13         14         15
    11  H    0.000000
    12  H    1.859702   0.000000
    13  H    3.090471   2.609266   0.000000
    14  H    2.430913   3.096324   1.832589   0.000000
    15  H    2.910109   3.875940   3.084573   2.454458   0.000000
    16  H    3.795946   3.922883   2.534487   3.016748   1.774395
                   16
    16  H    0.000000
 Symmetry turned off by external request.
 Rotational constants (GHZ):           7.4071729           2.2041612           1.8477214
   228 basis functions,   368 primitive gaussians,   240 cartesian basis functions
    24 alpha electrons       24 beta electrons
       nuclear repulsion energy       243.8976669643 Hartrees.
 NAtoms=   16 NActive=   16 NUniq=   16 SFac= 1.00D+00 NAtFMM=   60 NAOKFM=F Big=F
 ExpMin= 2.97D-02 ExpMax= 1.17D+04 ExpMxC= 4.01D+02 IAcc=3 IRadAn=         5 AccDes= 0.00D+00
 Harris functional with IExCor=  205 and IRadAn=       5 diagonalized for initial guess.
 HarFok:  IExCor=  205 AccDes= 0.00D+00 IRadAn=         5 IDoV= 1 UseB2=F ITyADJ=14
 ICtDFT=  3500011 ScaDFX=  1.000000  1.000000  1.000000  1.000000
 FoFCou: FMM=F IPFlag=           0 FMFlag=      100000 FMFlg1=           0
         NFxFlg=           0 DoJE=T BraDBF=F KetDBF=T FulRan=T
         wScrn=  0.000000 ICntrl=       500 IOpCl=  0 I1Cent=   200000004 NGrid=           0
         NMat0=    1 NMatS0=      1 NMatT0=    0 NMatD0=    1 NMtDS0=    0 NMtDT0=    0
 Symmetry not used in FoFCou.
 SCF Done:  E(RHF) =  -269.792916129     A.U. after   17 cycles
            NFock= 17  Conv=0.42D-08     -V/T= 2.0008

 **********************************************************************

            Population analysis using the SCF Density.

 **********************************************************************

 Alpha  occ. eigenvalues --  -20.60872 -11.31622 -11.24270 -11.23562 -11.22981
 Alpha  occ. eigenvalues --  -11.22734  -1.41558  -1.12016  -0.99265  -0.89848
 Alpha  occ. eigenvalues --   -0.82757  -0.76824  -0.73764  -0.65787  -0.62582
 Alpha  occ. eigenvalues --   -0.59308  -0.58866  -0.55598  -0.52535  -0.51950
 Alpha  occ. eigenvalues --   -0.48694  -0.46701  -0.38966  -0.22171
 Alpha virt. eigenvalues --    0.03069   0.04295   0.04667   0.05257   0.05551
 Alpha virt. eigenvalues --    0.06792   0.06887   0.07049   0.07443   0.08435
 Alpha virt. eigenvalues --    0.09514   0.12947   0.13051   0.13998   0.14742
 Alpha virt. eigenvalues --    0.14776   0.15310   0.16166   0.16551   0.16816
 Alpha virt. eigenvalues --    0.18176   0.18795   0.19442   0.19649   0.20102
 Alpha virt. eigenvalues --    0.20412   0.20958   0.21760   0.23859   0.24319
 Alpha virt. eigenvalues --    0.26385   0.26979   0.28372   0.30616   0.31514
 Alpha virt. eigenvalues --    0.32164   0.33239   0.34393   0.36294   0.36815
 Alpha virt. eigenvalues --    0.38147   0.38336   0.39039   0.40150   0.42353
 Alpha virt. eigenvalues --    0.43047   0.43854   0.44454   0.45359   0.46553
 Alpha virt. eigenvalues --    0.47153   0.47182   0.47811   0.48447   0.48555
 Alpha virt. eigenvalues --    0.49799   0.49873   0.51892   0.53001   0.53511
 Alpha virt. eigenvalues --    0.54850   0.55601   0.56077   0.57992   0.58761
 Alpha virt. eigenvalues --    0.60225   0.61422   0.62517   0.63581   0.64068
 Alpha virt. eigenvalues --    0.65280   0.66189   0.66581   0.68025   0.68486
 Alpha virt. eigenvalues --    0.68708   0.69737   0.70446   0.72234   0.72780
 Alpha virt. eigenvalues --    0.73586   0.74751   0.75889   0.77070   0.77224
 Alpha virt. eigenvalues --    0.78052   0.79163   0.80349   0.81370   0.82087
 Alpha virt. eigenvalues --    0.84419   0.84782   0.86476   0.87754   0.88714
 Alpha virt. eigenvalues --    0.89975   0.91514   0.92253   0.93657   0.94281
 Alpha virt. eigenvalues --    0.97175   0.98206   0.99418   1.00651   1.04838
 Alpha virt. eigenvalues --    1.07542   1.10197   1.12934   1.14553   1.17972
 Alpha virt. eigenvalues --    1.19013   1.20873   1.21990   1.23730   1.25006
 Alpha virt. eigenvalues --    1.26592   1.29467   1.31670   1.32687   1.37374
 Alpha virt. eigenvalues --    1.40029   1.43231   1.45022   1.48921   1.50151
 Alpha virt. eigenvalues --    1.52275   1.55085   1.59320   1.61655   1.63993
 Alpha virt. eigenvalues --    1.65621   1.69003   1.71135   1.74240   1.76156
 Alpha virt. eigenvalues --    1.79387   1.80229   1.82209   1.83985   1.85639
 Alpha virt. eigenvalues --    1.88283   1.91324   1.93221   1.95829   1.99254
 Alpha virt. eigenvalues --    1.99962   2.00219   2.03590   2.05396   2.07525
 Alpha virt. eigenvalues --    2.10513   2.10865   2.12203   2.14547   2.15321
 Alpha virt. eigenvalues --    2.17554   2.18280   2.21253   2.23774   2.25002
 Alpha virt. eigenvalues --    2.26381   2.30283   2.33620   2.34486   2.35821
 Alpha virt. eigenvalues --    2.40162   2.42615   2.43288   2.47219   2.48773
 Alpha virt. eigenvalues --    2.51425   2.53363   2.54824   2.57190   2.60805
 Alpha virt. eigenvalues --    2.64311   2.64953   2.68084   2.69921   2.74407
 Alpha virt. eigenvalues --    2.76641   2.78289   2.81696   2.85387   2.87664
 Alpha virt. eigenvalues --    2.91598   2.93351   2.97453   3.03737   3.09721
 Alpha virt. eigenvalues --    3.11446   3.14240   3.19058   3.22228   3.30974
 Alpha virt. eigenvalues --    3.32465   3.39446   3.58703   3.73538   3.79578
 Alpha virt. eigenvalues --    3.80927   3.98616   4.23520   4.36725
          Condensed to atoms (all electrons):
 Mulliken charges:
               1
     1  O   -0.710081
     2  C    0.723731
     3  C    0.001055
     4  C    0.298892
     5  C    0.731514
     6  C    0.456098
     7  H    0.154955
     8  H    0.271092
     9  H   -0.275357
    10  H   -0.218082
    11  H   -0.123552
    12  H   -0.260782
    13  H   -0.358444
    14  H   -0.332080
    15  H   -0.203137
    16  H   -0.155823
 Sum of Mulliken charges =  -0.00000
 Mulliken charges with hydrogens summed into heavy atoms:
               1
     1  O   -0.555126
     2  C    0.448374
     3  C   -0.217027
     4  C    0.185650
     5  C    0.040990
     6  C    0.097138
 Electronic spatial extent (au):  <R**2>=            709.0890
 Charge=             -0.0000 electrons
 Dipole moment (field-independent basis, Debye):
    X=              0.8407    Y=              0.3837    Z=              1.5645  Tot=              1.8171
 NROrb=    228 NOA=    24 NOB=    24 NVA=   204 NVB=   204

 **** Warning!!: The largest alpha MO coefficient is  0.58921184D+02

    12 initial guesses have been made.
 Iteration     1 Dimension    12 NMult     0 NNew     12
 New state      1 was old state      2
 Iteration     2 Dimension    24 NMult    12 NNew     12
 Iteration     3 Dimension    27 NMult    24 NNew      3
 Iteration     4 Dimension    30 NMult    27 NNew      3
 Iteration     5 Dimension    33 NMult    30 NNew      3
 Iteration     6 Dimension    36 NMult    33 NNew      3
 Iteration     7 Dimension    39 NMult    36 NNew      3
 ***********************************************************************
 Stability analysis using <AA,BB:AA,BB> singles matrix:
 ***********************************************************************
 Ground to excited state transition densities written to RWF  633

 Eigenvectors of the stability matrix:
 
 Excited state symmetry could not be determined.
 Eigenvector   1:      Singlet-?Sym  Eigenvalue= 0.1246312  <S**2>=0.000
      24 -> 25         0.18114
      24 -> 26        -0.12877
      24 -> 29         0.49655
      24 -> 31        -0.11015
      24 -> 32         0.11597
      24 -> 33        -0.16187
      24 -> 34        -0.23536
 The wavefunction is stable under the perturbations considered.
 The wavefunction is already stable.

 **********************************************************************

            Population analysis using the SCF Density.

 **********************************************************************

 Alpha  occ. eigenvalues --  -20.60872 -11.31622 -11.24270 -11.23562 -11.22981
 Alpha  occ. eigenvalues --  -11.22734  -1.41558  -1.12016  -0.99265  -0.89848
 Alpha  occ. eigenvalues --   -0.82757  -0.76824  -0.73764  -0.65787  -0.62582
 Alpha  occ. eigenvalues --   -0.59308  -0.58866  -0.55598  -0.52535  -0.51950
 Alpha  occ. eigenvalues --   -0.48694  -0.46701  -0.38966  -0.22171
 Alpha virt. eigenvalues --    0.03069   0.04295   0.04667   0.05257   0.05551
 Alpha virt. eigenvalues --    0.06792   0.06887   0.07049   0.07443   0.08435
 Alpha virt. eigenvalues --    0.09514   0.12947   0.13051   0.13998   0.14742
 Alpha virt. eigenvalues --    0.14776   0.15310   0.16166   0.16551   0.16816
 Alpha virt. eigenvalues --    0.18176   0.18795   0.19442   0.19649   0.20102
 Alpha virt. eigenvalues --    0.20412   0.20958   0.21760   0.23859   0.24319
 Alpha virt. eigenvalues --    0.26385   0.26979   0.28372   0.30616   0.31514
 Alpha virt. eigenvalues --    0.32164   0.33239   0.34393   0.36294   0.36815
 Alpha virt. eigenvalues --    0.38147   0.38336   0.39039   0.40150   0.42353
 Alpha virt. eigenvalues --    0.43047   0.43854   0.44454   0.45359   0.46553
 Alpha virt. eigenvalues --    0.47153   0.47182   0.47811   0.48447   0.48555
 Alpha virt. eigenvalues --    0.49799   0.49873   0.51892   0.53001   0.53511
 Alpha virt. eigenvalues --    0.54850   0.55601   0.56077   0.57992   0.58761
 Alpha virt. eigenvalues --    0.60225   0.61422   0.62517   0.63581   0.64068
 Alpha virt. eigenvalues --    0.65280   0.66189   0.66581   0.68025   0.68486
 Alpha virt. eigenvalues --    0.68708   0.69737   0.70446   0.72234   0.72780
 Alpha virt. eigenvalues --    0.73586   0.74751   0.75889   0.77070   0.77224
 Alpha virt. eigenvalues --    0.78052   0.79163   0.80349   0.81370   0.82087
 Alpha virt. eigenvalues --    0.84419   0.84782   0.86476   0.87754   0.88714
 Alpha virt. eigenvalues --    0.89975   0.91514   0.92253   0.93657   0.94281
 Alpha virt. eigenvalues --    0.97175   0.98206   0.99418   1.00651   1.04838
 Alpha virt. eigenvalues --    1.07542   1.10197   1.12934   1.14553   1.17972
 Alpha virt. eigenvalues --    1.19013   1.20873   1.21990   1.23730   1.25006
 Alpha virt. eigenvalues --    1.26592   1.29467   1.31670   1.32687   1.37374
 Alpha virt. eigenvalues --    1.40029   1.43231   1.45022   1.48921   1.50151
 Alpha virt. eigenvalues --    1.52275   1.55085   1.59320   1.61655   1.63993
 Alpha virt. eigenvalues --    1.65621   1.69003   1.71135   1.74240   1.76156
 Alpha virt. eigenvalues --    1.79387   1.80229   1.82209   1.83985   1.85639
 Alpha virt. eigenvalues --    1.88283   1.91324   1.93221   1.95829   1.99254
 Alpha virt. eigenvalues --    1.99962   2.00219   2.03590   2.05396   2.07525
 Alpha virt. eigenvalues --    2.10513   2.10865   2.12203   2.14547   2.15321
 Alpha virt. eigenvalues --    2.17554   2.18280   2.21253   2.23774   2.25002
 Alpha virt. eigenvalues --    2.26381   2.30283   2.33620   2.34486   2.35821
 Alpha virt. eigenvalues --    2.40162   2.42615   2.43288   2.47219   2.48773
 Alpha virt. eigenvalues --    2.51425   2.53363   2.54824   2.57190   2.60805
 Alpha virt. eigenvalues --    2.64311   2.64953   2.68084   2.69921   2.74407
 Alpha virt. eigenvalues --    2.76641   2.78289   2.81696   2.85387   2.87664
 Alpha virt. eigenvalues --    2.91598   2.93351   2.97453   3.03737   3.09721
 Alpha virt. eigenvalues --    3.11446   3.14240   3.19058   3.22228   3.30974
 Alpha virt. eigenvalues --    3.32465   3.39446   3.58703   3.73538   3.79578
 Alpha virt. eigenvalues --    3.80927   3.98616   4.23520   4.36725
          Condensed to atoms (all electrons):
 Mulliken charges:
               1
     1  O   -0.710081
     2  C    0.723731
     3  C    0.001055
     4  C    0.298892
     5  C    0.731514
     6  C    0.456098
     7  H    0.154955
     8  H    0.271092
     9  H   -0.275357
    10  H   -0.218082
    11  H   -0.123552
    12  H   -0.260782
    13  H   -0.358444
    14  H   -0.332080
    15  H   -0.203137
    16  H   -0.155823
 Sum of Mulliken charges =  -0.00000
 Mulliken charges with hydrogens summed into heavy atoms:
               1
     1  O   -0.555126
     2  C    0.448374
     3  C   -0.217027
     4  C    0.185650
     5  C    0.040990
     6  C    0.097138
 Electronic spatial extent (au):  <R**2>=            709.0890
 Charge=             -0.0000 electrons
 Dipole moment (field-independent basis, Debye):
    X=              0.8407    Y=              0.3837    Z=              1.5645  Tot=              1.8171
 Unable to Open any file for archive entry.
 1\1\GINC-SE454\Stability\RHF\Aug-CC-pVDZ\C5H10O1\OHZDE\09-Apr-2025\0\\
 #t hf aug-cc-pvdz symm=none int=(grid=ultrafine) guess=(read,tcheck) s
 table=(opt,rrhf)\\title\\0,1\O,0,2.70754663,0.29868455,0.12693668\C,0,
 1.51916789,-0.25730923,0.48005883\C,0,0.34800197,-0.03129143,-0.358516
 13\C,0,-0.49439304,-1.20319266,0.08454642\C,0,-1.85086967,0.47832942,-
 0.35568695\C,0,-0.60929485,1.235188,-0.21826826\H,0,3.29285874,0.35072
 486,0.88494985\H,0,0.68030927,-1.72952243,0.3724018\H,0,1.33619162,-0.
 29875043,1.55471652\H,0,0.59374648,-0.14867211,-1.4143841\H,0,-0.92889
 709,-1.16432583,1.07718226\H,0,-0.91546038,-1.8952207,-0.63281919\H,0,
 -2.21317033,0.25141974,-1.35125742\H,0,-2.59806599,0.47858892,0.425996
 88\H,0,-0.49358027,1.69586428,0.76325942\H,0,-0.39278497,1.97662206,-0
 .9858816\\Version=ES64L-G16RevC.01\HF=-269.7929161\RMSD=4.181e-09\Dipo
 le=0.330775,0.150958,0.6155193\Quadrupole=0.2158418,-2.8982033,2.68236
 15,1.8809978,3.658668,1.053345\PG=Unknown\\@
 The archive entry for this job was punched.


0EVERYBODY IS IGNORANT, ONLY ON DIFFERENT SUBJECTS.
0          WILL ROGERS
 Job cpu time:       0 days  0 hours  7 minutes 31.7 seconds.
 Elapsed time:       0 days  0 hours  0 minutes 32.6 seconds.
 File lengths (MBytes):  RWF=    222 Int=      0 D2E=      0 Chk=      7 Scr=      1
 Normal termination of Gaussian 16 at Wed Apr  9 16:47:10 2025.
 Initial command:
 /arc/software/Gaussian/g16.c01/l1.exe "/tmp/slurm/4878171/Gau-521111.inp" -scrdir="/tmp/slurm/4878171/"
 Entering Link 1 = /arc/software/Gaussian/g16.c01/l1.exe PID=    521328.
  
 Copyright (c) 1988-2019, Gaussian, Inc.  All Rights Reserved.
  
 This is part of the Gaussian(R) 16 program.  It is based on
 the Gaussian(R) 09 system (copyright 2009, Gaussian, Inc.),
 the Gaussian(R) 03 system (copyright 2003, Gaussian, Inc.),
 the Gaussian(R) 98 system (copyright 1998, Gaussian, Inc.),
 the Gaussian(R) 94 system (copyright 1995, Gaussian, Inc.),
 the Gaussian 92(TM) system (copyright 1992, Gaussian, Inc.),
 the Gaussian 90(TM) system (copyright 1990, Gaussian, Inc.),
 the Gaussian 88(TM) system (copyright 1988, Gaussian, Inc.),
 the Gaussian 86(TM) system (copyright 1986, Carnegie Mellon
 University), and the Gaussian 82(TM) system (copyright 1983,
 Carnegie Mellon University). Gaussian is a federally registered
 trademark of Gaussian, Inc.
  
 This software contains proprietary and confidential information,
 including trade secrets, belonging to Gaussian, Inc.
  
 This software is provided under written license and may be
 used, copied, transmitted, or stored only in accord with that
 written license.
  
 The following legend is applicable only to US Government
 contracts under FAR:
  
                    RESTRICTED RIGHTS LEGEND
  
 Use, reproduction and disclosure by the US Government is
 subject to restrictions as set forth in subparagraphs (a)
 and (c) of the Commercial Computer Software - Restricted
 Rights clause in FAR 52.227-19.
  
 Gaussian, Inc.
 340 Quinnipiac St., Bldg. 40, Wallingford CT 06492
  
  
 ---------------------------------------------------------------
 Warning -- This program may not be used in any manner that
 competes with the business of Gaussian, Inc. or will provide
 assistance to any competitor of Gaussian, Inc.  The licensee
 of this program is prohibited from giving any competitor of
 Gaussian, Inc. access to this program.  By using this program,
 the user acknowledges that Gaussian, Inc. is engaged in the
 business of creating and licensing software in the field of
 computational chemistry and represents and warrants to the
 licensee that it is not a competitor of Gaussian, Inc. and that
 it will not use this program in any manner prohibited above.
 ---------------------------------------------------------------
  

 Cite this work as:
 Gaussian 16, Revision C.01,
 M. J. Frisch, G. W. Trucks, H. B. Schlegel, G. E. Scuseria, 
 M. A. Robb, J. R. Cheeseman, G. Scalmani, V. Barone, 
 G. A. Petersson, H. Nakatsuji, X. Li, M. Caricato, A. V. Marenich, 
 J. Bloino, B. G. Janesko, R. Gomperts, B. Mennucci, H. P. Hratchian, 
 J. V. Ortiz, A. F. Izmaylov, J. L. Sonnenberg, D. Williams-Young, 
 F. Ding, F. Lipparini, F. Egidi, J. Goings, B. Peng, A. Petrone, 
 T. Henderson, D. Ranasinghe, V. G. Zakrzewski, J. Gao, N. Rega, 
 G. Zheng, W. Liang, M. Hada, M. Ehara, K. Toyota, R. Fukuda, 
 J. Hasegawa, M. Ishida, T. Nakajima, Y. Honda, O. Kitao, H. Nakai, 
 T. Vreven, K. Throssell, J. A. Montgomery, Jr., J. E. Peralta, 
 F. Ogliaro, M. J. Bearpark, J. J. Heyd, E. N. Brothers, K. N. Kudin, 
 V. N. Staroverov, T. A. Keith, R. Kobayashi, J. Normand, 
 K. Raghavachari, A. P. Rendell, J. C. Burant, S. S. Iyengar, 
 J. Tomasi, M. Cossi, J. M. Millam, M. Klene, C. Adamo, R. Cammi, 
 J. W. Ochterski, R. L. Martin, K. Morokuma, O. Farkas, 
 J. B. Foresman, and D. J. Fox, Gaussian, Inc., Wallingford CT, 2019.
 
 ******************************************
 Gaussian 16:  ES64L-G16RevC.01  3-Jul-2019
                 9-Apr-2025 
 ******************************************
 %nprocs=16
 Will use up to   16 processors via shared memory.
 %mem=30GB
 %chk=Grambow2020_wb97xd3_006153_reverse_mol1.chk
 ----------------------------------------------------------------------
 #t hf aug-cc-pvdz iop(5/13=1,5/36=2,99/5=2) pseudo=read geom=check gue
 ss=(read,tcheck) scf=(maxcycle=1)
 ----------------------------------------------------------------------
 -----
 title
 -----
 Structure from the checkpoint file:  "Grambow2020_wb97xd3_006153_reverse_mol1.chk"
 Charge =  0 Multiplicity = 1
 Z-Matrix found in chk file.
 O,0,2.70754663,0.29868455,0.12693668
 C,0,1.51916789,-0.25730923,0.48005883
 C,0,0.34800197,-0.03129143,-0.35851613
 C,0,-0.49439304,-1.20319266,0.08454642
 C,0,-1.85086967,0.47832942,-0.35568695
 C,0,-0.60929485,1.235188,-0.21826826
 H,0,3.29285874,0.35072486,0.88494985
 H,0,0.68030927,-1.72952243,0.3724018
 H,0,1.33619162,-0.29875043,1.55471652
 H,0,0.59374648,-0.14867211,-1.4143841
 H,0,-0.92889709,-1.16432583,1.07718226
 H,0,-0.91546038,-1.8952207,-0.63281919
 H,0,-2.21317033,0.25141974,-1.35125742
 H,0,-2.59806599,0.47858892,0.42599688
 H,0,-0.49358027,1.69586428,0.76325942
 H,0,-0.39278497,1.97662206,-0.9858816
 Recover connectivity data from disk.
                    Distance matrix (angstroms):
                    1          2          3          4          5
     1  O    0.000000
     2  C    1.358701   0.000000
     3  C    2.431460   1.458054   0.000000
     4  C    3.536927   2.259547   1.509731   0.000000
     5  C    4.587413   3.549195   2.257157   2.204847   0.000000
     6  C    3.463761   2.691758   1.593756   2.459797   1.460557
     7  H    0.959105   1.918234   3.219367   4.171161   5.292769
     8  H    2.878119   1.697847   1.878472   1.319018   3.436799
     9  H    2.067873   1.090911   2.169911   2.516040   3.796163
    10  H    2.654044   2.111189   1.090425   2.131397   2.736808
    11  H    4.033248   2.678107   2.230576   1.084265   2.366741
    12  H    4.303095   3.138258   2.268438   1.082042   2.566229
    13  H    5.138166   4.188421   2.761352   2.670510   1.083471
    14  H    5.317079   4.182832   3.091077   2.714851   1.081357
    15  H    3.550244   2.818908   2.224794   2.977446   2.139315
    16  H    3.696741   3.285574   2.230262   3.356689   2.183584
                    6          7          8          9         10
     6  C    0.000000
     7  H    4.150442   0.000000
     8  H    3.286560   3.378690   0.000000
     9  H    3.046532   2.167707   1.968542   0.000000
    10  H    2.189308   3.580718   2.387297   3.064198   0.000000
    11  H    2.745543   4.489494   1.845456   2.471414   3.091585
    12  H    3.172546   5.005781   1.893253   3.521927   2.437002
    13  H    2.196334   5.943639   3.907347   4.620102   2.835990
    14  H    2.223225   5.910159   3.953021   4.166131   3.737396
    15  H    1.090417   4.020116   3.641986   2.820099   3.053969
    16  H    1.088959   4.441567   4.090473   3.823783   2.381960
                   11         12         13         14         15
    11  H    0.000000
    12  H    1.859702   0.000000
    13  H    3.090471   2.609266   0.000000
    14  H    2.430913   3.096324   1.832589   0.000000
    15  H    2.910109   3.875940   3.084573   2.454458   0.000000
    16  H    3.795946   3.922883   2.534487   3.016748   1.774395
                   16
    16  H    0.000000
 Framework group  C1[X(C5H10O)]
 Deg. of freedom    42
                         Standard orientation:                         
 ---------------------------------------------------------------------
 Center     Atomic      Atomic             Coordinates (Angstroms)
 Number     Number       Type             X           Y           Z
 ---------------------------------------------------------------------
      1          8           0       -2.401787   -0.401617   -0.172196
      2          6           0       -1.314947    0.298626    0.245543
      3          6           0       -0.017748    0.035244   -0.365870
      4          6           0        0.679554    1.327768   -0.015960
      5          6           0        2.179376   -0.287457    0.038190
      6          6           0        0.975653   -1.110035    0.125603
      7          1           0       -3.093124   -0.377317    0.492143
      8          1           0       -0.552999    1.796938    0.006417
      9          1           0       -1.302417    0.528389    1.311910
     10          1           0       -0.103957   -0.040361   -1.450249
     11          1           0        0.957334    1.485621    1.020163
     12          1           0        1.166888    1.926154   -0.774415
     13          1           0        2.677579   -0.196344   -0.919621
     14          1           0        2.795982   -0.100513    0.906626
     15          1           0        0.735910   -1.413358    1.145176
     16          1           0        0.921775   -1.981151   -0.525616
 ---------------------------------------------------------------------
 Rotational constants (GHZ):           7.4071729           2.2041612           1.8477214
 ======================================================================================================
                                       Pseudopotential Parameters
 ======================================================================================================
  Center     Atomic      Valence      Angular      Power
  Number     Number     Electrons     Momentum     of R      Exponent        Coefficient   SO-Coeffient
 ======================================================================================================
    1          8            8
                                      G and up 
                                                     0        0.0000010        0.00049668    0.00000000
                                                     2        0.1200000       -0.01803391    0.00000000
                                                     2        0.1400000        0.04014195    0.00000000
                                                     2        0.2000000       -0.02692147    0.00000000
                                                     2        0.2800000       -0.04241843    0.00000000
                                                     2        0.4000000        0.15412145    0.00000000
                                                     2        0.7000000       -0.40587006    0.00000000
                                                     2        1.1000000        1.75666647    0.00000000
                                      S - G
                                                     0        0.0000010       -0.01088195    0.00000000
                                                     2        0.1200000        0.09867335    0.00000000
                                                     2        0.2400000       -0.08484177    0.00000000
                                                     2        0.6000000       -1.39011554    0.00000000
                                                     2        2.5000000        1.36225910    0.00000000
                                      P - G
                                                     0        0.0000010        0.05874028    0.00000000
                                                     2        0.1200000       -0.11700340    0.00000000
                                                     2        0.1600000        0.08847775    0.00000000
                                                     2        0.3000000        0.04709907    0.00000000
                                                     2        1.2000000       -1.80388338    0.00000000
                                      D - G
                                                     0        0.0000010       -0.00541262    0.00000000
                                                     2        0.1200000       -0.26547906    0.00000000
                                                     2        0.1600000        1.04289661    0.00000000
                                                     2        0.2400000       -1.92800913    0.00000000
                                                     2        0.4000000        2.26691633    0.00000000
                                                     2        0.7000000       -1.97391482    0.00000000
                                      F - G
                                                     0        0.0000010       -0.02604870    0.00000000
                                                     2        0.1200000        0.37362552    0.00000000
                                                     2        0.1600000       -1.43526367    0.00000000
                                                     2        0.2200000        1.76778079    0.00000000
                                                     2        0.5000000       -1.90846303    0.00000000
    2          6            6
                                      G and up 
                                                     0        0.0000010       -0.00007288    0.00000000
                                                     2        0.1200000        0.10466671    0.00000000
                                                     2        0.1400000       -0.65716157    0.00000000
                                                     2        0.1600000        1.18890794    0.00000000
                                                     2        0.2000000       -1.25772850    0.00000000
                                                     2        0.2600000        1.01188378    0.00000000
                                                     2        0.4000000       -1.09380874    0.00000000
                                                     2        0.5000000        0.96944888    0.00000000
                                                     2        1.0000000       -0.79256938    0.00000000
                                                     2        3.0000000        1.06443276    0.00000000
                                      S - G
                                                     0        0.0000010       -0.00635295    0.00000000
                                                     2        0.1200000        0.16918955    0.00000000
                                                     2        0.1600000       -0.38862576    0.00000000
                                                     2        0.2800000        0.25638263    0.00000000
                                                     2        0.5000000        0.29628419    0.00000000
                                                     2        0.9000000       -0.28791512    0.00000000
                                      P - G
                                                     0        0.0000010       -0.04756931    0.00000000
                                                     2        0.1200000        0.28430375    0.00000000
                                                     2        0.1600000       -0.69640032    0.00000000
                                                     2        0.2600000        1.13005668    0.00000000
                                                     2        0.4000000       -1.31433324    0.00000000
                                                     2        0.7000000        0.91526469    0.00000000
                                      D - G
                                                     0        0.0000010       -0.11496411    0.00000000
                                                     2        0.1200000        0.16620776    0.00000000
                                                     2        0.1800000       -0.30959819    0.00000000
                                                     2        0.3000000        0.16621458    0.00000000
                                                     2        0.6000000        0.27350556    0.00000000
                                      F - G
                                                     0        0.0000010        0.12037550    0.00000000
                                                     2        0.1200000       -0.48737077    0.00000000
                                                     2        0.1400000        0.58315350    0.00000000
                                                     2        0.3000000        0.00005188    0.00000000
                                                     2        0.5000000       -1.16063549    0.00000000
                                                     2        0.8000000        2.09053308    0.00000000
    3          6            6
                                      G and up 
                                                     0        0.0000010       -0.00007288    0.00000000
                                                     2        0.1200000        0.10466671    0.00000000
                                                     2        0.1400000       -0.65716157    0.00000000
                                                     2        0.1600000        1.18890794    0.00000000
                                                     2        0.2000000       -1.25772850    0.00000000
                                                     2        0.2600000        1.01188378    0.00000000
                                                     2        0.4000000       -1.09380874    0.00000000
                                                     2        0.5000000        0.96944888    0.00000000
                                                     2        1.0000000       -0.79256938    0.00000000
                                                     2        3.0000000        1.06443276    0.00000000
                                      S - G
                                                     0        0.0000010       -0.00635295    0.00000000
                                                     2        0.1200000        0.16918955    0.00000000
                                                     2        0.1600000       -0.38862576    0.00000000
                                                     2        0.2800000        0.25638263    0.00000000
                                                     2        0.5000000        0.29628419    0.00000000
                                                     2        0.9000000       -0.28791512    0.00000000
                                      P - G
                                                     0        0.0000010       -0.04756931    0.00000000
                                                     2        0.1200000        0.28430375    0.00000000
                                                     2        0.1600000       -0.69640032    0.00000000
                                                     2        0.2600000        1.13005668    0.00000000
                                                     2        0.4000000       -1.31433324    0.00000000
                                                     2        0.7000000        0.91526469    0.00000000
                                      D - G
                                                     0        0.0000010       -0.11496411    0.00000000
                                                     2        0.1200000        0.16620776    0.00000000
                                                     2        0.1800000       -0.30959819    0.00000000
                                                     2        0.3000000        0.16621458    0.00000000
                                                     2        0.6000000        0.27350556    0.00000000
                                      F - G
                                                     0        0.0000010        0.12037550    0.00000000
                                                     2        0.1200000       -0.48737077    0.00000000
                                                     2        0.1400000        0.58315350    0.00000000
                                                     2        0.3000000        0.00005188    0.00000000
                                                     2        0.5000000       -1.16063549    0.00000000
                                                     2        0.8000000        2.09053308    0.00000000
    4          6            6
                                      G and up 
                                                     0        0.0000010       -0.00007288    0.00000000
                                                     2        0.1200000        0.10466671    0.00000000
                                                     2        0.1400000       -0.65716157    0.00000000
                                                     2        0.1600000        1.18890794    0.00000000
                                                     2        0.2000000       -1.25772850    0.00000000
                                                     2        0.2600000        1.01188378    0.00000000
                                                     2        0.4000000       -1.09380874    0.00000000
                                                     2        0.5000000        0.96944888    0.00000000
                                                     2        1.0000000       -0.79256938    0.00000000
                                                     2        3.0000000        1.06443276    0.00000000
                                      S - G
                                                     0        0.0000010       -0.00635295    0.00000000
                                                     2        0.1200000        0.16918955    0.00000000
                                                     2        0.1600000       -0.38862576    0.00000000
                                                     2        0.2800000        0.25638263    0.00000000
                                                     2        0.5000000        0.29628419    0.00000000
                                                     2        0.9000000       -0.28791512    0.00000000
                                      P - G
                                                     0        0.0000010       -0.04756931    0.00000000
                                                     2        0.1200000        0.28430375    0.00000000
                                                     2        0.1600000       -0.69640032    0.00000000
                                                     2        0.2600000        1.13005668    0.00000000
                                                     2        0.4000000       -1.31433324    0.00000000
                                                     2        0.7000000        0.91526469    0.00000000
                                      D - G
                                                     0        0.0000010       -0.11496411    0.00000000
                                                     2        0.1200000        0.16620776    0.00000000
                                                     2        0.1800000       -0.30959819    0.00000000
                                                     2        0.3000000        0.16621458    0.00000000
                                                     2        0.6000000        0.27350556    0.00000000
                                      F - G
                                                     0        0.0000010        0.12037550    0.00000000
                                                     2        0.1200000       -0.48737077    0.00000000
                                                     2        0.1400000        0.58315350    0.00000000
                                                     2        0.3000000        0.00005188    0.00000000
                                                     2        0.5000000       -1.16063549    0.00000000
                                                     2        0.8000000        2.09053308    0.00000000
    5          6            6
                                      G and up 
                                                     0        0.0000010       -0.00007288    0.00000000
                                                     2        0.1200000        0.10466671    0.00000000
                                                     2        0.1400000       -0.65716157    0.00000000
                                                     2        0.1600000        1.18890794    0.00000000
                                                     2        0.2000000       -1.25772850    0.00000000
                                                     2        0.2600000        1.01188378    0.00000000
                                                     2        0.4000000       -1.09380874    0.00000000
                                                     2        0.5000000        0.96944888    0.00000000
                                                     2        1.0000000       -0.79256938    0.00000000
                                                     2        3.0000000        1.06443276    0.00000000
                                      S - G
                                                     0        0.0000010       -0.00635295    0.00000000
                                                     2        0.1200000        0.16918955    0.00000000
                                                     2        0.1600000       -0.38862576    0.00000000
                                                     2        0.2800000        0.25638263    0.00000000
                                                     2        0.5000000        0.29628419    0.00000000
                                                     2        0.9000000       -0.28791512    0.00000000
                                      P - G
                                                     0        0.0000010       -0.04756931    0.00000000
                                                     2        0.1200000        0.28430375    0.00000000
                                                     2        0.1600000       -0.69640032    0.00000000
                                                     2        0.2600000        1.13005668    0.00000000
                                                     2        0.4000000       -1.31433324    0.00000000
                                                     2        0.7000000        0.91526469    0.00000000
                                      D - G
                                                     0        0.0000010       -0.11496411    0.00000000
                                                     2        0.1200000        0.16620776    0.00000000
                                                     2        0.1800000       -0.30959819    0.00000000
                                                     2        0.3000000        0.16621458    0.00000000
                                                     2        0.6000000        0.27350556    0.00000000
                                      F - G
                                                     0        0.0000010        0.12037550    0.00000000
                                                     2        0.1200000       -0.48737077    0.00000000
                                                     2        0.1400000        0.58315350    0.00000000
                                                     2        0.3000000        0.00005188    0.00000000
                                                     2        0.5000000       -1.16063549    0.00000000
                                                     2        0.8000000        2.09053308    0.00000000
    6          6            6
                                      G and up 
                                                     0        0.0000010       -0.00007288    0.00000000
                                                     2        0.1200000        0.10466671    0.00000000
                                                     2        0.1400000       -0.65716157    0.00000000
                                                     2        0.1600000        1.18890794    0.00000000
                                                     2        0.2000000       -1.25772850    0.00000000
                                                     2        0.2600000        1.01188378    0.00000000
                                                     2        0.4000000       -1.09380874    0.00000000
                                                     2        0.5000000        0.96944888    0.00000000
                                                     2        1.0000000       -0.79256938    0.00000000
                                                     2        3.0000000        1.06443276    0.00000000
                                      S - G
                                                     0        0.0000010       -0.00635295    0.00000000
                                                     2        0.1200000        0.16918955    0.00000000
                                                     2        0.1600000       -0.38862576    0.00000000
                                                     2        0.2800000        0.25638263    0.00000000
                                                     2        0.5000000        0.29628419    0.00000000
                                                     2        0.9000000       -0.28791512    0.00000000
                                      P - G
                                                     0        0.0000010       -0.04756931    0.00000000
                                                     2        0.1200000        0.28430375    0.00000000
                                                     2        0.1600000       -0.69640032    0.00000000
                                                     2        0.2600000        1.13005668    0.00000000
                                                     2        0.4000000       -1.31433324    0.00000000
                                                     2        0.7000000        0.91526469    0.00000000
                                      D - G
                                                     0        0.0000010       -0.11496411    0.00000000
                                                     2        0.1200000        0.16620776    0.00000000
                                                     2        0.1800000       -0.30959819    0.00000000
                                                     2        0.3000000        0.16621458    0.00000000
                                                     2        0.6000000        0.27350556    0.00000000
                                      F - G
                                                     0        0.0000010        0.12037550    0.00000000
                                                     2        0.1200000       -0.48737077    0.00000000
                                                     2        0.1400000        0.58315350    0.00000000
                                                     2        0.3000000        0.00005188    0.00000000
                                                     2        0.5000000       -1.16063549    0.00000000
                                                     2        0.8000000        2.09053308    0.00000000
    7          1            1
                                      F and up 
                                                     0        0.0000010       -0.00007675    0.00000000
                                                     2        0.1200000        0.05352699    0.00000000
                                                     2        0.1400000       -0.25123645    0.00000000
                                                     2        0.1600000        0.32188106    0.00000000
                                                     2        0.2200000       -0.25206857    0.00000000
                                                     2        0.3000000        0.19290477    0.00000000
                                                     2        0.5000000       -0.10129770    0.00000000
                                                     2        0.9000000        0.00314995    0.00000000
                                                     2        1.5000000        0.18401192    0.00000000
                                      S - F
                                                     0        0.0000010        0.08065976    0.00000000
                                                     2        0.1200000       -0.09231673    0.00000000
                                                     2        0.1600000       -0.03278082    0.00000000
                                                     2        0.2800000        0.38423402    0.00000000
                                                     2        0.6000000       -1.09357590    0.00000000
                                                     2        1.1000000        1.53099489    0.00000000
                                                     2        3.0000000       -2.63300202    0.00000000
                                      P - F
                                                     0        0.0000010       -0.11638665    0.00000000
                                                     2        0.1200000        0.35468655    0.00000000
                                                     2        0.1600000       -0.59160923    0.00000000
                                                     2        0.3000000        0.49390547    0.00000000
                                                     2        0.6000000       -0.37949835    0.00000000
                                                     2        1.6000000        0.89304688    0.00000000
                                      D - F
                                                     0        0.0000010        0.05443663    0.00000000
                                                     2        0.1200000       -0.29679479    0.00000000
                                                     2        0.1400000        0.36849872    0.00000000
                                                     2        0.2400000        0.02793449    0.00000000
                                                     2        0.4000000       -0.46312857    0.00000000
                                                     2        0.7000000        0.97587598    0.00000000
                                                     2        1.5000000       -2.43431102    0.00000000
    8          1            1
                                      F and up 
                                                     0        0.0000010       -0.00007675    0.00000000
                                                     2        0.1200000        0.05352699    0.00000000
                                                     2        0.1400000       -0.25123645    0.00000000
                                                     2        0.1600000        0.32188106    0.00000000
                                                     2        0.2200000       -0.25206857    0.00000000
                                                     2        0.3000000        0.19290477    0.00000000
                                                     2        0.5000000       -0.10129770    0.00000000
                                                     2        0.9000000        0.00314995    0.00000000
                                                     2        1.5000000        0.18401192    0.00000000
                                      S - F
                                                     0        0.0000010        0.08065976    0.00000000
                                                     2        0.1200000       -0.09231673    0.00000000
                                                     2        0.1600000       -0.03278082    0.00000000
                                                     2        0.2800000        0.38423402    0.00000000
                                                     2        0.6000000       -1.09357590    0.00000000
                                                     2        1.1000000        1.53099489    0.00000000
                                                     2        3.0000000       -2.63300202    0.00000000
                                      P - F
                                                     0        0.0000010       -0.11638665    0.00000000
                                                     2        0.1200000        0.35468655    0.00000000
                                                     2        0.1600000       -0.59160923    0.00000000
                                                     2        0.3000000        0.49390547    0.00000000
                                                     2        0.6000000       -0.37949835    0.00000000
                                                     2        1.6000000        0.89304688    0.00000000
                                      D - F
                                                     0        0.0000010        0.05443663    0.00000000
                                                     2        0.1200000       -0.29679479    0.00000000
                                                     2        0.1400000        0.36849872    0.00000000
                                                     2        0.2400000        0.02793449    0.00000000
                                                     2        0.4000000       -0.46312857    0.00000000
                                                     2        0.7000000        0.97587598    0.00000000
                                                     2        1.5000000       -2.43431102    0.00000000
    9          1            1
                                      F and up 
                                                     0        0.0000010       -0.00007675    0.00000000
                                                     2        0.1200000        0.05352699    0.00000000
                                                     2        0.1400000       -0.25123645    0.00000000
                                                     2        0.1600000        0.32188106    0.00000000
                                                     2        0.2200000       -0.25206857    0.00000000
                                                     2        0.3000000        0.19290477    0.00000000
                                                     2        0.5000000       -0.10129770    0.00000000
                                                     2        0.9000000        0.00314995    0.00000000
                                                     2        1.5000000        0.18401192    0.00000000
                                      S - F
                                                     0        0.0000010        0.08065976    0.00000000
                                                     2        0.1200000       -0.09231673    0.00000000
                                                     2        0.1600000       -0.03278082    0.00000000
                                                     2        0.2800000        0.38423402    0.00000000
                                                     2        0.6000000       -1.09357590    0.00000000
                                                     2        1.1000000        1.53099489    0.00000000
                                                     2        3.0000000       -2.63300202    0.00000000
                                      P - F
                                                     0        0.0000010       -0.11638665    0.00000000
                                                     2        0.1200000        0.35468655    0.00000000
                                                     2        0.1600000       -0.59160923    0.00000000
                                                     2        0.3000000        0.49390547    0.00000000
                                                     2        0.6000000       -0.37949835    0.00000000
                                                     2        1.6000000        0.89304688    0.00000000
                                      D - F
                                                     0        0.0000010        0.05443663    0.00000000
                                                     2        0.1200000       -0.29679479    0.00000000
                                                     2        0.1400000        0.36849872    0.00000000
                                                     2        0.2400000        0.02793449    0.00000000
                                                     2        0.4000000       -0.46312857    0.00000000
                                                     2        0.7000000        0.97587598    0.00000000
                                                     2        1.5000000       -2.43431102    0.00000000
   10          1            1
                                      F and up 
                                                     0        0.0000010       -0.00007675    0.00000000
                                                     2        0.1200000        0.05352699    0.00000000
                                                     2        0.1400000       -0.25123645    0.00000000
                                                     2        0.1600000        0.32188106    0.00000000
                                                     2        0.2200000       -0.25206857    0.00000000
                                                     2        0.3000000        0.19290477    0.00000000
                                                     2        0.5000000       -0.10129770    0.00000000
                                                     2        0.9000000        0.00314995    0.00000000
                                                     2        1.5000000        0.18401192    0.00000000
                                      S - F
                                                     0        0.0000010        0.08065976    0.00000000
                                                     2        0.1200000       -0.09231673    0.00000000
                                                     2        0.1600000       -0.03278082    0.00000000
                                                     2        0.2800000        0.38423402    0.00000000
                                                     2        0.6000000       -1.09357590    0.00000000
                                                     2        1.1000000        1.53099489    0.00000000
                                                     2        3.0000000       -2.63300202    0.00000000
                                      P - F
                                                     0        0.0000010       -0.11638665    0.00000000
                                                     2        0.1200000        0.35468655    0.00000000
                                                     2        0.1600000       -0.59160923    0.00000000
                                                     2        0.3000000        0.49390547    0.00000000
                                                     2        0.6000000       -0.37949835    0.00000000
                                                     2        1.6000000        0.89304688    0.00000000
                                      D - F
                                                     0        0.0000010        0.05443663    0.00000000
                                                     2        0.1200000       -0.29679479    0.00000000
                                                     2        0.1400000        0.36849872    0.00000000
                                                     2        0.2400000        0.02793449    0.00000000
                                                     2        0.4000000       -0.46312857    0.00000000
                                                     2        0.7000000        0.97587598    0.00000000
                                                     2        1.5000000       -2.43431102    0.00000000
   11          1            1
                                      F and up 
                                                     0        0.0000010       -0.00007675    0.00000000
                                                     2        0.1200000        0.05352699    0.00000000
                                                     2        0.1400000       -0.25123645    0.00000000
                                                     2        0.1600000        0.32188106    0.00000000
                                                     2        0.2200000       -0.25206857    0.00000000
                                                     2        0.3000000        0.19290477    0.00000000
                                                     2        0.5000000       -0.10129770    0.00000000
                                                     2        0.9000000        0.00314995    0.00000000
                                                     2        1.5000000        0.18401192    0.00000000
                                      S - F
                                                     0        0.0000010        0.08065976    0.00000000
                                                     2        0.1200000       -0.09231673    0.00000000
                                                     2        0.1600000       -0.03278082    0.00000000
                                                     2        0.2800000        0.38423402    0.00000000
                                                     2        0.6000000       -1.09357590    0.00000000
                                                     2        1.1000000        1.53099489    0.00000000
                                                     2        3.0000000       -2.63300202    0.00000000
                                      P - F
                                                     0        0.0000010       -0.11638665    0.00000000
                                                     2        0.1200000        0.35468655    0.00000000
                                                     2        0.1600000       -0.59160923    0.00000000
                                                     2        0.3000000        0.49390547    0.00000000
                                                     2        0.6000000       -0.37949835    0.00000000
                                                     2        1.6000000        0.89304688    0.00000000
                                      D - F
                                                     0        0.0000010        0.05443663    0.00000000
                                                     2        0.1200000       -0.29679479    0.00000000
                                                     2        0.1400000        0.36849872    0.00000000
                                                     2        0.2400000        0.02793449    0.00000000
                                                     2        0.4000000       -0.46312857    0.00000000
                                                     2        0.7000000        0.97587598    0.00000000
                                                     2        1.5000000       -2.43431102    0.00000000
   12          1            1
                                      F and up 
                                                     0        0.0000010       -0.00007675    0.00000000
                                                     2        0.1200000        0.05352699    0.00000000
                                                     2        0.1400000       -0.25123645    0.00000000
                                                     2        0.1600000        0.32188106    0.00000000
                                                     2        0.2200000       -0.25206857    0.00000000
                                                     2        0.3000000        0.19290477    0.00000000
                                                     2        0.5000000       -0.10129770    0.00000000
                                                     2        0.9000000        0.00314995    0.00000000
                                                     2        1.5000000        0.18401192    0.00000000
                                      S - F
                                                     0        0.0000010        0.08065976    0.00000000
                                                     2        0.1200000       -0.09231673    0.00000000
                                                     2        0.1600000       -0.03278082    0.00000000
                                                     2        0.2800000        0.38423402    0.00000000
                                                     2        0.6000000       -1.09357590    0.00000000
                                                     2        1.1000000        1.53099489    0.00000000
                                                     2        3.0000000       -2.63300202    0.00000000
                                      P - F
                                                     0        0.0000010       -0.11638665    0.00000000
                                                     2        0.1200000        0.35468655    0.00000000
                                                     2        0.1600000       -0.59160923    0.00000000
                                                     2        0.3000000        0.49390547    0.00000000
                                                     2        0.6000000       -0.37949835    0.00000000
                                                     2        1.6000000        0.89304688    0.00000000
                                      D - F
                                                     0        0.0000010        0.05443663    0.00000000
                                                     2        0.1200000       -0.29679479    0.00000000
                                                     2        0.1400000        0.36849872    0.00000000
                                                     2        0.2400000        0.02793449    0.00000000
                                                     2        0.4000000       -0.46312857    0.00000000
                                                     2        0.7000000        0.97587598    0.00000000
                                                     2        1.5000000       -2.43431102    0.00000000
   13          1            1
                                      F and up 
                                                     0        0.0000010       -0.00007675    0.00000000
                                                     2        0.1200000        0.05352699    0.00000000
                                                     2        0.1400000       -0.25123645    0.00000000
                                                     2        0.1600000        0.32188106    0.00000000
                                                     2        0.2200000       -0.25206857    0.00000000
                                                     2        0.3000000        0.19290477    0.00000000
                                                     2        0.5000000       -0.10129770    0.00000000
                                                     2        0.9000000        0.00314995    0.00000000
                                                     2        1.5000000        0.18401192    0.00000000
                                      S - F
                                                     0        0.0000010        0.08065976    0.00000000
                                                     2        0.1200000       -0.09231673    0.00000000
                                                     2        0.1600000       -0.03278082    0.00000000
                                                     2        0.2800000        0.38423402    0.00000000
                                                     2        0.6000000       -1.09357590    0.00000000
                                                     2        1.1000000        1.53099489    0.00000000
                                                     2        3.0000000       -2.63300202    0.00000000
                                      P - F
                                                     0        0.0000010       -0.11638665    0.00000000
                                                     2        0.1200000        0.35468655    0.00000000
                                                     2        0.1600000       -0.59160923    0.00000000
                                                     2        0.3000000        0.49390547    0.00000000
                                                     2        0.6000000       -0.37949835    0.00000000
                                                     2        1.6000000        0.89304688    0.00000000
                                      D - F
                                                     0        0.0000010        0.05443663    0.00000000
                                                     2        0.1200000       -0.29679479    0.00000000
                                                     2        0.1400000        0.36849872    0.00000000
                                                     2        0.2400000        0.02793449    0.00000000
                                                     2        0.4000000       -0.46312857    0.00000000
                                                     2        0.7000000        0.97587598    0.00000000
                                                     2        1.5000000       -2.43431102    0.00000000
   14          1            1
                                      F and up 
                                                     0        0.0000010       -0.00007675    0.00000000
                                                     2        0.1200000        0.05352699    0.00000000
                                                     2        0.1400000       -0.25123645    0.00000000
                                                     2        0.1600000        0.32188106    0.00000000
                                                     2        0.2200000       -0.25206857    0.00000000
                                                     2        0.3000000        0.19290477    0.00000000
                                                     2        0.5000000       -0.10129770    0.00000000
                                                     2        0.9000000        0.00314995    0.00000000
                                                     2        1.5000000        0.18401192    0.00000000
                                      S - F
                                                     0        0.0000010        0.08065976    0.00000000
                                                     2        0.1200000       -0.09231673    0.00000000
                                                     2        0.1600000       -0.03278082    0.00000000
                                                     2        0.2800000        0.38423402    0.00000000
                                                     2        0.6000000       -1.09357590    0.00000000
                                                     2        1.1000000        1.53099489    0.00000000
                                                     2        3.0000000       -2.63300202    0.00000000
                                      P - F
                                                     0        0.0000010       -0.11638665    0.00000000
                                                     2        0.1200000        0.35468655    0.00000000
                                                     2        0.1600000       -0.59160923    0.00000000
                                                     2        0.3000000        0.49390547    0.00000000
                                                     2        0.6000000       -0.37949835    0.00000000
                                                     2        1.6000000        0.89304688    0.00000000
                                      D - F
                                                     0        0.0000010        0.05443663    0.00000000
                                                     2        0.1200000       -0.29679479    0.00000000
                                                     2        0.1400000        0.36849872    0.00000000
                                                     2        0.2400000        0.02793449    0.00000000
                                                     2        0.4000000       -0.46312857    0.00000000
                                                     2        0.7000000        0.97587598    0.00000000
                                                     2        1.5000000       -2.43431102    0.00000000
   15          1            1
                                      F and up 
                                                     0        0.0000010       -0.00007675    0.00000000
                                                     2        0.1200000        0.05352699    0.00000000
                                                     2        0.1400000       -0.25123645    0.00000000
                                                     2        0.1600000        0.32188106    0.00000000
                                                     2        0.2200000       -0.25206857    0.00000000
                                                     2        0.3000000        0.19290477    0.00000000
                                                     2        0.5000000       -0.10129770    0.00000000
                                                     2        0.9000000        0.00314995    0.00000000
                                                     2        1.5000000        0.18401192    0.00000000
                                      S - F
                                                     0        0.0000010        0.08065976    0.00000000
                                                     2        0.1200000       -0.09231673    0.00000000
                                                     2        0.1600000       -0.03278082    0.00000000
                                                     2        0.2800000        0.38423402    0.00000000
                                                     2        0.6000000       -1.09357590    0.00000000
                                                     2        1.1000000        1.53099489    0.00000000
                                                     2        3.0000000       -2.63300202    0.00000000
                                      P - F
                                                     0        0.0000010       -0.11638665    0.00000000
                                                     2        0.1200000        0.35468655    0.00000000
                                                     2        0.1600000       -0.59160923    0.00000000
                                                     2        0.3000000        0.49390547    0.00000000
                                                     2        0.6000000       -0.37949835    0.00000000
                                                     2        1.6000000        0.89304688    0.00000000
                                      D - F
                                                     0        0.0000010        0.05443663    0.00000000
                                                     2        0.1200000       -0.29679479    0.00000000
                                                     2        0.1400000        0.36849872    0.00000000
                                                     2        0.2400000        0.02793449    0.00000000
                                                     2        0.4000000       -0.46312857    0.00000000
                                                     2        0.7000000        0.97587598    0.00000000
                                                     2        1.5000000       -2.43431102    0.00000000
   16          1            1
                                      F and up 
                                                     0        0.0000010       -0.00007675    0.00000000
                                                     2        0.1200000        0.05352699    0.00000000
                                                     2        0.1400000       -0.25123645    0.00000000
                                                     2        0.1600000        0.32188106    0.00000000
                                                     2        0.2200000       -0.25206857    0.00000000
                                                     2        0.3000000        0.19290477    0.00000000
                                                     2        0.5000000       -0.10129770    0.00000000
                                                     2        0.9000000        0.00314995    0.00000000
                                                     2        1.5000000        0.18401192    0.00000000
                                      S - F
                                                     0        0.0000010        0.08065976    0.00000000
                                                     2        0.1200000       -0.09231673    0.00000000
                                                     2        0.1600000       -0.03278082    0.00000000
                                                     2        0.2800000        0.38423402    0.00000000
                                                     2        0.6000000       -1.09357590    0.00000000
                                                     2        1.1000000        1.53099489    0.00000000
                                                     2        3.0000000       -2.63300202    0.00000000
                                      P - F
                                                     0        0.0000010       -0.11638665    0.00000000
                                                     2        0.1200000        0.35468655    0.00000000
                                                     2        0.1600000       -0.59160923    0.00000000
                                                     2        0.3000000        0.49390547    0.00000000
                                                     2        0.6000000       -0.37949835    0.00000000
                                                     2        1.6000000        0.89304688    0.00000000
                                      D - F
                                                     0        0.0000010        0.05443663    0.00000000
                                                     2        0.1200000       -0.29679479    0.00000000
                                                     2        0.1400000        0.36849872    0.00000000
                                                     2        0.2400000        0.02793449    0.00000000
                                                     2        0.4000000       -0.46312857    0.00000000
                                                     2        0.7000000        0.97587598    0.00000000
                                                     2        1.5000000       -2.43431102    0.00000000
 ======================================================================================================
   228 basis functions,   368 primitive gaussians,   240 cartesian basis functions
    24 alpha electrons       24 beta electrons
       nuclear repulsion energy       243.8976669643 Hartrees.
 NAtoms=   16 NActive=   16 NUniq=   16 SFac= 1.00D+00 NAtFMM=   60 NAOKFM=F Big=F
   1 Symmetry operations used in ECPInt.
 ECPInt:  NShTT=    5460 NPrTT=   22036 LenC2=    5452 LenP2D=   18181.
 LDataN:  DoStor=T MaxTD1= 6 Len=  172
 Initial guess from the checkpoint file:  "Grambow2020_wb97xd3_006153_reverse_mol1.chk"
 B after Tr=     0.514056    0.171508    0.072876
         Rot=    0.034431   -0.074695    0.084203    0.993048 Ang=-176.05 deg.
 >>>>>>>>>> Convergence criterion not met.
 SCF Done:  E(RHF) =  -270.082139431     A.U. after    2 cycles
            NFock=  1  Conv=0.14D-01     -V/T= 2.0026

 **********************************************************************

            Population analysis using the SCF Density.

 **********************************************************************

 Orbital symmetries:
       Occupied  (A) (A) (A) (A) (A) (A) (A) (A) (A) (A) (A) (A)
                 (A) (A) (A) (A) (A) (A) (A) (A) (A) (A) (A) (A)
       Virtual   (A) (A) (A) (A) (A) (A) (A) (A) (A) (A) (A) (A)
                 (A) (A) (A) (A) (A) (A) (A) (A) (A) (A) (A) (A)
                 (A) (A) (A) (A) (A) (A) (A) (A) (A) (A) (A) (A)
                 (A) (A) (A) (A) (A) (A) (A) (A) (A) (A) (A) (A)
                 (A) (A) (A) (A) (A) (A) (A) (A) (A) (A) (A) (A)
                 (A) (A) (A) (A) (A) (A) (A) (A) (A) (A) (A) (A)
                 (A) (A) (A) (A) (A) (A) (A) (A) (A) (A) (A) (A)
                 (A) (A) (A) (A) (A) (A) (A) (A) (A) (A) (A) (A)
                 (A) (A) (A) (A) (A) (A) (A) (A) (A) (A) (A) (A)
                 (A) (A) (A) (A) (A) (A) (A) (A) (A) (A) (A) (A)
                 (A) (A) (A) (A) (A) (A) (A) (A) (A) (A) (A) (A)
                 (A) (A) (A) (A) (A) (A) (A) (A) (A) (A) (A) (A)
                 (A) (A) (A) (A) (A) (A) (A) (A) (A) (A) (A) (A)
                 (A) (A) (A) (A) (A) (A) (A) (A) (A) (A) (A) (A)
                 (A) (A) (A) (A) (A) (A) (A) (A) (A) (A) (A) (A)
                 (A) (A) (A) (A) (A) (A) (A) (A) (A) (A) (A) (A)
                 (A) (A) (A) (A) (A) (A) (A) (A) (A) (A) (A) (A)
 The electronic state is 1-A.
 Alpha  occ. eigenvalues --  -20.58808 -11.31759 -11.24383 -11.23835 -11.23271
 Alpha  occ. eigenvalues --  -11.22977  -1.49983  -1.12308  -0.99377  -0.89911
 Alpha  occ. eigenvalues --   -0.82952  -0.77314  -0.73843  -0.66440  -0.63449
 Alpha  occ. eigenvalues --   -0.59644  -0.59475  -0.56147  -0.52697  -0.52588
 Alpha  occ. eigenvalues --   -0.49690  -0.47422  -0.39750  -0.22859
 Alpha virt. eigenvalues --    0.02835   0.03911   0.04205   0.04614   0.05165
 Alpha virt. eigenvalues --    0.06545   0.06567   0.06819   0.07172   0.08168
 Alpha virt. eigenvalues --    0.09757   0.12941   0.13204   0.14136   0.14890
 Alpha virt. eigenvalues --    0.15031   0.15375   0.16253   0.16400   0.16752
 Alpha virt. eigenvalues --    0.18033   0.18765   0.19446   0.19562   0.20030
 Alpha virt. eigenvalues --    0.20375   0.20839   0.21690   0.23766   0.24281
 Alpha virt. eigenvalues --    0.26361   0.26930   0.28306   0.30489   0.31296
 Alpha virt. eigenvalues --    0.31938   0.33026   0.34146   0.36164   0.36683
 Alpha virt. eigenvalues --    0.38019   0.38193   0.38970   0.40071   0.42278
 Alpha virt. eigenvalues --    0.42912   0.43731   0.44413   0.45268   0.46474
 Alpha virt. eigenvalues --    0.47093   0.47106   0.47730   0.48343   0.48515
 Alpha virt. eigenvalues --    0.49742   0.49808   0.51846   0.52939   0.53459
 Alpha virt. eigenvalues --    0.54818   0.55575   0.56191   0.58010   0.58668
 Alpha virt. eigenvalues --    0.60284   0.61447   0.62475   0.63511   0.64118
 Alpha virt. eigenvalues --    0.65387   0.66339   0.66595   0.68184   0.68609
 Alpha virt. eigenvalues --    0.68838   0.69771   0.70527   0.72331   0.72899
 Alpha virt. eigenvalues --    0.73703   0.74877   0.76006   0.77167   0.77347
 Alpha virt. eigenvalues --    0.78201   0.79310   0.80452   0.81451   0.82105
 Alpha virt. eigenvalues --    0.84448   0.84966   0.86596   0.87663   0.88885
 Alpha virt. eigenvalues --    0.90265   0.91761   0.92501   0.93984   0.94599
 Alpha virt. eigenvalues --    0.97509   0.98571   0.99795   1.01073   1.05314
 Alpha virt. eigenvalues --    1.08041   1.10915   1.13913   1.15773   1.19379
 Alpha virt. eigenvalues --    1.20026   1.22023   1.23129   1.24756   1.26174
 Alpha virt. eigenvalues --    1.27749   1.30660   1.32810   1.34150   1.38734
 Alpha virt. eigenvalues --    1.41434   1.44456   1.46652   1.50588   1.51834
 Alpha virt. eigenvalues --    1.54302   1.57026   1.61325   1.63300   1.65952
 Alpha virt. eigenvalues --    1.68023   1.71328   1.73195   1.75553   1.77613
 Alpha virt. eigenvalues --    1.80765   1.82297   1.83760   1.85515   1.87371
 Alpha virt. eigenvalues --    1.90488   1.93059   1.94698   1.96899   2.00756
 Alpha virt. eigenvalues --    2.02110   2.02899   2.05647   2.07485   2.09636
 Alpha virt. eigenvalues --    2.12747   2.14540   2.14815   2.16494   2.18724
 Alpha virt. eigenvalues --    2.20166   2.20578   2.24272   2.26860   2.28175
 Alpha virt. eigenvalues --    2.30428   2.33063   2.36376   2.37899   2.39294
 Alpha virt. eigenvalues --    2.43061   2.46184   2.47368   2.50917   2.51846
 Alpha virt. eigenvalues --    2.55100   2.56419   2.58097   2.60903   2.64559
 Alpha virt. eigenvalues --    2.67133   2.67934   2.71371   2.72570   2.77790
 Alpha virt. eigenvalues --    2.80281   2.81474   2.83949   2.88311   2.89952
 Alpha virt. eigenvalues --    2.94668   2.99597   3.06455   3.07973   3.16458
 Alpha virt. eigenvalues --    3.17563   3.20901   3.25143   3.28256   3.36584
 Alpha virt. eigenvalues --    3.39399   3.43219   3.61873   3.83476   3.89350
 Alpha virt. eigenvalues --    3.90584   4.07709   4.23008   4.47366
          Condensed to atoms (all electrons):
 Mulliken charges:
               1
     1  O   -1.268011
     2  C    0.958850
     3  C   -0.252966
     4  C   -0.301635
     5  C    0.165193
     6  C   -0.125289
     7  H    0.302370
     8  H    0.420903
     9  H   -0.014838
    10  H    0.034774
    11  H    0.115674
    12  H   -0.033076
    13  H   -0.082742
    14  H   -0.094614
    15  H    0.083120
    16  H    0.092289
 Sum of Mulliken charges =   0.00000
 Mulliken charges with hydrogens summed into heavy atoms:
               1
     1  O   -0.965641
     2  C    0.944011
     3  C   -0.218192
     4  C    0.201866
     5  C   -0.012164
     6  C    0.050120
 Electronic spatial extent (au):  <R**2>=            694.8620
 Charge=              0.0000 electrons
 Dipole moment (field-independent basis, Debye):
    X=             -1.1936    Y=             -0.1982    Z=              1.4384  Tot=              1.8796

 Test job not archived.
 1\1\GINC-SE454\SP\RHF\Aug-CC-pVDZ\C5H10O1\OHZDE\09-Apr-2025\0\\#t hf a
 ug-cc-pvdz iop(5/13=1,5/36=2,99/5=2) pseudo=read geom=check guess=(rea
 d,tcheck) scf=(maxcycle=1)\\title\\0,1\O,0,2.70754663,0.29868455,0.126
 93668\C,0,1.51916789,-0.25730923,0.48005883\C,0,0.34800197,-0.03129143
 ,-0.35851613\C,0,-0.49439304,-1.20319266,0.08454642\C,0,-1.85086967,0.
 47832942,-0.35568695\C,0,-0.60929485,1.235188,-0.21826826\H,0,3.292858
 74,0.35072486,0.88494985\H,0,0.68030927,-1.72952243,0.3724018\H,0,1.33
 619162,-0.29875043,1.55471652\H,0,0.59374648,-0.14867211,-1.4143841\H,
 0,-0.92889709,-1.16432583,1.07718226\H,0,-0.91546038,-1.8952207,-0.632
 81919\H,0,-2.21317033,0.25141974,-1.35125742\H,0,-2.59806599,0.4785889
 2,0.42599688\H,0,-0.49358027,1.69586428,0.76325942\H,0,-0.39278497,1.9
 7662206,-0.9858816\\Version=ES64L-G16RevC.01\State=1-A\HF=-270.0821394
 \RMSD=1.438e-02\Dipole=0.3888892,0.148019,0.6113166\Quadrupole=0.10791
 2,-2.8517059,2.743794,1.7715449,3.3051818,0.95556\PG=C01 [X(C5H10O1)]\
 \@


 THE REAL VOYAGE OF DISCOVERY CONSISTS NOT IN SEEKING NEW LANDSCAPES 
 BUT IN HAVING NEW EYES.
                                                    -- MARCEL PROUST
 Job cpu time:       0 days  0 hours  0 minutes 59.3 seconds.
 Elapsed time:       0 days  0 hours  0 minutes  4.7 seconds.
 File lengths (MBytes):  RWF=     10 Int=      0 D2E=      0 Chk=      7 Scr=      1
 Normal termination of Gaussian 16 at Wed Apr  9 16:47:15 2025.
