 Entering Gaussian System, Link 0=g16
 Input=Grambow2020_wb97xd3_009030_forward_mol2.gjf
 Output=Grambow2020_wb97xd3_009030_forward_mol2.log
 Initial command:
 /arc/software/Gaussian/g16.c01/l1.exe "/tmp/slurm/4882984/Gau-451257.inp" -scrdir="/tmp/slurm/4882984/"
 Entering Link 1 = /arc/software/Gaussian/g16.c01/l1.exe PID=    451258.
  
 Copyright (c) 1988-2019, Gaussian, Inc.  All Rights Reserved.
  
 This is part of the Gaussian(R) 16 program.  It is based on
 the Gaussian(R) 09 system (copyright 2009, Gaussian, Inc.),
 the Gaussian(R) 03 system (copyright 2003, Gaussian, Inc.),
 the Gaussian(R) 98 system (copyright 1998, Gaussian, Inc.),
 the Gaussian(R) 94 system (copyright 1995, Gaussian, Inc.),
 the Gaussian 92(TM) system (copyright 1992, Gaussian, Inc.),
 the Gaussian 90(TM) system (copyright 1990, Gaussian, Inc.),
 the Gaussian 88(TM) system (copyright 1988, Gaussian, Inc.),
 the Gaussian 86(TM) system (copyright 1986, Carnegie Mellon
 University), and the Gaussian 82(TM) system (copyright 1983,
 Carnegie Mellon University). Gaussian is a federally registered
 trademark of Gaussian, Inc.
  
 This software contains proprietary and confidential information,
 including trade secrets, belonging to Gaussian, Inc.
  
 This software is provided under written license and may be
 used, copied, transmitted, or stored only in accord with that
 written license.
  
 The following legend is applicable only to US Government
 contracts under FAR:
  
                    RESTRICTED RIGHTS LEGEND
  
 Use, reproduction and disclosure by the US Government is
 subject to restrictions as set forth in subparagraphs (a)
 and (c) of the Commercial Computer Software - Restricted
 Rights clause in FAR 52.227-19.
  
 Gaussian, Inc.
 340 Quinnipiac St., Bldg. 40, Wallingford CT 06492
  
  
 ---------------------------------------------------------------
 Warning -- This program may not be used in any manner that
 competes with the business of Gaussian, Inc. or will provide
 assistance to any competitor of Gaussian, Inc.  The licensee
 of this program is prohibited from giving any competitor of
 Gaussian, Inc. access to this program.  By using this program,
 the user acknowledges that Gaussian, Inc. is engaged in the
 business of creating and licensing software in the field of
 computational chemistry and represents and warrants to the
 licensee that it is not a competitor of Gaussian, Inc. and that
 it will not use this program in any manner prohibited above.
 ---------------------------------------------------------------
  

 Cite this work as:
 Gaussian 16, Revision C.01,
 M. J. Frisch, G. W. Trucks, H. B. Schlegel, G. E. Scuseria, 
 M. A. Robb, J. R. Cheeseman, G. Scalmani, V. Barone, 
 G. A. Petersson, H. Nakatsuji, X. Li, M. Caricato, A. V. Marenich, 
 J. Bloino, B. G. Janesko, R. Gomperts, B. Mennucci, H. P. Hratchian, 
 J. V. Ortiz, A. F. Izmaylov, J. L. Sonnenberg, D. Williams-Young, 
 F. Ding, F. Lipparini, F. Egidi, J. Goings, B. Peng, A. Petrone, 
 T. Henderson, D. Ranasinghe, V. G. Zakrzewski, J. Gao, N. Rega, 
 G. Zheng, W. Liang, M. Hada, M. Ehara, K. Toyota, R. Fukuda, 
 J. Hasegawa, M. Ishida, T. Nakajima, Y. Honda, O. Kitao, H. Nakai, 
 T. Vreven, K. Throssell, J. A. Montgomery, Jr., J. E. Peralta, 
 F. Ogliaro, M. J. Bearpark, J. J. Heyd, E. N. Brothers, K. N. Kudin, 
 V. N. Staroverov, T. A. Keith, R. Kobayashi, J. Normand, 
 K. Raghavachari, A. P. Rendell, J. C. Burant, S. S. Iyengar, 
 J. Tomasi, M. Cossi, J. M. Millam, M. Klene, C. Adamo, R. Cammi, 
 J. W. Ochterski, R. L. Martin, K. Morokuma, O. Farkas, 
 J. B. Foresman, and D. J. Fox, Gaussian, Inc., Wallingford CT, 2019.
 
 ******************************************
 Gaussian 16:  ES64L-G16RevC.01  3-Jul-2019
                 9-Apr-2025 
 ******************************************
 %nprocs=16
 Will use up to   16 processors via shared memory.
 %mem=30GB
 %chk=Grambow2020_wb97xd3_009030_forward_mol2.chk
 ----------------------------------------------------------------------
 #t hf aug-cc-pvdz symm=none int=(grid=ultrafine) guess=(read,tcheck) s
 table=(opt,rrhf)
 ----------------------------------------------------------------------
 -----
 title
 -----
 Symbolic Z-matrix:
 Charge =  0 Multiplicity = 1
 C                    -2.22582   0.255     0.17211 
 C                    -0.73415   0.17402   0.40603 
 C                    -0.15722  -1.20936   0.12627 
 C                     1.34135  -1.15301   0.06688 
 C                     1.98346  -0.00072  -0.04956 
 C                     1.2511    1.30067  -0.18241 
 O                    -0.12236   1.13518  -0.438 
 H                    -2.7518   -0.47636   0.78868 
 H                    -2.45146   0.05205  -0.87662 
 H                    -2.59825   1.24989   0.41729 
 H                    -0.51179   0.43481   1.45341 
 H                    -0.56003  -1.59501  -0.81745 
 H                    -0.4763   -1.90449   0.90875 
 H                     1.89418  -2.08444   0.12974 
 H                     3.06775   0.039    -0.05878 
 H                     1.40051   1.90912   0.72453 
 H                     1.65084   1.87366  -1.02242 
 
                    Distance matrix (angstroms):
                    1          2          3          4          5
     1  C    0.000000
     2  C    1.512069   0.000000
     3  C    2.534872   1.524746   0.000000
     4  C    3.836436   2.486708   1.500796   0.000000
     5  C    4.222863   2.761071   2.464589   1.324245   0.000000
     6  C    3.648022   2.357292   2.894625   2.467957   1.499208
     7  O    2.360407   1.417929   2.411735   2.762808   2.423966
     8  H    1.091645   2.154130   2.776313   4.211015   4.832338
     9  H    1.091755   2.146908   2.803657   4.089954   4.511688
    10  H    1.090242   2.152320   3.477246   4.627863   4.772214
    11  H    2.147556   1.102029   2.142502   2.806732   2.945312
    12  H    2.678920   2.157932   1.096171   2.143041   3.098505
    13  H    2.875209   2.153922   1.094211   2.139468   3.254703
    14  H    4.738060   3.476365   2.230251   1.084963   2.093319
    15  H    5.303005   3.832591   3.463098   2.101701   1.085057
    16  H    4.023873   2.769260   3.536851   3.132511   2.141622
    17  H    4.367546   3.258445   3.754138   3.231574   2.137854
                    6          7          8          9         10
     6  C    0.000000
     7  O    1.406799   0.000000
     8  H    4.485974   3.318997   0.000000
     9  H    3.968616   2.605819   1.772746   0.000000
    10  H    3.896111   2.621973   1.772408   1.769347   0.000000
    11  H    2.556049   2.054174   2.507933   3.055797   2.468041
    12  H    3.473959   2.790959   2.938513   2.508745   3.711115
    13  H    3.800992   3.343437   2.689205   3.304061   3.833309
    14  H    3.459760   3.841183   4.960367   4.945904   5.601998
    15  H    2.215245   3.394432   5.903463   5.579489   5.813470
    16  H    1.102305   2.066296   4.789177   4.566186   4.064361
    17  H    1.092585   2.007764   5.309034   4.490922   4.529528
                   11         12         13         14         15
    11  H    0.000000
    12  H    3.046194   0.000000
    13  H    2.402123   1.755723   0.000000
    14  H    3.726580   2.675795   2.501691   0.000000
    15  H    3.905955   4.050474   4.156150   2.433474   0.000000
    16  H    2.522248   4.301199   4.254401   4.067676   2.624998
    17  H    3.588457   4.118446   4.746425   4.129557   2.510420
                   16         17
    16  H    0.000000
    17  H    1.765158   0.000000
 Symmetry turned off by external request.
 Rotational constants (GHZ):           4.7744207           2.4981082           1.7518253
   251 basis functions,   411 primitive gaussians,   265 cartesian basis functions
    27 alpha electrons       27 beta electrons
       nuclear repulsion energy       314.7019463126 Hartrees.
 NAtoms=   17 NActive=   17 NUniq=   17 SFac= 1.00D+00 NAtFMM=   60 NAOKFM=F Big=F
 ExpMin= 2.97D-02 ExpMax= 1.17D+04 ExpMxC= 4.01D+02 IAcc=3 IRadAn=         5 AccDes= 0.00D+00
 Harris functional with IExCor=  205 and IRadAn=       5 diagonalized for initial guess.
 HarFok:  IExCor=  205 AccDes= 0.00D+00 IRadAn=         5 IDoV= 1 UseB2=F ITyADJ=14
 ICtDFT=  3500011 ScaDFX=  1.000000  1.000000  1.000000  1.000000
 FoFCou: FMM=F IPFlag=           0 FMFlag=      100000 FMFlg1=           0
         NFxFlg=           0 DoJE=T BraDBF=F KetDBF=T FulRan=T
         wScrn=  0.000000 ICntrl=       500 IOpCl=  0 I1Cent=   200000004 NGrid=           0
         NMat0=    1 NMatS0=      1 NMatT0=    0 NMatD0=    1 NMtDS0=    0 NMtDT0=    0
 Symmetry not used in FoFCou.
 SCF Done:  E(RHF) =  -307.906903125     A.U. after   13 cycles
            NFock= 13  Conv=0.65D-08     -V/T= 2.0008

 **********************************************************************

            Population analysis using the SCF Density.

 **********************************************************************

 Alpha  occ. eigenvalues --  -20.56065 -11.28184 -11.28155 -11.23361 -11.23070
 Alpha  occ. eigenvalues --  -11.22949 -11.21793  -1.38304  -1.08828  -1.05745
 Alpha  occ. eigenvalues --   -0.94693  -0.88809  -0.82129  -0.72535  -0.68100
 Alpha  occ. eigenvalues --   -0.65245  -0.63062  -0.59431  -0.57563  -0.55841
 Alpha  occ. eigenvalues --   -0.53441  -0.52959  -0.50360  -0.49311  -0.45185
 Alpha  occ. eigenvalues --   -0.40779  -0.35143
 Alpha virt. eigenvalues --    0.03577   0.04255   0.04506   0.04984   0.06068
 Alpha virt. eigenvalues --    0.06316   0.06773   0.07366   0.07953   0.08668
 Alpha virt. eigenvalues --    0.11804   0.12751   0.13171   0.14308   0.14558
 Alpha virt. eigenvalues --    0.15153   0.15480   0.15802   0.16208   0.16793
 Alpha virt. eigenvalues --    0.17175   0.17807   0.18238   0.18721   0.19114
 Alpha virt. eigenvalues --    0.19933   0.20364   0.21289   0.21352   0.21862
 Alpha virt. eigenvalues --    0.23679   0.24347   0.25194   0.28137   0.29109
 Alpha virt. eigenvalues --    0.30304   0.31360   0.32223   0.32471   0.34186
 Alpha virt. eigenvalues --    0.36307   0.36964   0.37300   0.37666   0.38608
 Alpha virt. eigenvalues --    0.39602   0.39943   0.40584   0.41521   0.42757
 Alpha virt. eigenvalues --    0.43271   0.43953   0.44729   0.45674   0.46185
 Alpha virt. eigenvalues --    0.47451   0.48139   0.48287   0.48858   0.49569
 Alpha virt. eigenvalues --    0.50759   0.51521   0.52331   0.52613   0.54222
 Alpha virt. eigenvalues --    0.54810   0.55748   0.56731   0.57409   0.58197
 Alpha virt. eigenvalues --    0.58580   0.59881   0.60746   0.62516   0.63223
 Alpha virt. eigenvalues --    0.64022   0.64867   0.65795   0.66228   0.67283
 Alpha virt. eigenvalues --    0.67754   0.69149   0.69304   0.70840   0.71422
 Alpha virt. eigenvalues --    0.72217   0.73057   0.74174   0.75117   0.76244
 Alpha virt. eigenvalues --    0.76951   0.77839   0.78475   0.78879   0.79420
 Alpha virt. eigenvalues --    0.82263   0.83213   0.83343   0.84220   0.85636
 Alpha virt. eigenvalues --    0.86987   0.87727   0.89366   0.89396   0.91442
 Alpha virt. eigenvalues --    0.93064   0.93649   0.94348   0.96243   0.97218
 Alpha virt. eigenvalues --    0.97557   0.99500   1.00599   1.03649   1.04472
 Alpha virt. eigenvalues --    1.05145   1.08643   1.09716   1.11302   1.14671
 Alpha virt. eigenvalues --    1.15688   1.18387   1.20990   1.24184   1.25903
 Alpha virt. eigenvalues --    1.28253   1.31582   1.32661   1.33939   1.34944
 Alpha virt. eigenvalues --    1.37368   1.41418   1.42322   1.47177   1.49861
 Alpha virt. eigenvalues --    1.50105   1.55405   1.57847   1.59184   1.59962
 Alpha virt. eigenvalues --    1.61278   1.62450   1.66229   1.69451   1.70347
 Alpha virt. eigenvalues --    1.71918   1.73989   1.76571   1.76931   1.80363
 Alpha virt. eigenvalues --    1.80961   1.84020   1.85114   1.89209   1.89890
 Alpha virt. eigenvalues --    1.90865   1.91549   1.93083   1.95430   1.98139
 Alpha virt. eigenvalues --    2.00464   2.02730   2.03273   2.05194   2.07922
 Alpha virt. eigenvalues --    2.09582   2.11416   2.12584   2.14835   2.17990
 Alpha virt. eigenvalues --    2.18568   2.20846   2.21398   2.22628   2.25497
 Alpha virt. eigenvalues --    2.26785   2.28801   2.30284   2.31656   2.33207
 Alpha virt. eigenvalues --    2.37027   2.37510   2.38823   2.39949   2.42472
 Alpha virt. eigenvalues --    2.44025   2.48049   2.49027   2.51147   2.56910
 Alpha virt. eigenvalues --    2.57131   2.61725   2.65203   2.66602   2.66867
 Alpha virt. eigenvalues --    2.70700   2.73310   2.75123   2.79260   2.83253
 Alpha virt. eigenvalues --    2.84284   2.87079   2.91210   2.91778   2.97831
 Alpha virt. eigenvalues --    2.99224   3.02891   3.05430   3.05898   3.12273
 Alpha virt. eigenvalues --    3.16671   3.17693   3.19717   3.21878   3.29522
 Alpha virt. eigenvalues --    3.38025   3.57096   3.67107   3.86897   3.88374
 Alpha virt. eigenvalues --    4.06589   4.10462   4.20363   4.31536
          Condensed to atoms (all electrons):
 Mulliken charges:
               1
     1  C    0.515191
     2  C    0.343207
     3  C    0.055270
     4  C    0.321196
     5  C    0.016900
     6  C    0.977076
     7  O   -1.005779
     8  H   -0.008330
     9  H   -0.017894
    10  H   -0.040882
    11  H   -0.180235
    12  H   -0.025384
    13  H   -0.029545
    14  H   -0.392681
    15  H   -0.382340
    16  H    0.010658
    17  H   -0.156428
 Sum of Mulliken charges =  -0.00000
 Mulliken charges with hydrogens summed into heavy atoms:
               1
     1  C    0.448085
     2  C    0.162972
     3  C    0.000340
     4  C   -0.071485
     5  C   -0.365440
     6  C    0.831306
     7  O   -1.005779
 Electronic spatial extent (au):  <R**2>=            750.4981
 Charge=             -0.0000 electrons
 Dipole moment (field-independent basis, Debye):
    X=              0.4611    Y=             -0.7947    Z=              0.9484  Tot=              1.3205
 NROrb=    251 NOA=    27 NOB=    27 NVA=   224 NVB=   224

 **** Warning!!: The largest alpha MO coefficient is  0.74376268D+02

    12 initial guesses have been made.
 Iteration     1 Dimension    12 NMult     0 NNew     12
 Iteration     2 Dimension    24 NMult    12 NNew     12
 Iteration     3 Dimension    27 NMult    24 NNew      3
 Iteration     4 Dimension    30 NMult    27 NNew      3
 Iteration     5 Dimension    33 NMult    30 NNew      3
 Iteration     6 Dimension    36 NMult    33 NNew      3
 ***********************************************************************
 Stability analysis using <AA,BB:AA,BB> singles matrix:
 ***********************************************************************
 Ground to excited state transition densities written to RWF  633

 Eigenvectors of the stability matrix:
 
 Excited state symmetry could not be determined.
 Eigenvector   1:      Singlet-?Sym  Eigenvalue= 0.2459534  <S**2>=0.000
      27 -> 28         0.60097
      27 -> 29        -0.18279
      27 -> 30        -0.10107
      27 -> 44        -0.14487
      27 -> 45        -0.13536
 The wavefunction is stable under the perturbations considered.
 The wavefunction is already stable.

 **********************************************************************

            Population analysis using the SCF Density.

 **********************************************************************

 Alpha  occ. eigenvalues --  -20.56065 -11.28184 -11.28155 -11.23361 -11.23070
 Alpha  occ. eigenvalues --  -11.22949 -11.21793  -1.38304  -1.08828  -1.05745
 Alpha  occ. eigenvalues --   -0.94693  -0.88809  -0.82129  -0.72535  -0.68100
 Alpha  occ. eigenvalues --   -0.65245  -0.63062  -0.59431  -0.57563  -0.55841
 Alpha  occ. eigenvalues --   -0.53441  -0.52959  -0.50360  -0.49311  -0.45185
 Alpha  occ. eigenvalues --   -0.40779  -0.35143
 Alpha virt. eigenvalues --    0.03577   0.04255   0.04506   0.04984   0.06068
 Alpha virt. eigenvalues --    0.06316   0.06773   0.07366   0.07953   0.08668
 Alpha virt. eigenvalues --    0.11804   0.12751   0.13171   0.14308   0.14558
 Alpha virt. eigenvalues --    0.15153   0.15480   0.15802   0.16208   0.16793
 Alpha virt. eigenvalues --    0.17175   0.17807   0.18238   0.18721   0.19114
 Alpha virt. eigenvalues --    0.19933   0.20364   0.21289   0.21352   0.21862
 Alpha virt. eigenvalues --    0.23679   0.24347   0.25194   0.28137   0.29109
 Alpha virt. eigenvalues --    0.30304   0.31360   0.32223   0.32471   0.34186
 Alpha virt. eigenvalues --    0.36307   0.36964   0.37300   0.37666   0.38608
 Alpha virt. eigenvalues --    0.39602   0.39943   0.40584   0.41521   0.42757
 Alpha virt. eigenvalues --    0.43271   0.43953   0.44729   0.45674   0.46185
 Alpha virt. eigenvalues --    0.47451   0.48139   0.48287   0.48858   0.49569
 Alpha virt. eigenvalues --    0.50759   0.51521   0.52331   0.52613   0.54222
 Alpha virt. eigenvalues --    0.54810   0.55748   0.56731   0.57409   0.58197
 Alpha virt. eigenvalues --    0.58580   0.59881   0.60746   0.62516   0.63223
 Alpha virt. eigenvalues --    0.64022   0.64867   0.65795   0.66228   0.67283
 Alpha virt. eigenvalues --    0.67754   0.69149   0.69304   0.70840   0.71422
 Alpha virt. eigenvalues --    0.72217   0.73057   0.74174   0.75117   0.76244
 Alpha virt. eigenvalues --    0.76951   0.77839   0.78475   0.78879   0.79420
 Alpha virt. eigenvalues --    0.82263   0.83213   0.83343   0.84220   0.85636
 Alpha virt. eigenvalues --    0.86987   0.87727   0.89366   0.89396   0.91442
 Alpha virt. eigenvalues --    0.93064   0.93649   0.94348   0.96243   0.97218
 Alpha virt. eigenvalues --    0.97557   0.99500   1.00599   1.03649   1.04472
 Alpha virt. eigenvalues --    1.05145   1.08643   1.09716   1.11302   1.14671
 Alpha virt. eigenvalues --    1.15688   1.18387   1.20990   1.24184   1.25903
 Alpha virt. eigenvalues --    1.28253   1.31582   1.32661   1.33939   1.34944
 Alpha virt. eigenvalues --    1.37368   1.41418   1.42322   1.47177   1.49861
 Alpha virt. eigenvalues --    1.50105   1.55405   1.57847   1.59184   1.59962
 Alpha virt. eigenvalues --    1.61278   1.62450   1.66229   1.69451   1.70347
 Alpha virt. eigenvalues --    1.71918   1.73989   1.76571   1.76931   1.80363
 Alpha virt. eigenvalues --    1.80961   1.84020   1.85114   1.89209   1.89890
 Alpha virt. eigenvalues --    1.90865   1.91549   1.93083   1.95430   1.98139
 Alpha virt. eigenvalues --    2.00464   2.02730   2.03273   2.05194   2.07922
 Alpha virt. eigenvalues --    2.09582   2.11416   2.12584   2.14835   2.17990
 Alpha virt. eigenvalues --    2.18568   2.20846   2.21398   2.22628   2.25497
 Alpha virt. eigenvalues --    2.26785   2.28801   2.30284   2.31656   2.33207
 Alpha virt. eigenvalues --    2.37027   2.37510   2.38823   2.39949   2.42472
 Alpha virt. eigenvalues --    2.44025   2.48049   2.49027   2.51147   2.56910
 Alpha virt. eigenvalues --    2.57131   2.61725   2.65203   2.66602   2.66867
 Alpha virt. eigenvalues --    2.70700   2.73310   2.75123   2.79260   2.83253
 Alpha virt. eigenvalues --    2.84284   2.87079   2.91210   2.91778   2.97831
 Alpha virt. eigenvalues --    2.99224   3.02891   3.05430   3.05898   3.12273
 Alpha virt. eigenvalues --    3.16671   3.17693   3.19717   3.21878   3.29522
 Alpha virt. eigenvalues --    3.38025   3.57096   3.67107   3.86897   3.88374
 Alpha virt. eigenvalues --    4.06589   4.10462   4.20363   4.31536
          Condensed to atoms (all electrons):
 Mulliken charges:
               1
     1  C    0.515191
     2  C    0.343207
     3  C    0.055270
     4  C    0.321196
     5  C    0.016900
     6  C    0.977076
     7  O   -1.005779
     8  H   -0.008330
     9  H   -0.017894
    10  H   -0.040882
    11  H   -0.180235
    12  H   -0.025384
    13  H   -0.029545
    14  H   -0.392681
    15  H   -0.382340
    16  H    0.010658
    17  H   -0.156428
 Sum of Mulliken charges =  -0.00000
 Mulliken charges with hydrogens summed into heavy atoms:
               1
     1  C    0.448085
     2  C    0.162972
     3  C    0.000340
     4  C   -0.071485
     5  C   -0.365440
     6  C    0.831306
     7  O   -1.005779
 Electronic spatial extent (au):  <R**2>=            750.4981
 Charge=             -0.0000 electrons
 Dipole moment (field-independent basis, Debye):
    X=              0.4611    Y=             -0.7947    Z=              0.9484  Tot=              1.3205
 Unable to Open any file for archive entry.
 1\1\GINC-SE041\Stability\RHF\Aug-CC-pVDZ\C6H10O1\OHZDE\09-Apr-2025\0\\
 #t hf aug-cc-pvdz symm=none int=(grid=ultrafine) guess=(read,tcheck) s
 table=(opt,rrhf)\\title\\0,1\C,0,-2.22582284,0.25499692,0.17210604\C,0
 ,-0.73415474,0.17401523,0.40603197\C,0,-0.15721563,-1.20935892,0.12626
 898\C,0,1.34134574,-1.15300728,0.06687612\C,0,1.98345824,-0.00072301,-
 0.04955574\C,0,1.25109545,1.30066818,-0.18240604\O,0,-0.12235533,1.135
 17739,-0.43800034\H,0,-2.75179514,-0.4763595,0.78867652\H,0,-2.4514605
 8,0.05204667,-0.8766209\H,0,-2.59825024,1.24988823,0.41729469\H,0,-0.5
 1178847,0.43480501,1.45341477\H,0,-0.56002851,-1.59500735,-0.81745121\
 H,0,-0.47630395,-1.90448545,0.9087516\H,0,1.8941846,-2.08443749,0.1297
 4137\H,0,3.0677488,0.03900292,-0.05878233\H,0,1.40050572,1.90911826,0.
 72453451\H,0,1.65083689,1.87366018,-1.02242319\\Version=ES64L-G16RevC.
 01\HF=-307.9069031\RMSD=6.483e-09\Dipole=0.1814142,-0.3126693,0.373141
 7\Quadrupole=1.4716812,0.0064434,-1.4781246,1.6122158,-0.7617764,0.503
 4983\PG=Unknown\\@
 The archive entry for this job was punched.


 GOD DOES NOT PLAY WITH DICE.
               -- A. EINSTEIN
 Job cpu time:       0 days  0 hours  9 minutes 26.3 seconds.
 Elapsed time:       0 days  0 hours  0 minutes 40.4 seconds.
 File lengths (MBytes):  RWF=    265 Int=      0 D2E=      0 Chk=      9 Scr=      1
 Normal termination of Gaussian 16 at Wed Apr  9 19:17:09 2025.
 Initial command:
 /arc/software/Gaussian/g16.c01/l1.exe "/tmp/slurm/4882984/Gau-451257.inp" -scrdir="/tmp/slurm/4882984/"
 Entering Link 1 = /arc/software/Gaussian/g16.c01/l1.exe PID=    451590.
  
 Copyright (c) 1988-2019, Gaussian, Inc.  All Rights Reserved.
  
 This is part of the Gaussian(R) 16 program.  It is based on
 the Gaussian(R) 09 system (copyright 2009, Gaussian, Inc.),
 the Gaussian(R) 03 system (copyright 2003, Gaussian, Inc.),
 the Gaussian(R) 98 system (copyright 1998, Gaussian, Inc.),
 the Gaussian(R) 94 system (copyright 1995, Gaussian, Inc.),
 the Gaussian 92(TM) system (copyright 1992, Gaussian, Inc.),
 the Gaussian 90(TM) system (copyright 1990, Gaussian, Inc.),
 the Gaussian 88(TM) system (copyright 1988, Gaussian, Inc.),
 the Gaussian 86(TM) system (copyright 1986, Carnegie Mellon
 University), and the Gaussian 82(TM) system (copyright 1983,
 Carnegie Mellon University). Gaussian is a federally registered
 trademark of Gaussian, Inc.
  
 This software contains proprietary and confidential information,
 including trade secrets, belonging to Gaussian, Inc.
  
 This software is provided under written license and may be
 used, copied, transmitted, or stored only in accord with that
 written license.
  
 The following legend is applicable only to US Government
 contracts under FAR:
  
                    RESTRICTED RIGHTS LEGEND
  
 Use, reproduction and disclosure by the US Government is
 subject to restrictions as set forth in subparagraphs (a)
 and (c) of the Commercial Computer Software - Restricted
 Rights clause in FAR 52.227-19.
  
 Gaussian, Inc.
 340 Quinnipiac St., Bldg. 40, Wallingford CT 06492
  
  
 ---------------------------------------------------------------
 Warning -- This program may not be used in any manner that
 competes with the business of Gaussian, Inc. or will provide
 assistance to any competitor of Gaussian, Inc.  The licensee
 of this program is prohibited from giving any competitor of
 Gaussian, Inc. access to this program.  By using this program,
 the user acknowledges that Gaussian, Inc. is engaged in the
 business of creating and licensing software in the field of
 computational chemistry and represents and warrants to the
 licensee that it is not a competitor of Gaussian, Inc. and that
 it will not use this program in any manner prohibited above.
 ---------------------------------------------------------------
  

 Cite this work as:
 Gaussian 16, Revision C.01,
 M. J. Frisch, G. W. Trucks, H. B. Schlegel, G. E. Scuseria, 
 M. A. Robb, J. R. Cheeseman, G. Scalmani, V. Barone, 
 G. A. Petersson, H. Nakatsuji, X. Li, M. Caricato, A. V. Marenich, 
 J. Bloino, B. G. Janesko, R. Gomperts, B. Mennucci, H. P. Hratchian, 
 J. V. Ortiz, A. F. Izmaylov, J. L. Sonnenberg, D. Williams-Young, 
 F. Ding, F. Lipparini, F. Egidi, J. Goings, B. Peng, A. Petrone, 
 T. Henderson, D. Ranasinghe, V. G. Zakrzewski, J. Gao, N. Rega, 
 G. Zheng, W. Liang, M. Hada, M. Ehara, K. Toyota, R. Fukuda, 
 J. Hasegawa, M. Ishida, T. Nakajima, Y. Honda, O. Kitao, H. Nakai, 
 T. Vreven, K. Throssell, J. A. Montgomery, Jr., J. E. Peralta, 
 F. Ogliaro, M. J. Bearpark, J. J. Heyd, E. N. Brothers, K. N. Kudin, 
 V. N. Staroverov, T. A. Keith, R. Kobayashi, J. Normand, 
 K. Raghavachari, A. P. Rendell, J. C. Burant, S. S. Iyengar, 
 J. Tomasi, M. Cossi, J. M. Millam, M. Klene, C. Adamo, R. Cammi, 
 J. W. Ochterski, R. L. Martin, K. Morokuma, O. Farkas, 
 J. B. Foresman, and D. J. Fox, Gaussian, Inc., Wallingford CT, 2019.
 
 ******************************************
 Gaussian 16:  ES64L-G16RevC.01  3-Jul-2019
                 9-Apr-2025 
 ******************************************
 %nprocs=16
 Will use up to   16 processors via shared memory.
 %mem=30GB
 %chk=Grambow2020_wb97xd3_009030_forward_mol2.chk
 ----------------------------------------------------------------------
 #t hf aug-cc-pvdz iop(5/13=1,5/36=2,99/5=2) pseudo=read geom=check gue
 ss=(read,tcheck) scf=(maxcycle=1)
 ----------------------------------------------------------------------
 -----
 title
 -----
 Structure from the checkpoint file:  "Grambow2020_wb97xd3_009030_forward_mol2.chk"
 Charge =  0 Multiplicity = 1
 Z-Matrix found in chk file.
 C,0,-2.22582284,0.25499692,0.17210604
 C,0,-0.73415474,0.17401523,0.40603197
 C,0,-0.15721563,-1.20935892,0.12626898
 C,0,1.34134574,-1.15300728,0.06687612
 C,0,1.98345824,-0.00072301,-0.04955574
 C,0,1.25109545,1.30066818,-0.18240604
 O,0,-0.12235533,1.13517739,-0.43800034
 H,0,-2.75179514,-0.4763595,0.78867652
 H,0,-2.45146058,0.05204667,-0.8766209
 H,0,-2.59825024,1.24988823,0.41729469
 H,0,-0.51178847,0.43480501,1.45341477
 H,0,-0.56002851,-1.59500735,-0.81745121
 H,0,-0.47630395,-1.90448545,0.9087516
 H,0,1.8941846,-2.08443749,0.12974137
 H,0,3.0677488,0.03900292,-0.05878233
 H,0,1.40050572,1.90911826,0.72453451
 H,0,1.65083689,1.87366018,-1.02242319
 Recover connectivity data from disk.
                    Distance matrix (angstroms):
                    1          2          3          4          5
     1  C    0.000000
     2  C    1.512069   0.000000
     3  C    2.534872   1.524746   0.000000
     4  C    3.836436   2.486708   1.500796   0.000000
     5  C    4.222863   2.761071   2.464589   1.324245   0.000000
     6  C    3.648022   2.357292   2.894625   2.467957   1.499208
     7  O    2.360407   1.417929   2.411735   2.762808   2.423966
     8  H    1.091645   2.154130   2.776313   4.211015   4.832338
     9  H    1.091755   2.146908   2.803657   4.089954   4.511688
    10  H    1.090242   2.152320   3.477246   4.627863   4.772214
    11  H    2.147556   1.102029   2.142502   2.806732   2.945312
    12  H    2.678920   2.157932   1.096171   2.143041   3.098505
    13  H    2.875209   2.153922   1.094211   2.139468   3.254703
    14  H    4.738060   3.476365   2.230251   1.084963   2.093319
    15  H    5.303005   3.832591   3.463098   2.101701   1.085057
    16  H    4.023873   2.769260   3.536851   3.132511   2.141622
    17  H    4.367546   3.258445   3.754138   3.231574   2.137854
                    6          7          8          9         10
     6  C    0.000000
     7  O    1.406799   0.000000
     8  H    4.485974   3.318997   0.000000
     9  H    3.968616   2.605819   1.772746   0.000000
    10  H    3.896111   2.621973   1.772408   1.769347   0.000000
    11  H    2.556049   2.054174   2.507933   3.055797   2.468041
    12  H    3.473959   2.790959   2.938513   2.508745   3.711115
    13  H    3.800992   3.343437   2.689205   3.304061   3.833309
    14  H    3.459760   3.841183   4.960367   4.945904   5.601998
    15  H    2.215245   3.394432   5.903463   5.579489   5.813470
    16  H    1.102305   2.066296   4.789177   4.566186   4.064361
    17  H    1.092585   2.007764   5.309034   4.490922   4.529528
                   11         12         13         14         15
    11  H    0.000000
    12  H    3.046194   0.000000
    13  H    2.402123   1.755723   0.000000
    14  H    3.726580   2.675795   2.501691   0.000000
    15  H    3.905955   4.050474   4.156150   2.433474   0.000000
    16  H    2.522248   4.301199   4.254401   4.067676   2.624998
    17  H    3.588457   4.118446   4.746425   4.129557   2.510420
                   16         17
    16  H    0.000000
    17  H    1.765158   0.000000
 Framework group  C1[X(C6H10O)]
 Deg. of freedom    45
                         Standard orientation:                         
 ---------------------------------------------------------------------
 Center     Atomic      Atomic             Coordinates (Angstroms)
 Number     Number       Type             X           Y           Z
 ---------------------------------------------------------------------
      1          6           0        2.354236   -0.076410   -0.009405
      2          6           0        0.880860   -0.005793    0.323052
      3          6           0        0.231811    1.306361   -0.103371
      4          6           0       -1.263833    1.199065   -0.040719
      5          6           0       -1.866951    0.023981    0.054418
      6          6           0       -1.095426   -1.261459    0.050245
      7          8           0        0.248932   -1.094716   -0.329203
      8          1           0        2.893508    0.750237    0.456994
      9          1           0        2.496901   -0.018745   -1.090262
     10          1           0        2.781778   -1.015028    0.343912
     11          1           0        0.743626   -0.120780    1.410440
     12          1           0        0.551352    1.564853   -1.119574
     13          1           0        0.578049    2.114887    0.547553
     14          1           0       -1.846889    2.113658   -0.067370
     15          1           0       -2.946781   -0.047803    0.132920
     16          1           0       -1.156274   -1.738343    1.042190
     17          1           0       -1.530912   -1.959676   -0.668495
 ---------------------------------------------------------------------
 Rotational constants (GHZ):           4.7744207           2.4981082           1.7518253
 ======================================================================================================
                                       Pseudopotential Parameters
 ======================================================================================================
  Center     Atomic      Valence      Angular      Power
  Number     Number     Electrons     Momentum     of R      Exponent        Coefficient   SO-Coeffient
 ======================================================================================================
    1          6            6
                                      G and up 
                                                     0        0.0000010       -0.00007288    0.00000000
                                                     2        0.1200000        0.10466671    0.00000000
                                                     2        0.1400000       -0.65716157    0.00000000
                                                     2        0.1600000        1.18890794    0.00000000
                                                     2        0.2000000       -1.25772850    0.00000000
                                                     2        0.2600000        1.01188378    0.00000000
                                                     2        0.4000000       -1.09380874    0.00000000
                                                     2        0.5000000        0.96944888    0.00000000
                                                     2        1.0000000       -0.79256938    0.00000000
                                                     2        3.0000000        1.06443276    0.00000000
                                      S - G
                                                     0        0.0000010       -0.00635295    0.00000000
                                                     2        0.1200000        0.16918955    0.00000000
                                                     2        0.1600000       -0.38862576    0.00000000
                                                     2        0.2800000        0.25638263    0.00000000
                                                     2        0.5000000        0.29628419    0.00000000
                                                     2        0.9000000       -0.28791512    0.00000000
                                      P - G
                                                     0        0.0000010       -0.04756931    0.00000000
                                                     2        0.1200000        0.28430375    0.00000000
                                                     2        0.1600000       -0.69640032    0.00000000
                                                     2        0.2600000        1.13005668    0.00000000
                                                     2        0.4000000       -1.31433324    0.00000000
                                                     2        0.7000000        0.91526469    0.00000000
                                      D - G
                                                     0        0.0000010       -0.11496411    0.00000000
                                                     2        0.1200000        0.16620776    0.00000000
                                                     2        0.1800000       -0.30959819    0.00000000
                                                     2        0.3000000        0.16621458    0.00000000
                                                     2        0.6000000        0.27350556    0.00000000
                                      F - G
                                                     0        0.0000010        0.12037550    0.00000000
                                                     2        0.1200000       -0.48737077    0.00000000
                                                     2        0.1400000        0.58315350    0.00000000
                                                     2        0.3000000        0.00005188    0.00000000
                                                     2        0.5000000       -1.16063549    0.00000000
                                                     2        0.8000000        2.09053308    0.00000000
    2          6            6
                                      G and up 
                                                     0        0.0000010       -0.00007288    0.00000000
                                                     2        0.1200000        0.10466671    0.00000000
                                                     2        0.1400000       -0.65716157    0.00000000
                                                     2        0.1600000        1.18890794    0.00000000
                                                     2        0.2000000       -1.25772850    0.00000000
                                                     2        0.2600000        1.01188378    0.00000000
                                                     2        0.4000000       -1.09380874    0.00000000
                                                     2        0.5000000        0.96944888    0.00000000
                                                     2        1.0000000       -0.79256938    0.00000000
                                                     2        3.0000000        1.06443276    0.00000000
                                      S - G
                                                     0        0.0000010       -0.00635295    0.00000000
                                                     2        0.1200000        0.16918955    0.00000000
                                                     2        0.1600000       -0.38862576    0.00000000
                                                     2        0.2800000        0.25638263    0.00000000
                                                     2        0.5000000        0.29628419    0.00000000
                                                     2        0.9000000       -0.28791512    0.00000000
                                      P - G
                                                     0        0.0000010       -0.04756931    0.00000000
                                                     2        0.1200000        0.28430375    0.00000000
                                                     2        0.1600000       -0.69640032    0.00000000
                                                     2        0.2600000        1.13005668    0.00000000
                                                     2        0.4000000       -1.31433324    0.00000000
                                                     2        0.7000000        0.91526469    0.00000000
                                      D - G
                                                     0        0.0000010       -0.11496411    0.00000000
                                                     2        0.1200000        0.16620776    0.00000000
                                                     2        0.1800000       -0.30959819    0.00000000
                                                     2        0.3000000        0.16621458    0.00000000
                                                     2        0.6000000        0.27350556    0.00000000
                                      F - G
                                                     0        0.0000010        0.12037550    0.00000000
                                                     2        0.1200000       -0.48737077    0.00000000
                                                     2        0.1400000        0.58315350    0.00000000
                                                     2        0.3000000        0.00005188    0.00000000
                                                     2        0.5000000       -1.16063549    0.00000000
                                                     2        0.8000000        2.09053308    0.00000000
    3          6            6
                                      G and up 
                                                     0        0.0000010       -0.00007288    0.00000000
                                                     2        0.1200000        0.10466671    0.00000000
                                                     2        0.1400000       -0.65716157    0.00000000
                                                     2        0.1600000        1.18890794    0.00000000
                                                     2        0.2000000       -1.25772850    0.00000000
                                                     2        0.2600000        1.01188378    0.00000000
                                                     2        0.4000000       -1.09380874    0.00000000
                                                     2        0.5000000        0.96944888    0.00000000
                                                     2        1.0000000       -0.79256938    0.00000000
                                                     2        3.0000000        1.06443276    0.00000000
                                      S - G
                                                     0        0.0000010       -0.00635295    0.00000000
                                                     2        0.1200000        0.16918955    0.00000000
                                                     2        0.1600000       -0.38862576    0.00000000
                                                     2        0.2800000        0.25638263    0.00000000
                                                     2        0.5000000        0.29628419    0.00000000
                                                     2        0.9000000       -0.28791512    0.00000000
                                      P - G
                                                     0        0.0000010       -0.04756931    0.00000000
                                                     2        0.1200000        0.28430375    0.00000000
                                                     2        0.1600000       -0.69640032    0.00000000
                                                     2        0.2600000        1.13005668    0.00000000
                                                     2        0.4000000       -1.31433324    0.00000000
                                                     2        0.7000000        0.91526469    0.00000000
                                      D - G
                                                     0        0.0000010       -0.11496411    0.00000000
                                                     2        0.1200000        0.16620776    0.00000000
                                                     2        0.1800000       -0.30959819    0.00000000
                                                     2        0.3000000        0.16621458    0.00000000
                                                     2        0.6000000        0.27350556    0.00000000
                                      F - G
                                                     0        0.0000010        0.12037550    0.00000000
                                                     2        0.1200000       -0.48737077    0.00000000
                                                     2        0.1400000        0.58315350    0.00000000
                                                     2        0.3000000        0.00005188    0.00000000
                                                     2        0.5000000       -1.16063549    0.00000000
                                                     2        0.8000000        2.09053308    0.00000000
    4          6            6
                                      G and up 
                                                     0        0.0000010       -0.00007288    0.00000000
                                                     2        0.1200000        0.10466671    0.00000000
                                                     2        0.1400000       -0.65716157    0.00000000
                                                     2        0.1600000        1.18890794    0.00000000
                                                     2        0.2000000       -1.25772850    0.00000000
                                                     2        0.2600000        1.01188378    0.00000000
                                                     2        0.4000000       -1.09380874    0.00000000
                                                     2        0.5000000        0.96944888    0.00000000
                                                     2        1.0000000       -0.79256938    0.00000000
                                                     2        3.0000000        1.06443276    0.00000000
                                      S - G
                                                     0        0.0000010       -0.00635295    0.00000000
                                                     2        0.1200000        0.16918955    0.00000000
                                                     2        0.1600000       -0.38862576    0.00000000
                                                     2        0.2800000        0.25638263    0.00000000
                                                     2        0.5000000        0.29628419    0.00000000
                                                     2        0.9000000       -0.28791512    0.00000000
                                      P - G
                                                     0        0.0000010       -0.04756931    0.00000000
                                                     2        0.1200000        0.28430375    0.00000000
                                                     2        0.1600000       -0.69640032    0.00000000
                                                     2        0.2600000        1.13005668    0.00000000
                                                     2        0.4000000       -1.31433324    0.00000000
                                                     2        0.7000000        0.91526469    0.00000000
                                      D - G
                                                     0        0.0000010       -0.11496411    0.00000000
                                                     2        0.1200000        0.16620776    0.00000000
                                                     2        0.1800000       -0.30959819    0.00000000
                                                     2        0.3000000        0.16621458    0.00000000
                                                     2        0.6000000        0.27350556    0.00000000
                                      F - G
                                                     0        0.0000010        0.12037550    0.00000000
                                                     2        0.1200000       -0.48737077    0.00000000
                                                     2        0.1400000        0.58315350    0.00000000
                                                     2        0.3000000        0.00005188    0.00000000
                                                     2        0.5000000       -1.16063549    0.00000000
                                                     2        0.8000000        2.09053308    0.00000000
    5          6            6
                                      G and up 
                                                     0        0.0000010       -0.00007288    0.00000000
                                                     2        0.1200000        0.10466671    0.00000000
                                                     2        0.1400000       -0.65716157    0.00000000
                                                     2        0.1600000        1.18890794    0.00000000
                                                     2        0.2000000       -1.25772850    0.00000000
                                                     2        0.2600000        1.01188378    0.00000000
                                                     2        0.4000000       -1.09380874    0.00000000
                                                     2        0.5000000        0.96944888    0.00000000
                                                     2        1.0000000       -0.79256938    0.00000000
                                                     2        3.0000000        1.06443276    0.00000000
                                      S - G
                                                     0        0.0000010       -0.00635295    0.00000000
                                                     2        0.1200000        0.16918955    0.00000000
                                                     2        0.1600000       -0.38862576    0.00000000
                                                     2        0.2800000        0.25638263    0.00000000
                                                     2        0.5000000        0.29628419    0.00000000
                                                     2        0.9000000       -0.28791512    0.00000000
                                      P - G
                                                     0        0.0000010       -0.04756931    0.00000000
                                                     2        0.1200000        0.28430375    0.00000000
                                                     2        0.1600000       -0.69640032    0.00000000
                                                     2        0.2600000        1.13005668    0.00000000
                                                     2        0.4000000       -1.31433324    0.00000000
                                                     2        0.7000000        0.91526469    0.00000000
                                      D - G
                                                     0        0.0000010       -0.11496411    0.00000000
                                                     2        0.1200000        0.16620776    0.00000000
                                                     2        0.1800000       -0.30959819    0.00000000
                                                     2        0.3000000        0.16621458    0.00000000
                                                     2        0.6000000        0.27350556    0.00000000
                                      F - G
                                                     0        0.0000010        0.12037550    0.00000000
                                                     2        0.1200000       -0.48737077    0.00000000
                                                     2        0.1400000        0.58315350    0.00000000
                                                     2        0.3000000        0.00005188    0.00000000
                                                     2        0.5000000       -1.16063549    0.00000000
                                                     2        0.8000000        2.09053308    0.00000000
    6          6            6
                                      G and up 
                                                     0        0.0000010       -0.00007288    0.00000000
                                                     2        0.1200000        0.10466671    0.00000000
                                                     2        0.1400000       -0.65716157    0.00000000
                                                     2        0.1600000        1.18890794    0.00000000
                                                     2        0.2000000       -1.25772850    0.00000000
                                                     2        0.2600000        1.01188378    0.00000000
                                                     2        0.4000000       -1.09380874    0.00000000
                                                     2        0.5000000        0.96944888    0.00000000
                                                     2        1.0000000       -0.79256938    0.00000000
                                                     2        3.0000000        1.06443276    0.00000000
                                      S - G
                                                     0        0.0000010       -0.00635295    0.00000000
                                                     2        0.1200000        0.16918955    0.00000000
                                                     2        0.1600000       -0.38862576    0.00000000
                                                     2        0.2800000        0.25638263    0.00000000
                                                     2        0.5000000        0.29628419    0.00000000
                                                     2        0.9000000       -0.28791512    0.00000000
                                      P - G
                                                     0        0.0000010       -0.04756931    0.00000000
                                                     2        0.1200000        0.28430375    0.00000000
                                                     2        0.1600000       -0.69640032    0.00000000
                                                     2        0.2600000        1.13005668    0.00000000
                                                     2        0.4000000       -1.31433324    0.00000000
                                                     2        0.7000000        0.91526469    0.00000000
                                      D - G
                                                     0        0.0000010       -0.11496411    0.00000000
                                                     2        0.1200000        0.16620776    0.00000000
                                                     2        0.1800000       -0.30959819    0.00000000
                                                     2        0.3000000        0.16621458    0.00000000
                                                     2        0.6000000        0.27350556    0.00000000
                                      F - G
                                                     0        0.0000010        0.12037550    0.00000000
                                                     2        0.1200000       -0.48737077    0.00000000
                                                     2        0.1400000        0.58315350    0.00000000
                                                     2        0.3000000        0.00005188    0.00000000
                                                     2        0.5000000       -1.16063549    0.00000000
                                                     2        0.8000000        2.09053308    0.00000000
    7          8            8
                                      G and up 
                                                     0        0.0000010        0.00049668    0.00000000
                                                     2        0.1200000       -0.01803391    0.00000000
                                                     2        0.1400000        0.04014195    0.00000000
                                                     2        0.2000000       -0.02692147    0.00000000
                                                     2        0.2800000       -0.04241843    0.00000000
                                                     2        0.4000000        0.15412145    0.00000000
                                                     2        0.7000000       -0.40587006    0.00000000
                                                     2        1.1000000        1.75666647    0.00000000
                                      S - G
                                                     0        0.0000010       -0.01088195    0.00000000
                                                     2        0.1200000        0.09867335    0.00000000
                                                     2        0.2400000       -0.08484177    0.00000000
                                                     2        0.6000000       -1.39011554    0.00000000
                                                     2        2.5000000        1.36225910    0.00000000
                                      P - G
                                                     0        0.0000010        0.05874028    0.00000000
                                                     2        0.1200000       -0.11700340    0.00000000
                                                     2        0.1600000        0.08847775    0.00000000
                                                     2        0.3000000        0.04709907    0.00000000
                                                     2        1.2000000       -1.80388338    0.00000000
                                      D - G
                                                     0        0.0000010       -0.00541262    0.00000000
                                                     2        0.1200000       -0.26547906    0.00000000
                                                     2        0.1600000        1.04289661    0.00000000
                                                     2        0.2400000       -1.92800913    0.00000000
                                                     2        0.4000000        2.26691633    0.00000000
                                                     2        0.7000000       -1.97391482    0.00000000
                                      F - G
                                                     0        0.0000010       -0.02604870    0.00000000
                                                     2        0.1200000        0.37362552    0.00000000
                                                     2        0.1600000       -1.43526367    0.00000000
                                                     2        0.2200000        1.76778079    0.00000000
                                                     2        0.5000000       -1.90846303    0.00000000
    8          1            1
                                      F and up 
                                                     0        0.0000010       -0.00007675    0.00000000
                                                     2        0.1200000        0.05352699    0.00000000
                                                     2        0.1400000       -0.25123645    0.00000000
                                                     2        0.1600000        0.32188106    0.00000000
                                                     2        0.2200000       -0.25206857    0.00000000
                                                     2        0.3000000        0.19290477    0.00000000
                                                     2        0.5000000       -0.10129770    0.00000000
                                                     2        0.9000000        0.00314995    0.00000000
                                                     2        1.5000000        0.18401192    0.00000000
                                      S - F
                                                     0        0.0000010        0.08065976    0.00000000
                                                     2        0.1200000       -0.09231673    0.00000000
                                                     2        0.1600000       -0.03278082    0.00000000
                                                     2        0.2800000        0.38423402    0.00000000
                                                     2        0.6000000       -1.09357590    0.00000000
                                                     2        1.1000000        1.53099489    0.00000000
                                                     2        3.0000000       -2.63300202    0.00000000
                                      P - F
                                                     0        0.0000010       -0.11638665    0.00000000
                                                     2        0.1200000        0.35468655    0.00000000
                                                     2        0.1600000       -0.59160923    0.00000000
                                                     2        0.3000000        0.49390547    0.00000000
                                                     2        0.6000000       -0.37949835    0.00000000
                                                     2        1.6000000        0.89304688    0.00000000
                                      D - F
                                                     0        0.0000010        0.05443663    0.00000000
                                                     2        0.1200000       -0.29679479    0.00000000
                                                     2        0.1400000        0.36849872    0.00000000
                                                     2        0.2400000        0.02793449    0.00000000
                                                     2        0.4000000       -0.46312857    0.00000000
                                                     2        0.7000000        0.97587598    0.00000000
                                                     2        1.5000000       -2.43431102    0.00000000
    9          1            1
                                      F and up 
                                                     0        0.0000010       -0.00007675    0.00000000
                                                     2        0.1200000        0.05352699    0.00000000
                                                     2        0.1400000       -0.25123645    0.00000000
                                                     2        0.1600000        0.32188106    0.00000000
                                                     2        0.2200000       -0.25206857    0.00000000
                                                     2        0.3000000        0.19290477    0.00000000
                                                     2        0.5000000       -0.10129770    0.00000000
                                                     2        0.9000000        0.00314995    0.00000000
                                                     2        1.5000000        0.18401192    0.00000000
                                      S - F
                                                     0        0.0000010        0.08065976    0.00000000
                                                     2        0.1200000       -0.09231673    0.00000000
                                                     2        0.1600000       -0.03278082    0.00000000
                                                     2        0.2800000        0.38423402    0.00000000
                                                     2        0.6000000       -1.09357590    0.00000000
                                                     2        1.1000000        1.53099489    0.00000000
                                                     2        3.0000000       -2.63300202    0.00000000
                                      P - F
                                                     0        0.0000010       -0.11638665    0.00000000
                                                     2        0.1200000        0.35468655    0.00000000
                                                     2        0.1600000       -0.59160923    0.00000000
                                                     2        0.3000000        0.49390547    0.00000000
                                                     2        0.6000000       -0.37949835    0.00000000
                                                     2        1.6000000        0.89304688    0.00000000
                                      D - F
                                                     0        0.0000010        0.05443663    0.00000000
                                                     2        0.1200000       -0.29679479    0.00000000
                                                     2        0.1400000        0.36849872    0.00000000
                                                     2        0.2400000        0.02793449    0.00000000
                                                     2        0.4000000       -0.46312857    0.00000000
                                                     2        0.7000000        0.97587598    0.00000000
                                                     2        1.5000000       -2.43431102    0.00000000
   10          1            1
                                      F and up 
                                                     0        0.0000010       -0.00007675    0.00000000
                                                     2        0.1200000        0.05352699    0.00000000
                                                     2        0.1400000       -0.25123645    0.00000000
                                                     2        0.1600000        0.32188106    0.00000000
                                                     2        0.2200000       -0.25206857    0.00000000
                                                     2        0.3000000        0.19290477    0.00000000
                                                     2        0.5000000       -0.10129770    0.00000000
                                                     2        0.9000000        0.00314995    0.00000000
                                                     2        1.5000000        0.18401192    0.00000000
                                      S - F
                                                     0        0.0000010        0.08065976    0.00000000
                                                     2        0.1200000       -0.09231673    0.00000000
                                                     2        0.1600000       -0.03278082    0.00000000
                                                     2        0.2800000        0.38423402    0.00000000
                                                     2        0.6000000       -1.09357590    0.00000000
                                                     2        1.1000000        1.53099489    0.00000000
                                                     2        3.0000000       -2.63300202    0.00000000
                                      P - F
                                                     0        0.0000010       -0.11638665    0.00000000
                                                     2        0.1200000        0.35468655    0.00000000
                                                     2        0.1600000       -0.59160923    0.00000000
                                                     2        0.3000000        0.49390547    0.00000000
                                                     2        0.6000000       -0.37949835    0.00000000
                                                     2        1.6000000        0.89304688    0.00000000
                                      D - F
                                                     0        0.0000010        0.05443663    0.00000000
                                                     2        0.1200000       -0.29679479    0.00000000
                                                     2        0.1400000        0.36849872    0.00000000
                                                     2        0.2400000        0.02793449    0.00000000
                                                     2        0.4000000       -0.46312857    0.00000000
                                                     2        0.7000000        0.97587598    0.00000000
                                                     2        1.5000000       -2.43431102    0.00000000
   11          1            1
                                      F and up 
                                                     0        0.0000010       -0.00007675    0.00000000
                                                     2        0.1200000        0.05352699    0.00000000
                                                     2        0.1400000       -0.25123645    0.00000000
                                                     2        0.1600000        0.32188106    0.00000000
                                                     2        0.2200000       -0.25206857    0.00000000
                                                     2        0.3000000        0.19290477    0.00000000
                                                     2        0.5000000       -0.10129770    0.00000000
                                                     2        0.9000000        0.00314995    0.00000000
                                                     2        1.5000000        0.18401192    0.00000000
                                      S - F
                                                     0        0.0000010        0.08065976    0.00000000
                                                     2        0.1200000       -0.09231673    0.00000000
                                                     2        0.1600000       -0.03278082    0.00000000
                                                     2        0.2800000        0.38423402    0.00000000
                                                     2        0.6000000       -1.09357590    0.00000000
                                                     2        1.1000000        1.53099489    0.00000000
                                                     2        3.0000000       -2.63300202    0.00000000
                                      P - F
                                                     0        0.0000010       -0.11638665    0.00000000
                                                     2        0.1200000        0.35468655    0.00000000
                                                     2        0.1600000       -0.59160923    0.00000000
                                                     2        0.3000000        0.49390547    0.00000000
                                                     2        0.6000000       -0.37949835    0.00000000
                                                     2        1.6000000        0.89304688    0.00000000
                                      D - F
                                                     0        0.0000010        0.05443663    0.00000000
                                                     2        0.1200000       -0.29679479    0.00000000
                                                     2        0.1400000        0.36849872    0.00000000
                                                     2        0.2400000        0.02793449    0.00000000
                                                     2        0.4000000       -0.46312857    0.00000000
                                                     2        0.7000000        0.97587598    0.00000000
                                                     2        1.5000000       -2.43431102    0.00000000
   12          1            1
                                      F and up 
                                                     0        0.0000010       -0.00007675    0.00000000
                                                     2        0.1200000        0.05352699    0.00000000
                                                     2        0.1400000       -0.25123645    0.00000000
                                                     2        0.1600000        0.32188106    0.00000000
                                                     2        0.2200000       -0.25206857    0.00000000
                                                     2        0.3000000        0.19290477    0.00000000
                                                     2        0.5000000       -0.10129770    0.00000000
                                                     2        0.9000000        0.00314995    0.00000000
                                                     2        1.5000000        0.18401192    0.00000000
                                      S - F
                                                     0        0.0000010        0.08065976    0.00000000
                                                     2        0.1200000       -0.09231673    0.00000000
                                                     2        0.1600000       -0.03278082    0.00000000
                                                     2        0.2800000        0.38423402    0.00000000
                                                     2        0.6000000       -1.09357590    0.00000000
                                                     2        1.1000000        1.53099489    0.00000000
                                                     2        3.0000000       -2.63300202    0.00000000
                                      P - F
                                                     0        0.0000010       -0.11638665    0.00000000
                                                     2        0.1200000        0.35468655    0.00000000
                                                     2        0.1600000       -0.59160923    0.00000000
                                                     2        0.3000000        0.49390547    0.00000000
                                                     2        0.6000000       -0.37949835    0.00000000
                                                     2        1.6000000        0.89304688    0.00000000
                                      D - F
                                                     0        0.0000010        0.05443663    0.00000000
                                                     2        0.1200000       -0.29679479    0.00000000
                                                     2        0.1400000        0.36849872    0.00000000
                                                     2        0.2400000        0.02793449    0.00000000
                                                     2        0.4000000       -0.46312857    0.00000000
                                                     2        0.7000000        0.97587598    0.00000000
                                                     2        1.5000000       -2.43431102    0.00000000
   13          1            1
                                      F and up 
                                                     0        0.0000010       -0.00007675    0.00000000
                                                     2        0.1200000        0.05352699    0.00000000
                                                     2        0.1400000       -0.25123645    0.00000000
                                                     2        0.1600000        0.32188106    0.00000000
                                                     2        0.2200000       -0.25206857    0.00000000
                                                     2        0.3000000        0.19290477    0.00000000
                                                     2        0.5000000       -0.10129770    0.00000000
                                                     2        0.9000000        0.00314995    0.00000000
                                                     2        1.5000000        0.18401192    0.00000000
                                      S - F
                                                     0        0.0000010        0.08065976    0.00000000
                                                     2        0.1200000       -0.09231673    0.00000000
                                                     2        0.1600000       -0.03278082    0.00000000
                                                     2        0.2800000        0.38423402    0.00000000
                                                     2        0.6000000       -1.09357590    0.00000000
                                                     2        1.1000000        1.53099489    0.00000000
                                                     2        3.0000000       -2.63300202    0.00000000
                                      P - F
                                                     0        0.0000010       -0.11638665    0.00000000
                                                     2        0.1200000        0.35468655    0.00000000
                                                     2        0.1600000       -0.59160923    0.00000000
                                                     2        0.3000000        0.49390547    0.00000000
                                                     2        0.6000000       -0.37949835    0.00000000
                                                     2        1.6000000        0.89304688    0.00000000
                                      D - F
                                                     0        0.0000010        0.05443663    0.00000000
                                                     2        0.1200000       -0.29679479    0.00000000
                                                     2        0.1400000        0.36849872    0.00000000
                                                     2        0.2400000        0.02793449    0.00000000
                                                     2        0.4000000       -0.46312857    0.00000000
                                                     2        0.7000000        0.97587598    0.00000000
                                                     2        1.5000000       -2.43431102    0.00000000
   14          1            1
                                      F and up 
                                                     0        0.0000010       -0.00007675    0.00000000
                                                     2        0.1200000        0.05352699    0.00000000
                                                     2        0.1400000       -0.25123645    0.00000000
                                                     2        0.1600000        0.32188106    0.00000000
                                                     2        0.2200000       -0.25206857    0.00000000
                                                     2        0.3000000        0.19290477    0.00000000
                                                     2        0.5000000       -0.10129770    0.00000000
                                                     2        0.9000000        0.00314995    0.00000000
                                                     2        1.5000000        0.18401192    0.00000000
                                      S - F
                                                     0        0.0000010        0.08065976    0.00000000
                                                     2        0.1200000       -0.09231673    0.00000000
                                                     2        0.1600000       -0.03278082    0.00000000
                                                     2        0.2800000        0.38423402    0.00000000
                                                     2        0.6000000       -1.09357590    0.00000000
                                                     2        1.1000000        1.53099489    0.00000000
                                                     2        3.0000000       -2.63300202    0.00000000
                                      P - F
                                                     0        0.0000010       -0.11638665    0.00000000
                                                     2        0.1200000        0.35468655    0.00000000
                                                     2        0.1600000       -0.59160923    0.00000000
                                                     2        0.3000000        0.49390547    0.00000000
                                                     2        0.6000000       -0.37949835    0.00000000
                                                     2        1.6000000        0.89304688    0.00000000
                                      D - F
                                                     0        0.0000010        0.05443663    0.00000000
                                                     2        0.1200000       -0.29679479    0.00000000
                                                     2        0.1400000        0.36849872    0.00000000
                                                     2        0.2400000        0.02793449    0.00000000
                                                     2        0.4000000       -0.46312857    0.00000000
                                                     2        0.7000000        0.97587598    0.00000000
                                                     2        1.5000000       -2.43431102    0.00000000
   15          1            1
                                      F and up 
                                                     0        0.0000010       -0.00007675    0.00000000
                                                     2        0.1200000        0.05352699    0.00000000
                                                     2        0.1400000       -0.25123645    0.00000000
                                                     2        0.1600000        0.32188106    0.00000000
                                                     2        0.2200000       -0.25206857    0.00000000
                                                     2        0.3000000        0.19290477    0.00000000
                                                     2        0.5000000       -0.10129770    0.00000000
                                                     2        0.9000000        0.00314995    0.00000000
                                                     2        1.5000000        0.18401192    0.00000000
                                      S - F
                                                     0        0.0000010        0.08065976    0.00000000
                                                     2        0.1200000       -0.09231673    0.00000000
                                                     2        0.1600000       -0.03278082    0.00000000
                                                     2        0.2800000        0.38423402    0.00000000
                                                     2        0.6000000       -1.09357590    0.00000000
                                                     2        1.1000000        1.53099489    0.00000000
                                                     2        3.0000000       -2.63300202    0.00000000
                                      P - F
                                                     0        0.0000010       -0.11638665    0.00000000
                                                     2        0.1200000        0.35468655    0.00000000
                                                     2        0.1600000       -0.59160923    0.00000000
                                                     2        0.3000000        0.49390547    0.00000000
                                                     2        0.6000000       -0.37949835    0.00000000
                                                     2        1.6000000        0.89304688    0.00000000
                                      D - F
                                                     0        0.0000010        0.05443663    0.00000000
                                                     2        0.1200000       -0.29679479    0.00000000
                                                     2        0.1400000        0.36849872    0.00000000
                                                     2        0.2400000        0.02793449    0.00000000
                                                     2        0.4000000       -0.46312857    0.00000000
                                                     2        0.7000000        0.97587598    0.00000000
                                                     2        1.5000000       -2.43431102    0.00000000
   16          1            1
                                      F and up 
                                                     0        0.0000010       -0.00007675    0.00000000
                                                     2        0.1200000        0.05352699    0.00000000
                                                     2        0.1400000       -0.25123645    0.00000000
                                                     2        0.1600000        0.32188106    0.00000000
                                                     2        0.2200000       -0.25206857    0.00000000
                                                     2        0.3000000        0.19290477    0.00000000
                                                     2        0.5000000       -0.10129770    0.00000000
                                                     2        0.9000000        0.00314995    0.00000000
                                                     2        1.5000000        0.18401192    0.00000000
                                      S - F
                                                     0        0.0000010        0.08065976    0.00000000
                                                     2        0.1200000       -0.09231673    0.00000000
                                                     2        0.1600000       -0.03278082    0.00000000
                                                     2        0.2800000        0.38423402    0.00000000
                                                     2        0.6000000       -1.09357590    0.00000000
                                                     2        1.1000000        1.53099489    0.00000000
                                                     2        3.0000000       -2.63300202    0.00000000
                                      P - F
                                                     0        0.0000010       -0.11638665    0.00000000
                                                     2        0.1200000        0.35468655    0.00000000
                                                     2        0.1600000       -0.59160923    0.00000000
                                                     2        0.3000000        0.49390547    0.00000000
                                                     2        0.6000000       -0.37949835    0.00000000
                                                     2        1.6000000        0.89304688    0.00000000
                                      D - F
                                                     0        0.0000010        0.05443663    0.00000000
                                                     2        0.1200000       -0.29679479    0.00000000
                                                     2        0.1400000        0.36849872    0.00000000
                                                     2        0.2400000        0.02793449    0.00000000
                                                     2        0.4000000       -0.46312857    0.00000000
                                                     2        0.7000000        0.97587598    0.00000000
                                                     2        1.5000000       -2.43431102    0.00000000
   17          1            1
                                      F and up 
                                                     0        0.0000010       -0.00007675    0.00000000
                                                     2        0.1200000        0.05352699    0.00000000
                                                     2        0.1400000       -0.25123645    0.00000000
                                                     2        0.1600000        0.32188106    0.00000000
                                                     2        0.2200000       -0.25206857    0.00000000
                                                     2        0.3000000        0.19290477    0.00000000
                                                     2        0.5000000       -0.10129770    0.00000000
                                                     2        0.9000000        0.00314995    0.00000000
                                                     2        1.5000000        0.18401192    0.00000000
                                      S - F
                                                     0        0.0000010        0.08065976    0.00000000
                                                     2        0.1200000       -0.09231673    0.00000000
                                                     2        0.1600000       -0.03278082    0.00000000
                                                     2        0.2800000        0.38423402    0.00000000
                                                     2        0.6000000       -1.09357590    0.00000000
                                                     2        1.1000000        1.53099489    0.00000000
                                                     2        3.0000000       -2.63300202    0.00000000
                                      P - F
                                                     0        0.0000010       -0.11638665    0.00000000
                                                     2        0.1200000        0.35468655    0.00000000
                                                     2        0.1600000       -0.59160923    0.00000000
                                                     2        0.3000000        0.49390547    0.00000000
                                                     2        0.6000000       -0.37949835    0.00000000
                                                     2        1.6000000        0.89304688    0.00000000
                                      D - F
                                                     0        0.0000010        0.05443663    0.00000000
                                                     2        0.1200000       -0.29679479    0.00000000
                                                     2        0.1400000        0.36849872    0.00000000
                                                     2        0.2400000        0.02793449    0.00000000
                                                     2        0.4000000       -0.46312857    0.00000000
                                                     2        0.7000000        0.97587598    0.00000000
                                                     2        1.5000000       -2.43431102    0.00000000
 ======================================================================================================
   251 basis functions,   411 primitive gaussians,   265 cartesian basis functions
    27 alpha electrons       27 beta electrons
       nuclear repulsion energy       314.7019463126 Hartrees.
 NAtoms=   17 NActive=   17 NUniq=   17 SFac= 1.00D+00 NAtFMM=   60 NAOKFM=F Big=F
   1 Symmetry operations used in ECPInt.
 ECPInt:  NShTT=    6441 NPrTT=   27141 LenC2=    6438 LenP2D=   21961.
 LDataN:  DoStor=T MaxTD1= 6 Len=  172
 Initial guess from the checkpoint file:  "Grambow2020_wb97xd3_009030_forward_mol2.chk"
 B after Tr=     0.214555    0.165057   -0.088129
         Rot=    0.017035    0.036747    0.070940    0.996658 Ang= 178.05 deg.
 >>>>>>>>>> Convergence criterion not met.
 SCF Done:  E(RHF) =  -308.233925818     A.U. after    2 cycles
            NFock=  1  Conv=0.17D-01     -V/T= 2.0022

 **********************************************************************

            Population analysis using the SCF Density.

 **********************************************************************

 Orbital symmetries:
       Occupied  (A) (A) (A) (A) (A) (A) (A) (A) (A) (A) (A) (A)
                 (A) (A) (A) (A) (A) (A) (A) (A) (A) (A) (A) (A)
                 (A) (A) (A)
       Virtual   (A) (A) (A) (A) (A) (A) (A) (A) (A) (A) (A) (A)
                 (A) (A) (A) (A) (A) (A) (A) (A) (A) (A) (A) (A)
                 (A) (A) (A) (A) (A) (A) (A) (A) (A) (A) (A) (A)
                 (A) (A) (A) (A) (A) (A) (A) (A) (A) (A) (A) (A)
                 (A) (A) (A) (A) (A) (A) (A) (A) (A) (A) (A) (A)
                 (A) (A) (A) (A) (A) (A) (A) (A) (A) (A) (A) (A)
                 (A) (A) (A) (A) (A) (A) (A) (A) (A) (A) (A) (A)
                 (A) (A) (A) (A) (A) (A) (A) (A) (A) (A) (A) (A)
                 (A) (A) (A) (A) (A) (A) (A) (A) (A) (A) (A) (A)
                 (A) (A) (A) (A) (A) (A) (A) (A) (A) (A) (A) (A)
                 (A) (A) (A) (A) (A) (A) (A) (A) (A) (A) (A) (A)
                 (A) (A) (A) (A) (A) (A) (A) (A) (A) (A) (A) (A)
                 (A) (A) (A) (A) (A) (A) (A) (A) (A) (A) (A) (A)
                 (A) (A) (A) (A) (A) (A) (A) (A) (A) (A) (A) (A)
                 (A) (A) (A) (A) (A) (A) (A) (A) (A) (A) (A) (A)
                 (A) (A) (A) (A) (A) (A) (A) (A) (A) (A) (A) (A)
                 (A) (A) (A) (A) (A) (A) (A) (A) (A) (A) (A) (A)
                 (A) (A) (A) (A) (A) (A) (A) (A) (A) (A) (A) (A)
                 (A) (A) (A) (A) (A) (A) (A) (A)
 The electronic state is 1-A.
 Alpha  occ. eigenvalues --  -20.53769 -11.28333 -11.28233 -11.23496 -11.23233
 Alpha  occ. eigenvalues --  -11.23170 -11.22111  -1.46390  -1.09109  -1.05853
 Alpha  occ. eigenvalues --   -0.94809  -0.89271  -0.82564  -0.73122  -0.69090
 Alpha  occ. eigenvalues --   -0.65921  -0.63707  -0.60361  -0.58192  -0.56571
 Alpha  occ. eigenvalues --   -0.54374  -0.53822  -0.51044  -0.49999  -0.45505
 Alpha  occ. eigenvalues --   -0.40644  -0.35998
 Alpha virt. eigenvalues --    0.03565   0.03806   0.03946   0.04407   0.05653
 Alpha virt. eigenvalues --    0.05945   0.06423   0.07163   0.07787   0.08804
 Alpha virt. eigenvalues --    0.11901   0.12680   0.13123   0.14483   0.14571
 Alpha virt. eigenvalues --    0.15149   0.15371   0.15720   0.16165   0.16610
 Alpha virt. eigenvalues --    0.17133   0.17690   0.18264   0.18719   0.19161
 Alpha virt. eigenvalues --    0.19895   0.20395   0.21303   0.21356   0.21789
 Alpha virt. eigenvalues --    0.23598   0.24203   0.25121   0.28033   0.28973
 Alpha virt. eigenvalues --    0.30169   0.31219   0.32085   0.32305   0.33995
 Alpha virt. eigenvalues --    0.36033   0.36731   0.37110   0.37478   0.38419
 Alpha virt. eigenvalues --    0.39475   0.39794   0.40401   0.41376   0.42690
 Alpha virt. eigenvalues --    0.43168   0.43864   0.44636   0.45600   0.46048
 Alpha virt. eigenvalues --    0.47337   0.48088   0.48208   0.48760   0.49535
 Alpha virt. eigenvalues --    0.50653   0.51529   0.52349   0.52549   0.54226
 Alpha virt. eigenvalues --    0.54849   0.55764   0.56856   0.57484   0.58287
 Alpha virt. eigenvalues --    0.58683   0.59906   0.60796   0.62571   0.63249
 Alpha virt. eigenvalues --    0.63997   0.64879   0.65823   0.66223   0.67326
 Alpha virt. eigenvalues --    0.67814   0.69211   0.69347   0.70898   0.71531
 Alpha virt. eigenvalues --    0.72340   0.73126   0.74251   0.75144   0.76318
 Alpha virt. eigenvalues --    0.77013   0.77988   0.78546   0.78949   0.79618
 Alpha virt. eigenvalues --    0.82401   0.83359   0.83488   0.84329   0.85726
 Alpha virt. eigenvalues --    0.87212   0.87872   0.89509   0.89605   0.91601
 Alpha virt. eigenvalues --    0.93346   0.93916   0.94618   0.96506   0.97499
 Alpha virt. eigenvalues --    0.97835   0.99915   1.01071   1.04206   1.04923
 Alpha virt. eigenvalues --    1.05893   1.09142   1.10422   1.12141   1.15533
 Alpha virt. eigenvalues --    1.16753   1.19624   1.22022   1.25284   1.27417
 Alpha virt. eigenvalues --    1.29482   1.32826   1.34186   1.35152   1.36221
 Alpha virt. eigenvalues --    1.38845   1.42725   1.43811   1.48464   1.51266
 Alpha virt. eigenvalues --    1.51637   1.56866   1.59930   1.60882   1.61588
 Alpha virt. eigenvalues --    1.62960   1.63923   1.68002   1.71098   1.71843
 Alpha virt. eigenvalues --    1.73287   1.75142   1.77377   1.77655   1.81765
 Alpha virt. eigenvalues --    1.82775   1.84458   1.86647   1.91006   1.91647
 Alpha virt. eigenvalues --    1.93117   1.94103   1.94739   1.97122   2.00249
 Alpha virt. eigenvalues --    2.01538   2.03966   2.05728   2.07710   2.11030
 Alpha virt. eigenvalues --    2.12256   2.14325   2.15268   2.17329   2.20768
 Alpha virt. eigenvalues --    2.21698   2.23651   2.24098   2.24990   2.28393
 Alpha virt. eigenvalues --    2.29902   2.32563   2.34294   2.35417   2.37873
 Alpha virt. eigenvalues --    2.40477   2.41007   2.41958   2.44055   2.46033
 Alpha virt. eigenvalues --    2.48130   2.51445   2.52566   2.53827   2.60149
 Alpha virt. eigenvalues --    2.60321   2.64316   2.67912   2.68586   2.69803
 Alpha virt. eigenvalues --    2.72267   2.76776   2.77285   2.81505   2.84936
 Alpha virt. eigenvalues --    2.87782   2.91025   2.96574   2.98069   3.02262
 Alpha virt. eigenvalues --    3.04328   3.07403   3.07842   3.11835   3.17108
 Alpha virt. eigenvalues --    3.22392   3.22957   3.25757   3.26201   3.31574
 Alpha virt. eigenvalues --    3.40296   3.59731   3.70635   3.96274   3.98232
 Alpha virt. eigenvalues --    4.13973   4.17785   4.30491   4.40452
          Condensed to atoms (all electrons):
 Mulliken charges:
               1
     1  C   -0.458712
     2  C    0.641863
     3  C   -0.721253
     4  C    0.464356
     5  C    0.099732
     6  C    0.374105
     7  O   -1.484312
     8  H    0.200369
     9  H    0.192736
    10  H    0.151888
    11  H    0.184369
    12  H    0.222485
    13  H    0.182859
    14  H   -0.166738
    15  H   -0.156362
    16  H    0.233119
    17  H    0.039495
 Sum of Mulliken charges =  -0.00000
 Mulliken charges with hydrogens summed into heavy atoms:
               1
     1  C    0.086282
     2  C    0.826232
     3  C   -0.315909
     4  C    0.297619
     5  C   -0.056630
     6  C    0.646718
     7  O   -1.484312
 Electronic spatial extent (au):  <R**2>=            745.9199
 Charge=             -0.0000 electrons
 Dipole moment (field-independent basis, Debye):
    X=             -0.4006    Y=              0.8599    Z=              0.8153  Tot=              1.2509

 Test job not archived.
 1\1\GINC-SE041\SP\RHF\Aug-CC-pVDZ\C6H10O1\OHZDE\09-Apr-2025\0\\#t hf a
 ug-cc-pvdz iop(5/13=1,5/36=2,99/5=2) pseudo=read geom=check guess=(rea
 d,tcheck) scf=(maxcycle=1)\\title\\0,1\C,0,-2.22582284,0.25499692,0.17
 210604\C,0,-0.73415474,0.17401523,0.40603197\C,0,-0.15721563,-1.209358
 92,0.12626898\C,0,1.34134574,-1.15300728,0.06687612\C,0,1.98345824,-0.
 00072301,-0.04955574\C,0,1.25109545,1.30066818,-0.18240604\O,0,-0.1223
 5533,1.13517739,-0.43800034\H,0,-2.75179514,-0.4763595,0.78867652\H,0,
 -2.45146058,0.05204667,-0.8766209\H,0,-2.59825024,1.24988823,0.4172946
 9\H,0,-0.51178847,0.43480501,1.45341477\H,0,-0.56002851,-1.59500735,-0
 .81745121\H,0,-0.47630395,-1.90448545,0.9087516\H,0,1.8941846,-2.08443
 749,0.12974137\H,0,3.0677488,0.03900292,-0.05878233\H,0,1.40050572,1.9
 0911826,0.72453451\H,0,1.65083689,1.87366018,-1.02242319\\Version=ES64
 L-G16RevC.01\State=1-A\HF=-308.2339258\RMSD=1.656e-02\Dipole=0.171636,
 -0.2959417,0.3537708\Quadrupole=1.418415,0.1883676,-1.6067825,1.609001
 4,-0.8424704,0.4126683\PG=C01 [X(C6H10O1)]\\@


 IF GOD HAD MEANT MAN TO SEE THE SUN RISE, HE
 WOULD HAVE SCHEDULED IT FOR A LATER HOUR.
 Job cpu time:       0 days  0 hours  1 minutes 20.9 seconds.
 Elapsed time:       0 days  0 hours  0 minutes  6.0 seconds.
 File lengths (MBytes):  RWF=     14 Int=      0 D2E=      0 Chk=      9 Scr=      1
 Normal termination of Gaussian 16 at Wed Apr  9 19:17:15 2025.
