 Entering Gaussian System, Link 0=g16
 Input=Grambow2020_wb97xd3_008303_forward_mol1.gjf
 Output=Grambow2020_wb97xd3_008303_forward_mol1.log
 Initial command:
 /arc/software/Gaussian/g16.c01/l1.exe "/tmp/slurm/4868339/Gau-2108116.inp" -scrdir="/tmp/slurm/4868339/"
 Entering Link 1 = /arc/software/Gaussian/g16.c01/l1.exe PID=   2108129.
  
 Copyright (c) 1988-2019, Gaussian, Inc.  All Rights Reserved.
  
 This is part of the Gaussian(R) 16 program.  It is based on
 the Gaussian(R) 09 system (copyright 2009, Gaussian, Inc.),
 the Gaussian(R) 03 system (copyright 2003, Gaussian, Inc.),
 the Gaussian(R) 98 system (copyright 1998, Gaussian, Inc.),
 the Gaussian(R) 94 system (copyright 1995, Gaussian, Inc.),
 the Gaussian 92(TM) system (copyright 1992, Gaussian, Inc.),
 the Gaussian 90(TM) system (copyright 1990, Gaussian, Inc.),
 the Gaussian 88(TM) system (copyright 1988, Gaussian, Inc.),
 the Gaussian 86(TM) system (copyright 1986, Carnegie Mellon
 University), and the Gaussian 82(TM) system (copyright 1983,
 Carnegie Mellon University). Gaussian is a federally registered
 trademark of Gaussian, Inc.
  
 This software contains proprietary and confidential information,
 including trade secrets, belonging to Gaussian, Inc.
  
 This software is provided under written license and may be
 used, copied, transmitted, or stored only in accord with that
 written license.
  
 The following legend is applicable only to US Government
 contracts under FAR:
  
                    RESTRICTED RIGHTS LEGEND
  
 Use, reproduction and disclosure by the US Government is
 subject to restrictions as set forth in subparagraphs (a)
 and (c) of the Commercial Computer Software - Restricted
 Rights clause in FAR 52.227-19.
  
 Gaussian, Inc.
 340 Quinnipiac St., Bldg. 40, Wallingford CT 06492
  
  
 ---------------------------------------------------------------
 Warning -- This program may not be used in any manner that
 competes with the business of Gaussian, Inc. or will provide
 assistance to any competitor of Gaussian, Inc.  The licensee
 of this program is prohibited from giving any competitor of
 Gaussian, Inc. access to this program.  By using this program,
 the user acknowledges that Gaussian, Inc. is engaged in the
 business of creating and licensing software in the field of
 computational chemistry and represents and warrants to the
 licensee that it is not a competitor of Gaussian, Inc. and that
 it will not use this program in any manner prohibited above.
 ---------------------------------------------------------------
  

 Cite this work as:
 Gaussian 16, Revision C.01,
 M. J. Frisch, G. W. Trucks, H. B. Schlegel, G. E. Scuseria, 
 M. A. Robb, J. R. Cheeseman, G. Scalmani, V. Barone, 
 G. A. Petersson, H. Nakatsuji, X. Li, M. Caricato, A. V. Marenich, 
 J. Bloino, B. G. Janesko, R. Gomperts, B. Mennucci, H. P. Hratchian, 
 J. V. Ortiz, A. F. Izmaylov, J. L. Sonnenberg, D. Williams-Young, 
 F. Ding, F. Lipparini, F. Egidi, J. Goings, B. Peng, A. Petrone, 
 T. Henderson, D. Ranasinghe, V. G. Zakrzewski, J. Gao, N. Rega, 
 G. Zheng, W. Liang, M. Hada, M. Ehara, K. Toyota, R. Fukuda, 
 J. Hasegawa, M. Ishida, T. Nakajima, Y. Honda, O. Kitao, H. Nakai, 
 T. Vreven, K. Throssell, J. A. Montgomery, Jr., J. E. Peralta, 
 F. Ogliaro, M. J. Bearpark, J. J. Heyd, E. N. Brothers, K. N. Kudin, 
 V. N. Staroverov, T. A. Keith, R. Kobayashi, J. Normand, 
 K. Raghavachari, A. P. Rendell, J. C. Burant, S. S. Iyengar, 
 J. Tomasi, M. Cossi, J. M. Millam, M. Klene, C. Adamo, R. Cammi, 
 J. W. Ochterski, R. L. Martin, K. Morokuma, O. Farkas, 
 J. B. Foresman, and D. J. Fox, Gaussian, Inc., Wallingford CT, 2019.
 
 ******************************************
 Gaussian 16:  ES64L-G16RevC.01  3-Jul-2019
                 9-Apr-2025 
 ******************************************
 %nprocs=16
 Will use up to   16 processors via shared memory.
 %mem=30GB
 %chk=Grambow2020_wb97xd3_008303_forward_mol1.chk
 ----------------------------------------------------------------------
 #t hf aug-cc-pvdz symm=none int=(grid=ultrafine) guess=(read,tcheck) s
 table=(opt,rrhf)
 ----------------------------------------------------------------------
 -----
 title
 -----
 Symbolic Z-matrix:
 Charge =  0 Multiplicity = 1
 C                     2.08617   0.73501  -0.34284 
 O                     1.37538  -1.20139   0.03262 
 C                     0.16378  -0.80852   0.06759 
 C                    -1.08566  -1.36456   0.26262 
 N                    -1.98026  -0.30383   0.16023 
 C                    -1.29748   0.81878  -0.0819 
 N                    -0.00819   0.53385  -0.14032 
 H                     1.79357   1.7536   -0.54077 
 H                     2.51127   0.213    -1.18549 
 H                     2.57802   0.57625   0.60373 
 H                    -1.40489  -2.372     0.45576 
 H                    -2.97782  -0.36733   0.25135 
 H                    -1.75387   1.78715  -0.20448 
 
                    Distance matrix (angstroms):
                    1          2          3          4          5
     1  C    0.000000
     2  O    2.096625   0.000000
     3  C    2.499301   1.274185   0.000000
     4  C    3.851661   2.477144   1.381422   0.000000
     5  N    4.227061   3.475941   2.204578   1.391381   0.000000
     6  C    3.394732   3.352370   2.192194   2.220482   1.336056
     7  N    2.113722   2.226039   1.369218   2.219751   2.163578
     8  H    1.078109   3.039018   3.096895   4.319531   4.355014
     9  H    1.078542   2.185075   2.850337   4.186127   4.717186
    10  H    1.078478   2.220934   2.834364   4.160013   4.663595
    11  H    4.741174   3.046183   2.248525   1.074309   2.166966
    12  H    5.216534   4.437775   3.177745   2.138893   1.003733
    13  H    3.983977   4.333569   3.238657   3.255457   2.134585
                    6          7          8          9         10
     6  C    0.000000
     7  N    1.321691   0.000000
     8  H    3.261757   2.212347   0.000000
     9  H    4.011417   2.746452   1.817739   0.000000
    10  H    3.943152   2.691451   1.819724   1.826937   0.000000
    11  H    3.237545   3.278730   5.314487   4.971140   4.957585
    12  H    2.083618   3.127980   5.281288   5.703633   5.646410
    13  H    1.077528   2.149948   3.563504   4.650994   4.569989
                   11         12         13
    11  H    0.000000
    12  H    2.556289   0.000000
    13  H    4.225670   2.519455   0.000000
 Symmetry turned off by external request.
 Rotational constants (GHZ):           6.0359784           2.4530011           1.7646556
   215 basis functions,   367 primitive gaussians,   229 cartesian basis functions
    26 alpha electrons       26 beta electrons
       nuclear repulsion energy       296.6692237952 Hartrees.
 NAtoms=   13 NActive=   13 NUniq=   13 SFac= 1.00D+00 NAtFMM=   60 NAOKFM=F Big=F
 ExpMin= 2.97D-02 ExpMax= 1.17D+04 ExpMxC= 4.01D+02 IAcc=3 IRadAn=         5 AccDes= 0.00D+00
 Harris functional with IExCor=  205 and IRadAn=       5 diagonalized for initial guess.
 HarFok:  IExCor=  205 AccDes= 0.00D+00 IRadAn=         5 IDoV= 1 UseB2=F ITyADJ=14
 ICtDFT=  3500011 ScaDFX=  1.000000  1.000000  1.000000  1.000000
 FoFCou: FMM=F IPFlag=           0 FMFlag=      100000 FMFlg1=           0
         NFxFlg=           0 DoJE=T BraDBF=F KetDBF=T FulRan=T
         wScrn=  0.000000 ICntrl=       500 IOpCl=  0 I1Cent=   200000004 NGrid=           0
         NMat0=    1 NMatS0=      1 NMatT0=    0 NMatD0=    1 NMtDS0=    0 NMtDT0=    0
 Symmetry not used in FoFCou.
 SCF Done:  E(RHF) =  -338.611005144     A.U. after   16 cycles
            NFock= 16  Conv=0.54D-08     -V/T= 2.0010

 **********************************************************************

            Population analysis using the SCF Density.

 **********************************************************************

 Alpha  occ. eigenvalues --  -20.48442 -15.62550 -15.55846 -11.35128 -11.31424
 Alpha  occ. eigenvalues --  -11.28364 -11.22346  -1.36203  -1.29752  -1.15760
 Alpha  occ. eigenvalues --   -0.98640  -0.96542  -0.83172  -0.76913  -0.73462
 Alpha  occ. eigenvalues --   -0.63985  -0.63516  -0.62781  -0.60037  -0.58962
 Alpha  occ. eigenvalues --   -0.55340  -0.48225  -0.44742  -0.38738  -0.38330
 Alpha  occ. eigenvalues --   -0.26350
 Alpha virt. eigenvalues --    0.02656   0.03129   0.04569   0.06042   0.06210
 Alpha virt. eigenvalues --    0.06703   0.08624   0.09038   0.11008   0.11556
 Alpha virt. eigenvalues --    0.12808   0.13941   0.14037   0.15143   0.15390
 Alpha virt. eigenvalues --    0.15866   0.16984   0.17093   0.17748   0.18225
 Alpha virt. eigenvalues --    0.18544   0.19549   0.22354   0.22731   0.23082
 Alpha virt. eigenvalues --    0.24811   0.26797   0.27758   0.27942   0.28967
 Alpha virt. eigenvalues --    0.30869   0.31742   0.32395   0.33687   0.34391
 Alpha virt. eigenvalues --    0.34699   0.37827   0.38037   0.38896   0.40591
 Alpha virt. eigenvalues --    0.40987   0.41297   0.41472   0.42214   0.44151
 Alpha virt. eigenvalues --    0.45245   0.46404   0.47225   0.47688   0.48767
 Alpha virt. eigenvalues --    0.49691   0.50578   0.54722   0.55024   0.56296
 Alpha virt. eigenvalues --    0.57459   0.58318   0.59301   0.59776   0.60863
 Alpha virt. eigenvalues --    0.61896   0.61954   0.62495   0.64219   0.64891
 Alpha virt. eigenvalues --    0.66703   0.67616   0.68042   0.69246   0.70660
 Alpha virt. eigenvalues --    0.71518   0.72394   0.74072   0.74275   0.75604
 Alpha virt. eigenvalues --    0.76923   0.79314   0.79991   0.82772   0.82894
 Alpha virt. eigenvalues --    0.84020   0.84885   0.87062   0.88124   0.88715
 Alpha virt. eigenvalues --    0.89459   0.90400   0.95938   0.98240   0.99381
 Alpha virt. eigenvalues --    1.01701   1.04641   1.05443   1.05805   1.08355
 Alpha virt. eigenvalues --    1.08961   1.10291   1.10681   1.12414   1.12806
 Alpha virt. eigenvalues --    1.18309   1.20471   1.26814   1.27201   1.28294
 Alpha virt. eigenvalues --    1.28430   1.31676   1.35524   1.36483   1.38544
 Alpha virt. eigenvalues --    1.41931   1.44590   1.49959   1.51229   1.53127
 Alpha virt. eigenvalues --    1.57924   1.58276   1.62009   1.64950   1.65150
 Alpha virt. eigenvalues --    1.66496   1.67615   1.72447   1.74354   1.76048
 Alpha virt. eigenvalues --    1.77634   1.81180   1.83563   1.84167   1.85452
 Alpha virt. eigenvalues --    1.90771   1.91635   1.91968   1.93741   2.00846
 Alpha virt. eigenvalues --    2.01195   2.02575   2.08465   2.11347   2.12558
 Alpha virt. eigenvalues --    2.13195   2.13764   2.16084   2.17360   2.23031
 Alpha virt. eigenvalues --    2.25101   2.28766   2.29691   2.31350   2.34520
 Alpha virt. eigenvalues --    2.35672   2.37474   2.45472   2.47381   2.50085
 Alpha virt. eigenvalues --    2.54874   2.57609   2.59023   2.60382   2.63936
 Alpha virt. eigenvalues --    2.69867   2.71913   2.74758   2.74831   2.78428
 Alpha virt. eigenvalues --    2.82711   2.82979   2.87692   2.92182   2.96386
 Alpha virt. eigenvalues --    2.97252   2.98462   2.99655   3.01589   3.06951
 Alpha virt. eigenvalues --    3.15517   3.18877   3.32746   3.33341   3.39545
 Alpha virt. eigenvalues --    3.45286   3.64191   3.75147   3.86242   3.92988
 Alpha virt. eigenvalues --    3.98621   4.06862   4.18342   4.31701
          Condensed to atoms (all electrons):
 Mulliken charges:
               1
     1  C    0.676530
     2  O   -0.984088
     3  C    0.356784
     4  C    1.038033
     5  N   -0.627535
     6  C    0.730015
     7  N   -0.577497
     8  H   -0.083616
     9  H    0.022192
    10  H    0.021242
    11  H   -0.284610
    12  H   -0.106438
    13  H   -0.181012
 Sum of Mulliken charges =  -0.00000
 Mulliken charges with hydrogens summed into heavy atoms:
               1
     1  C    0.636347
     2  O   -0.984088
     3  C    0.356784
     4  C    0.753423
     5  N   -0.733973
     6  C    0.549003
     7  N   -0.577497
 Electronic spatial extent (au):  <R**2>=            687.5045
 Charge=             -0.0000 electrons
 Dipole moment (field-independent basis, Debye):
    X=             -2.1286    Y=              4.1030    Z=             -0.4904  Tot=              4.6482
 NROrb=    215 NOA=    26 NOB=    26 NVA=   189 NVB=   189

 **** Warning!!: The largest alpha MO coefficient is  0.98177240D+02

    12 initial guesses have been made.
 Iteration     1 Dimension    12 NMult     0 NNew     12
 Iteration     2 Dimension    24 NMult    12 NNew     12
 Iteration     3 Dimension    27 NMult    24 NNew      3
 Iteration     4 Dimension    30 NMult    27 NNew      3
 Iteration     5 Dimension    33 NMult    30 NNew      3
 Iteration     6 Dimension    36 NMult    33 NNew      3
 ***********************************************************************
 Stability analysis using <AA,BB:AA,BB> singles matrix:
 ***********************************************************************
 Ground to excited state transition densities written to RWF  633

 Eigenvectors of the stability matrix:
 
 Excited state symmetry could not be determined.
 Eigenvector   1:      Singlet-?Sym  Eigenvalue= 0.1415643  <S**2>=0.000
      24 -> 33         0.10940
      26 -> 27        -0.19933
      26 -> 28         0.37037
      26 -> 30         0.12752
      26 -> 33         0.39830
      26 -> 35        -0.21401
 The wavefunction is stable under the perturbations considered.
 The wavefunction is already stable.

 **********************************************************************

            Population analysis using the SCF Density.

 **********************************************************************

 Alpha  occ. eigenvalues --  -20.48442 -15.62550 -15.55846 -11.35128 -11.31424
 Alpha  occ. eigenvalues --  -11.28364 -11.22346  -1.36203  -1.29752  -1.15760
 Alpha  occ. eigenvalues --   -0.98640  -0.96542  -0.83172  -0.76913  -0.73462
 Alpha  occ. eigenvalues --   -0.63985  -0.63516  -0.62781  -0.60037  -0.58962
 Alpha  occ. eigenvalues --   -0.55340  -0.48225  -0.44742  -0.38738  -0.38330
 Alpha  occ. eigenvalues --   -0.26350
 Alpha virt. eigenvalues --    0.02656   0.03129   0.04569   0.06042   0.06210
 Alpha virt. eigenvalues --    0.06703   0.08624   0.09038   0.11008   0.11556
 Alpha virt. eigenvalues --    0.12808   0.13941   0.14037   0.15143   0.15390
 Alpha virt. eigenvalues --    0.15866   0.16984   0.17093   0.17748   0.18225
 Alpha virt. eigenvalues --    0.18544   0.19549   0.22354   0.22731   0.23082
 Alpha virt. eigenvalues --    0.24811   0.26797   0.27758   0.27942   0.28967
 Alpha virt. eigenvalues --    0.30869   0.31742   0.32395   0.33687   0.34391
 Alpha virt. eigenvalues --    0.34699   0.37827   0.38037   0.38896   0.40591
 Alpha virt. eigenvalues --    0.40987   0.41297   0.41472   0.42214   0.44151
 Alpha virt. eigenvalues --    0.45245   0.46404   0.47225   0.47688   0.48767
 Alpha virt. eigenvalues --    0.49691   0.50578   0.54722   0.55024   0.56296
 Alpha virt. eigenvalues --    0.57459   0.58318   0.59301   0.59776   0.60863
 Alpha virt. eigenvalues --    0.61896   0.61954   0.62495   0.64219   0.64891
 Alpha virt. eigenvalues --    0.66703   0.67616   0.68042   0.69246   0.70660
 Alpha virt. eigenvalues --    0.71518   0.72394   0.74072   0.74275   0.75604
 Alpha virt. eigenvalues --    0.76923   0.79314   0.79991   0.82772   0.82894
 Alpha virt. eigenvalues --    0.84020   0.84885   0.87062   0.88124   0.88715
 Alpha virt. eigenvalues --    0.89459   0.90400   0.95938   0.98240   0.99381
 Alpha virt. eigenvalues --    1.01701   1.04641   1.05443   1.05805   1.08355
 Alpha virt. eigenvalues --    1.08961   1.10291   1.10681   1.12414   1.12806
 Alpha virt. eigenvalues --    1.18309   1.20471   1.26814   1.27201   1.28294
 Alpha virt. eigenvalues --    1.28430   1.31676   1.35524   1.36483   1.38544
 Alpha virt. eigenvalues --    1.41931   1.44590   1.49959   1.51229   1.53127
 Alpha virt. eigenvalues --    1.57924   1.58276   1.62009   1.64950   1.65150
 Alpha virt. eigenvalues --    1.66496   1.67615   1.72447   1.74354   1.76048
 Alpha virt. eigenvalues --    1.77634   1.81180   1.83563   1.84167   1.85452
 Alpha virt. eigenvalues --    1.90771   1.91635   1.91968   1.93741   2.00846
 Alpha virt. eigenvalues --    2.01195   2.02575   2.08465   2.11347   2.12558
 Alpha virt. eigenvalues --    2.13195   2.13764   2.16084   2.17360   2.23031
 Alpha virt. eigenvalues --    2.25101   2.28766   2.29691   2.31350   2.34520
 Alpha virt. eigenvalues --    2.35672   2.37474   2.45472   2.47381   2.50085
 Alpha virt. eigenvalues --    2.54874   2.57609   2.59023   2.60382   2.63936
 Alpha virt. eigenvalues --    2.69867   2.71913   2.74758   2.74831   2.78428
 Alpha virt. eigenvalues --    2.82711   2.82979   2.87692   2.92182   2.96386
 Alpha virt. eigenvalues --    2.97252   2.98462   2.99655   3.01589   3.06951
 Alpha virt. eigenvalues --    3.15517   3.18877   3.32746   3.33341   3.39545
 Alpha virt. eigenvalues --    3.45286   3.64191   3.75147   3.86242   3.92988
 Alpha virt. eigenvalues --    3.98621   4.06862   4.18342   4.31701
          Condensed to atoms (all electrons):
 Mulliken charges:
               1
     1  C    0.676530
     2  O   -0.984088
     3  C    0.356784
     4  C    1.038033
     5  N   -0.627535
     6  C    0.730015
     7  N   -0.577497
     8  H   -0.083616
     9  H    0.022192
    10  H    0.021242
    11  H   -0.284610
    12  H   -0.106438
    13  H   -0.181012
 Sum of Mulliken charges =  -0.00000
 Mulliken charges with hydrogens summed into heavy atoms:
               1
     1  C    0.636347
     2  O   -0.984088
     3  C    0.356784
     4  C    0.753423
     5  N   -0.733973
     6  C    0.549003
     7  N   -0.577497
 Electronic spatial extent (au):  <R**2>=            687.5045
 Charge=             -0.0000 electrons
 Dipole moment (field-independent basis, Debye):
    X=             -2.1286    Y=              4.1030    Z=             -0.4904  Tot=              4.6482
 Unable to Open any file for archive entry.
 1\1\GINC-SE070\Stability\RHF\Aug-CC-pVDZ\C4H6N2O1\OHZDE\09-Apr-2025\0\
 \#t hf aug-cc-pvdz symm=none int=(grid=ultrafine) guess=(read,tcheck) 
 stable=(opt,rrhf)\\title\\0,1\C,0,2.08616796,0.73500515,-0.34284072\O,
 0,1.37537509,-1.20139433,0.03261575\C,0,0.16377553,-0.80851798,0.06758
 575\C,0,-1.08566439,-1.36456348,0.26262078\N,0,-1.98025525,-0.30382666
 ,0.16022792\C,0,-1.29748339,0.81877837,-0.08189777\N,0,-0.00819187,0.5
 3385299,-0.14032085\H,0,1.7935693,1.75359642,-0.54077413\H,0,2.5112680
 5,0.213003,-1.18548899\H,0,2.57802231,0.57625011,0.60372734\H,0,-1.404
 88659,-2.37200267,0.45576296\H,0,-2.97782397,-0.36733403,0.25135158\H,
 0,-1.75387277,1.78715211,-0.20448263\\Version=ES64L-G16RevC.01\HF=-338
 .6110051\RMSD=5.356e-09\Dipole=-0.837453,1.6142307,-0.1929497\Quadrupo
 le=7.5402662,-3.2328557,-4.3074105,4.9530893,-1.7088493,-0.7895499\PG=
 Unknown\\@
 The archive entry for this job was punched.


 KNOWLEDGE IS CHIMERA - FOR BEYOND IT LIES OTHER KNOWLEDGE,
 AND THE INCOMPLETENESS OF WHAT IS KNOWN RENDERS THE KNOWING FALSE.
     -- THE THOMAS COVENANT CHRONICLES
 Job cpu time:       0 days  0 hours  6 minutes 17.8 seconds.
 Elapsed time:       0 days  0 hours  0 minutes 27.3 seconds.
 File lengths (MBytes):  RWF=    223 Int=      0 D2E=      0 Chk=      7 Scr=      1
 Normal termination of Gaussian 16 at Wed Apr  9 03:52:35 2025.
 Initial command:
 /arc/software/Gaussian/g16.c01/l1.exe "/tmp/slurm/4868339/Gau-2108116.inp" -scrdir="/tmp/slurm/4868339/"
 Entering Link 1 = /arc/software/Gaussian/g16.c01/l1.exe PID=   2108507.
  
 Copyright (c) 1988-2019, Gaussian, Inc.  All Rights Reserved.
  
 This is part of the Gaussian(R) 16 program.  It is based on
 the Gaussian(R) 09 system (copyright 2009, Gaussian, Inc.),
 the Gaussian(R) 03 system (copyright 2003, Gaussian, Inc.),
 the Gaussian(R) 98 system (copyright 1998, Gaussian, Inc.),
 the Gaussian(R) 94 system (copyright 1995, Gaussian, Inc.),
 the Gaussian 92(TM) system (copyright 1992, Gaussian, Inc.),
 the Gaussian 90(TM) system (copyright 1990, Gaussian, Inc.),
 the Gaussian 88(TM) system (copyright 1988, Gaussian, Inc.),
 the Gaussian 86(TM) system (copyright 1986, Carnegie Mellon
 University), and the Gaussian 82(TM) system (copyright 1983,
 Carnegie Mellon University). Gaussian is a federally registered
 trademark of Gaussian, Inc.
  
 This software contains proprietary and confidential information,
 including trade secrets, belonging to Gaussian, Inc.
  
 This software is provided under written license and may be
 used, copied, transmitted, or stored only in accord with that
 written license.
  
 The following legend is applicable only to US Government
 contracts under FAR:
  
                    RESTRICTED RIGHTS LEGEND
  
 Use, reproduction and disclosure by the US Government is
 subject to restrictions as set forth in subparagraphs (a)
 and (c) of the Commercial Computer Software - Restricted
 Rights clause in FAR 52.227-19.
  
 Gaussian, Inc.
 340 Quinnipiac St., Bldg. 40, Wallingford CT 06492
  
  
 ---------------------------------------------------------------
 Warning -- This program may not be used in any manner that
 competes with the business of Gaussian, Inc. or will provide
 assistance to any competitor of Gaussian, Inc.  The licensee
 of this program is prohibited from giving any competitor of
 Gaussian, Inc. access to this program.  By using this program,
 the user acknowledges that Gaussian, Inc. is engaged in the
 business of creating and licensing software in the field of
 computational chemistry and represents and warrants to the
 licensee that it is not a competitor of Gaussian, Inc. and that
 it will not use this program in any manner prohibited above.
 ---------------------------------------------------------------
  

 Cite this work as:
 Gaussian 16, Revision C.01,
 M. J. Frisch, G. W. Trucks, H. B. Schlegel, G. E. Scuseria, 
 M. A. Robb, J. R. Cheeseman, G. Scalmani, V. Barone, 
 G. A. Petersson, H. Nakatsuji, X. Li, M. Caricato, A. V. Marenich, 
 J. Bloino, B. G. Janesko, R. Gomperts, B. Mennucci, H. P. Hratchian, 
 J. V. Ortiz, A. F. Izmaylov, J. L. Sonnenberg, D. Williams-Young, 
 F. Ding, F. Lipparini, F. Egidi, J. Goings, B. Peng, A. Petrone, 
 T. Henderson, D. Ranasinghe, V. G. Zakrzewski, J. Gao, N. Rega, 
 G. Zheng, W. Liang, M. Hada, M. Ehara, K. Toyota, R. Fukuda, 
 J. Hasegawa, M. Ishida, T. Nakajima, Y. Honda, O. Kitao, H. Nakai, 
 T. Vreven, K. Throssell, J. A. Montgomery, Jr., J. E. Peralta, 
 F. Ogliaro, M. J. Bearpark, J. J. Heyd, E. N. Brothers, K. N. Kudin, 
 V. N. Staroverov, T. A. Keith, R. Kobayashi, J. Normand, 
 K. Raghavachari, A. P. Rendell, J. C. Burant, S. S. Iyengar, 
 J. Tomasi, M. Cossi, J. M. Millam, M. Klene, C. Adamo, R. Cammi, 
 J. W. Ochterski, R. L. Martin, K. Morokuma, O. Farkas, 
 J. B. Foresman, and D. J. Fox, Gaussian, Inc., Wallingford CT, 2019.
 
 ******************************************
 Gaussian 16:  ES64L-G16RevC.01  3-Jul-2019
                 9-Apr-2025 
 ******************************************
 %nprocs=16
 Will use up to   16 processors via shared memory.
 %mem=30GB
 %chk=Grambow2020_wb97xd3_008303_forward_mol1.chk
 ----------------------------------------------------------------------
 #t hf aug-cc-pvdz iop(5/13=1,5/36=2,99/5=2) pseudo=read geom=check gue
 ss=(read,tcheck) scf=(maxcycle=1)
 ----------------------------------------------------------------------
 -----
 title
 -----
 Structure from the checkpoint file:  "Grambow2020_wb97xd3_008303_forward_mol1.chk"
 Charge =  0 Multiplicity = 1
 Z-Matrix found in chk file.
 C,0,2.08616796,0.73500515,-0.34284072
 O,0,1.37537509,-1.20139433,0.03261575
 C,0,0.16377553,-0.80851798,0.06758575
 C,0,-1.08566439,-1.36456348,0.26262078
 N,0,-1.98025525,-0.30382666,0.16022792
 C,0,-1.29748339,0.81877837,-0.08189777
 N,0,-0.00819187,0.53385299,-0.14032085
 H,0,1.7935693,1.75359642,-0.54077413
 H,0,2.51126805,0.213003,-1.18548899
 H,0,2.57802231,0.57625011,0.60372734
 H,0,-1.40488659,-2.37200267,0.45576296
 H,0,-2.97782397,-0.36733403,0.25135158
 H,0,-1.75387277,1.78715211,-0.20448263
 Recover connectivity data from disk.
                    Distance matrix (angstroms):
                    1          2          3          4          5
     1  C    0.000000
     2  O    2.096625   0.000000
     3  C    2.499301   1.274185   0.000000
     4  C    3.851661   2.477144   1.381422   0.000000
     5  N    4.227061   3.475941   2.204578   1.391381   0.000000
     6  C    3.394732   3.352370   2.192194   2.220482   1.336056
     7  N    2.113722   2.226039   1.369218   2.219751   2.163578
     8  H    1.078109   3.039018   3.096895   4.319531   4.355014
     9  H    1.078542   2.185075   2.850337   4.186127   4.717186
    10  H    1.078478   2.220934   2.834364   4.160013   4.663595
    11  H    4.741174   3.046183   2.248525   1.074309   2.166966
    12  H    5.216534   4.437775   3.177745   2.138893   1.003733
    13  H    3.983977   4.333569   3.238657   3.255457   2.134585
                    6          7          8          9         10
     6  C    0.000000
     7  N    1.321691   0.000000
     8  H    3.261757   2.212347   0.000000
     9  H    4.011417   2.746452   1.817739   0.000000
    10  H    3.943152   2.691451   1.819724   1.826937   0.000000
    11  H    3.237545   3.278730   5.314487   4.971140   4.957585
    12  H    2.083618   3.127980   5.281288   5.703633   5.646410
    13  H    1.077528   2.149948   3.563504   4.650994   4.569989
                   11         12         13
    11  H    0.000000
    12  H    2.556289   0.000000
    13  H    4.225670   2.519455   0.000000
 Framework group  C1[X(C4H6N2O)]
 Deg. of freedom    33
                         Standard orientation:                         
 ---------------------------------------------------------------------
 Center     Atomic      Atomic             Coordinates (Angstroms)
 Number     Number       Type             X           Y           Z
 ---------------------------------------------------------------------
      1          6           0       -2.260998   -0.673262    0.000886
      2          8           0       -1.289840    1.184878   -0.001411
      3          6           0       -0.136521    0.643212   -0.000572
      4          6           0        1.183631    1.050056    0.000558
      5          7           0        1.930233   -0.124051    0.000225
      6          6           0        1.097379   -1.168751   -0.000748
      7          7           0       -0.147934   -0.725959   -0.000881
      8          1           0       -2.113569   -1.739939   -0.051883
      9          1           0       -2.703139   -0.232155   -0.878425
     10          1           0       -2.632796   -0.309217    0.945530
     11          1           0        1.638711    2.023216    0.001269
     12          1           0        2.932315   -0.181596   -0.000622
     13          1           0        1.420158   -2.196797   -0.000730
 ---------------------------------------------------------------------
 Rotational constants (GHZ):           6.0359784           2.4530011           1.7646556
 ======================================================================================================
                                       Pseudopotential Parameters
 ======================================================================================================
  Center     Atomic      Valence      Angular      Power
  Number     Number     Electrons     Momentum     of R      Exponent        Coefficient   SO-Coeffient
 ======================================================================================================
    1          6            6
                                      G and up 
                                                     0        0.0000010       -0.00007288    0.00000000
                                                     2        0.1200000        0.10466671    0.00000000
                                                     2        0.1400000       -0.65716157    0.00000000
                                                     2        0.1600000        1.18890794    0.00000000
                                                     2        0.2000000       -1.25772850    0.00000000
                                                     2        0.2600000        1.01188378    0.00000000
                                                     2        0.4000000       -1.09380874    0.00000000
                                                     2        0.5000000        0.96944888    0.00000000
                                                     2        1.0000000       -0.79256938    0.00000000
                                                     2        3.0000000        1.06443276    0.00000000
                                      S - G
                                                     0        0.0000010       -0.00635295    0.00000000
                                                     2        0.1200000        0.16918955    0.00000000
                                                     2        0.1600000       -0.38862576    0.00000000
                                                     2        0.2800000        0.25638263    0.00000000
                                                     2        0.5000000        0.29628419    0.00000000
                                                     2        0.9000000       -0.28791512    0.00000000
                                      P - G
                                                     0        0.0000010       -0.04756931    0.00000000
                                                     2        0.1200000        0.28430375    0.00000000
                                                     2        0.1600000       -0.69640032    0.00000000
                                                     2        0.2600000        1.13005668    0.00000000
                                                     2        0.4000000       -1.31433324    0.00000000
                                                     2        0.7000000        0.91526469    0.00000000
                                      D - G
                                                     0        0.0000010       -0.11496411    0.00000000
                                                     2        0.1200000        0.16620776    0.00000000
                                                     2        0.1800000       -0.30959819    0.00000000
                                                     2        0.3000000        0.16621458    0.00000000
                                                     2        0.6000000        0.27350556    0.00000000
                                      F - G
                                                     0        0.0000010        0.12037550    0.00000000
                                                     2        0.1200000       -0.48737077    0.00000000
                                                     2        0.1400000        0.58315350    0.00000000
                                                     2        0.3000000        0.00005188    0.00000000
                                                     2        0.5000000       -1.16063549    0.00000000
                                                     2        0.8000000        2.09053308    0.00000000
    2          8            8
                                      G and up 
                                                     0        0.0000010        0.00049668    0.00000000
                                                     2        0.1200000       -0.01803391    0.00000000
                                                     2        0.1400000        0.04014195    0.00000000
                                                     2        0.2000000       -0.02692147    0.00000000
                                                     2        0.2800000       -0.04241843    0.00000000
                                                     2        0.4000000        0.15412145    0.00000000
                                                     2        0.7000000       -0.40587006    0.00000000
                                                     2        1.1000000        1.75666647    0.00000000
                                      S - G
                                                     0        0.0000010       -0.01088195    0.00000000
                                                     2        0.1200000        0.09867335    0.00000000
                                                     2        0.2400000       -0.08484177    0.00000000
                                                     2        0.6000000       -1.39011554    0.00000000
                                                     2        2.5000000        1.36225910    0.00000000
                                      P - G
                                                     0        0.0000010        0.05874028    0.00000000
                                                     2        0.1200000       -0.11700340    0.00000000
                                                     2        0.1600000        0.08847775    0.00000000
                                                     2        0.3000000        0.04709907    0.00000000
                                                     2        1.2000000       -1.80388338    0.00000000
                                      D - G
                                                     0        0.0000010       -0.00541262    0.00000000
                                                     2        0.1200000       -0.26547906    0.00000000
                                                     2        0.1600000        1.04289661    0.00000000
                                                     2        0.2400000       -1.92800913    0.00000000
                                                     2        0.4000000        2.26691633    0.00000000
                                                     2        0.7000000       -1.97391482    0.00000000
                                      F - G
                                                     0        0.0000010       -0.02604870    0.00000000
                                                     2        0.1200000        0.37362552    0.00000000
                                                     2        0.1600000       -1.43526367    0.00000000
                                                     2        0.2200000        1.76778079    0.00000000
                                                     2        0.5000000       -1.90846303    0.00000000
    3          6            6
                                      G and up 
                                                     0        0.0000010       -0.00007288    0.00000000
                                                     2        0.1200000        0.10466671    0.00000000
                                                     2        0.1400000       -0.65716157    0.00000000
                                                     2        0.1600000        1.18890794    0.00000000
                                                     2        0.2000000       -1.25772850    0.00000000
                                                     2        0.2600000        1.01188378    0.00000000
                                                     2        0.4000000       -1.09380874    0.00000000
                                                     2        0.5000000        0.96944888    0.00000000
                                                     2        1.0000000       -0.79256938    0.00000000
                                                     2        3.0000000        1.06443276    0.00000000
                                      S - G
                                                     0        0.0000010       -0.00635295    0.00000000
                                                     2        0.1200000        0.16918955    0.00000000
                                                     2        0.1600000       -0.38862576    0.00000000
                                                     2        0.2800000        0.25638263    0.00000000
                                                     2        0.5000000        0.29628419    0.00000000
                                                     2        0.9000000       -0.28791512    0.00000000
                                      P - G
                                                     0        0.0000010       -0.04756931    0.00000000
                                                     2        0.1200000        0.28430375    0.00000000
                                                     2        0.1600000       -0.69640032    0.00000000
                                                     2        0.2600000        1.13005668    0.00000000
                                                     2        0.4000000       -1.31433324    0.00000000
                                                     2        0.7000000        0.91526469    0.00000000
                                      D - G
                                                     0        0.0000010       -0.11496411    0.00000000
                                                     2        0.1200000        0.16620776    0.00000000
                                                     2        0.1800000       -0.30959819    0.00000000
                                                     2        0.3000000        0.16621458    0.00000000
                                                     2        0.6000000        0.27350556    0.00000000
                                      F - G
                                                     0        0.0000010        0.12037550    0.00000000
                                                     2        0.1200000       -0.48737077    0.00000000
                                                     2        0.1400000        0.58315350    0.00000000
                                                     2        0.3000000        0.00005188    0.00000000
                                                     2        0.5000000       -1.16063549    0.00000000
                                                     2        0.8000000        2.09053308    0.00000000
    4          6            6
                                      G and up 
                                                     0        0.0000010       -0.00007288    0.00000000
                                                     2        0.1200000        0.10466671    0.00000000
                                                     2        0.1400000       -0.65716157    0.00000000
                                                     2        0.1600000        1.18890794    0.00000000
                                                     2        0.2000000       -1.25772850    0.00000000
                                                     2        0.2600000        1.01188378    0.00000000
                                                     2        0.4000000       -1.09380874    0.00000000
                                                     2        0.5000000        0.96944888    0.00000000
                                                     2        1.0000000       -0.79256938    0.00000000
                                                     2        3.0000000        1.06443276    0.00000000
                                      S - G
                                                     0        0.0000010       -0.00635295    0.00000000
                                                     2        0.1200000        0.16918955    0.00000000
                                                     2        0.1600000       -0.38862576    0.00000000
                                                     2        0.2800000        0.25638263    0.00000000
                                                     2        0.5000000        0.29628419    0.00000000
                                                     2        0.9000000       -0.28791512    0.00000000
                                      P - G
                                                     0        0.0000010       -0.04756931    0.00000000
                                                     2        0.1200000        0.28430375    0.00000000
                                                     2        0.1600000       -0.69640032    0.00000000
                                                     2        0.2600000        1.13005668    0.00000000
                                                     2        0.4000000       -1.31433324    0.00000000
                                                     2        0.7000000        0.91526469    0.00000000
                                      D - G
                                                     0        0.0000010       -0.11496411    0.00000000
                                                     2        0.1200000        0.16620776    0.00000000
                                                     2        0.1800000       -0.30959819    0.00000000
                                                     2        0.3000000        0.16621458    0.00000000
                                                     2        0.6000000        0.27350556    0.00000000
                                      F - G
                                                     0        0.0000010        0.12037550    0.00000000
                                                     2        0.1200000       -0.48737077    0.00000000
                                                     2        0.1400000        0.58315350    0.00000000
                                                     2        0.3000000        0.00005188    0.00000000
                                                     2        0.5000000       -1.16063549    0.00000000
                                                     2        0.8000000        2.09053308    0.00000000
    5          7            7
                                      G and up 
                                                     0        0.0000010       -0.00039818    0.00000000
                                                     2        0.1200000       -0.37616123    0.00000000
                                                     2        0.1400000        2.13837358    0.00000000
                                                     2        0.1600000       -3.36562035    0.00000000
                                                     2        0.2000000        2.53463289    0.00000000
                                                     2        0.3000000       -1.98118833    0.00000000
                                                     2        0.5000000        4.06642919    0.00000000
                                                     2        0.7000000       -6.15327959    0.00000000
                                                     2        1.2000000       10.22492851    0.00000000
                                                     2        2.0000000      -14.94707511    0.00000000
                                      S - G
                                                     0        0.0000010        0.02721443    0.00000000
                                                     2        0.1200000       -0.60186009    0.00000000
                                                     2        0.1600000        1.10088134    0.00000000
                                                     2        0.2600000       -0.59857981    0.00000000
                                                     2        0.6000000        0.21288222    0.00000000
                                                     2        3.0000000        5.09059205    0.00000000
                                      P - G
                                                     0        0.0000010        0.40558062    0.00000000
                                                     2        0.1200000        0.81809854    0.00000000
                                                     2        0.1600000       -2.44952728    0.00000000
                                                     2        0.2800000        4.16638749    0.00000000
                                                     2        0.5000000       -6.02944147    0.00000000
                                                     2        1.1000000        5.78262914    0.00000000
                                      D - G
                                                     0        0.0000010       -0.62770267    0.00000000
                                                     2        0.1600000        0.91438653    0.00000000
                                                     2        0.2600000       -2.00568466    0.00000000
                                                     2        0.5000000        3.30798839    0.00000000
                                                     2        1.1000000       -3.91526108    0.00000000
                                      F - G
                                                     0        0.0000010        0.29726344    0.00000000
                                                     2        0.1200000       -0.41591527    0.00000000
                                                     2        0.1600000        0.51444439    0.00000000
                                                     2        0.4000000       -0.69401726    0.00000000
                                                     2        0.7000000        0.51478123    0.00000000
    6          6            6
                                      G and up 
                                                     0        0.0000010       -0.00007288    0.00000000
                                                     2        0.1200000        0.10466671    0.00000000
                                                     2        0.1400000       -0.65716157    0.00000000
                                                     2        0.1600000        1.18890794    0.00000000
                                                     2        0.2000000       -1.25772850    0.00000000
                                                     2        0.2600000        1.01188378    0.00000000
                                                     2        0.4000000       -1.09380874    0.00000000
                                                     2        0.5000000        0.96944888    0.00000000
                                                     2        1.0000000       -0.79256938    0.00000000
                                                     2        3.0000000        1.06443276    0.00000000
                                      S - G
                                                     0        0.0000010       -0.00635295    0.00000000
                                                     2        0.1200000        0.16918955    0.00000000
                                                     2        0.1600000       -0.38862576    0.00000000
                                                     2        0.2800000        0.25638263    0.00000000
                                                     2        0.5000000        0.29628419    0.00000000
                                                     2        0.9000000       -0.28791512    0.00000000
                                      P - G
                                                     0        0.0000010       -0.04756931    0.00000000
                                                     2        0.1200000        0.28430375    0.00000000
                                                     2        0.1600000       -0.69640032    0.00000000
                                                     2        0.2600000        1.13005668    0.00000000
                                                     2        0.4000000       -1.31433324    0.00000000
                                                     2        0.7000000        0.91526469    0.00000000
                                      D - G
                                                     0        0.0000010       -0.11496411    0.00000000
                                                     2        0.1200000        0.16620776    0.00000000
                                                     2        0.1800000       -0.30959819    0.00000000
                                                     2        0.3000000        0.16621458    0.00000000
                                                     2        0.6000000        0.27350556    0.00000000
                                      F - G
                                                     0        0.0000010        0.12037550    0.00000000
                                                     2        0.1200000       -0.48737077    0.00000000
                                                     2        0.1400000        0.58315350    0.00000000
                                                     2        0.3000000        0.00005188    0.00000000
                                                     2        0.5000000       -1.16063549    0.00000000
                                                     2        0.8000000        2.09053308    0.00000000
    7          7            7
                                      G and up 
                                                     0        0.0000010       -0.00039818    0.00000000
                                                     2        0.1200000       -0.37616123    0.00000000
                                                     2        0.1400000        2.13837358    0.00000000
                                                     2        0.1600000       -3.36562035    0.00000000
                                                     2        0.2000000        2.53463289    0.00000000
                                                     2        0.3000000       -1.98118833    0.00000000
                                                     2        0.5000000        4.06642919    0.00000000
                                                     2        0.7000000       -6.15327959    0.00000000
                                                     2        1.2000000       10.22492851    0.00000000
                                                     2        2.0000000      -14.94707511    0.00000000
                                      S - G
                                                     0        0.0000010        0.02721443    0.00000000
                                                     2        0.1200000       -0.60186009    0.00000000
                                                     2        0.1600000        1.10088134    0.00000000
                                                     2        0.2600000       -0.59857981    0.00000000
                                                     2        0.6000000        0.21288222    0.00000000
                                                     2        3.0000000        5.09059205    0.00000000
                                      P - G
                                                     0        0.0000010        0.40558062    0.00000000
                                                     2        0.1200000        0.81809854    0.00000000
                                                     2        0.1600000       -2.44952728    0.00000000
                                                     2        0.2800000        4.16638749    0.00000000
                                                     2        0.5000000       -6.02944147    0.00000000
                                                     2        1.1000000        5.78262914    0.00000000
                                      D - G
                                                     0        0.0000010       -0.62770267    0.00000000
                                                     2        0.1600000        0.91438653    0.00000000
                                                     2        0.2600000       -2.00568466    0.00000000
                                                     2        0.5000000        3.30798839    0.00000000
                                                     2        1.1000000       -3.91526108    0.00000000
                                      F - G
                                                     0        0.0000010        0.29726344    0.00000000
                                                     2        0.1200000       -0.41591527    0.00000000
                                                     2        0.1600000        0.51444439    0.00000000
                                                     2        0.4000000       -0.69401726    0.00000000
                                                     2        0.7000000        0.51478123    0.00000000
    8          1            1
                                      F and up 
                                                     0        0.0000010       -0.00007675    0.00000000
                                                     2        0.1200000        0.05352699    0.00000000
                                                     2        0.1400000       -0.25123645    0.00000000
                                                     2        0.1600000        0.32188106    0.00000000
                                                     2        0.2200000       -0.25206857    0.00000000
                                                     2        0.3000000        0.19290477    0.00000000
                                                     2        0.5000000       -0.10129770    0.00000000
                                                     2        0.9000000        0.00314995    0.00000000
                                                     2        1.5000000        0.18401192    0.00000000
                                      S - F
                                                     0        0.0000010        0.08065976    0.00000000
                                                     2        0.1200000       -0.09231673    0.00000000
                                                     2        0.1600000       -0.03278082    0.00000000
                                                     2        0.2800000        0.38423402    0.00000000
                                                     2        0.6000000       -1.09357590    0.00000000
                                                     2        1.1000000        1.53099489    0.00000000
                                                     2        3.0000000       -2.63300202    0.00000000
                                      P - F
                                                     0        0.0000010       -0.11638665    0.00000000
                                                     2        0.1200000        0.35468655    0.00000000
                                                     2        0.1600000       -0.59160923    0.00000000
                                                     2        0.3000000        0.49390547    0.00000000
                                                     2        0.6000000       -0.37949835    0.00000000
                                                     2        1.6000000        0.89304688    0.00000000
                                      D - F
                                                     0        0.0000010        0.05443663    0.00000000
                                                     2        0.1200000       -0.29679479    0.00000000
                                                     2        0.1400000        0.36849872    0.00000000
                                                     2        0.2400000        0.02793449    0.00000000
                                                     2        0.4000000       -0.46312857    0.00000000
                                                     2        0.7000000        0.97587598    0.00000000
                                                     2        1.5000000       -2.43431102    0.00000000
    9          1            1
                                      F and up 
                                                     0        0.0000010       -0.00007675    0.00000000
                                                     2        0.1200000        0.05352699    0.00000000
                                                     2        0.1400000       -0.25123645    0.00000000
                                                     2        0.1600000        0.32188106    0.00000000
                                                     2        0.2200000       -0.25206857    0.00000000
                                                     2        0.3000000        0.19290477    0.00000000
                                                     2        0.5000000       -0.10129770    0.00000000
                                                     2        0.9000000        0.00314995    0.00000000
                                                     2        1.5000000        0.18401192    0.00000000
                                      S - F
                                                     0        0.0000010        0.08065976    0.00000000
                                                     2        0.1200000       -0.09231673    0.00000000
                                                     2        0.1600000       -0.03278082    0.00000000
                                                     2        0.2800000        0.38423402    0.00000000
                                                     2        0.6000000       -1.09357590    0.00000000
                                                     2        1.1000000        1.53099489    0.00000000
                                                     2        3.0000000       -2.63300202    0.00000000
                                      P - F
                                                     0        0.0000010       -0.11638665    0.00000000
                                                     2        0.1200000        0.35468655    0.00000000
                                                     2        0.1600000       -0.59160923    0.00000000
                                                     2        0.3000000        0.49390547    0.00000000
                                                     2        0.6000000       -0.37949835    0.00000000
                                                     2        1.6000000        0.89304688    0.00000000
                                      D - F
                                                     0        0.0000010        0.05443663    0.00000000
                                                     2        0.1200000       -0.29679479    0.00000000
                                                     2        0.1400000        0.36849872    0.00000000
                                                     2        0.2400000        0.02793449    0.00000000
                                                     2        0.4000000       -0.46312857    0.00000000
                                                     2        0.7000000        0.97587598    0.00000000
                                                     2        1.5000000       -2.43431102    0.00000000
   10          1            1
                                      F and up 
                                                     0        0.0000010       -0.00007675    0.00000000
                                                     2        0.1200000        0.05352699    0.00000000
                                                     2        0.1400000       -0.25123645    0.00000000
                                                     2        0.1600000        0.32188106    0.00000000
                                                     2        0.2200000       -0.25206857    0.00000000
                                                     2        0.3000000        0.19290477    0.00000000
                                                     2        0.5000000       -0.10129770    0.00000000
                                                     2        0.9000000        0.00314995    0.00000000
                                                     2        1.5000000        0.18401192    0.00000000
                                      S - F
                                                     0        0.0000010        0.08065976    0.00000000
                                                     2        0.1200000       -0.09231673    0.00000000
                                                     2        0.1600000       -0.03278082    0.00000000
                                                     2        0.2800000        0.38423402    0.00000000
                                                     2        0.6000000       -1.09357590    0.00000000
                                                     2        1.1000000        1.53099489    0.00000000
                                                     2        3.0000000       -2.63300202    0.00000000
                                      P - F
                                                     0        0.0000010       -0.11638665    0.00000000
                                                     2        0.1200000        0.35468655    0.00000000
                                                     2        0.1600000       -0.59160923    0.00000000
                                                     2        0.3000000        0.49390547    0.00000000
                                                     2        0.6000000       -0.37949835    0.00000000
                                                     2        1.6000000        0.89304688    0.00000000
                                      D - F
                                                     0        0.0000010        0.05443663    0.00000000
                                                     2        0.1200000       -0.29679479    0.00000000
                                                     2        0.1400000        0.36849872    0.00000000
                                                     2        0.2400000        0.02793449    0.00000000
                                                     2        0.4000000       -0.46312857    0.00000000
                                                     2        0.7000000        0.97587598    0.00000000
                                                     2        1.5000000       -2.43431102    0.00000000
   11          1            1
                                      F and up 
                                                     0        0.0000010       -0.00007675    0.00000000
                                                     2        0.1200000        0.05352699    0.00000000
                                                     2        0.1400000       -0.25123645    0.00000000
                                                     2        0.1600000        0.32188106    0.00000000
                                                     2        0.2200000       -0.25206857    0.00000000
                                                     2        0.3000000        0.19290477    0.00000000
                                                     2        0.5000000       -0.10129770    0.00000000
                                                     2        0.9000000        0.00314995    0.00000000
                                                     2        1.5000000        0.18401192    0.00000000
                                      S - F
                                                     0        0.0000010        0.08065976    0.00000000
                                                     2        0.1200000       -0.09231673    0.00000000
                                                     2        0.1600000       -0.03278082    0.00000000
                                                     2        0.2800000        0.38423402    0.00000000
                                                     2        0.6000000       -1.09357590    0.00000000
                                                     2        1.1000000        1.53099489    0.00000000
                                                     2        3.0000000       -2.63300202    0.00000000
                                      P - F
                                                     0        0.0000010       -0.11638665    0.00000000
                                                     2        0.1200000        0.35468655    0.00000000
                                                     2        0.1600000       -0.59160923    0.00000000
                                                     2        0.3000000        0.49390547    0.00000000
                                                     2        0.6000000       -0.37949835    0.00000000
                                                     2        1.6000000        0.89304688    0.00000000
                                      D - F
                                                     0        0.0000010        0.05443663    0.00000000
                                                     2        0.1200000       -0.29679479    0.00000000
                                                     2        0.1400000        0.36849872    0.00000000
                                                     2        0.2400000        0.02793449    0.00000000
                                                     2        0.4000000       -0.46312857    0.00000000
                                                     2        0.7000000        0.97587598    0.00000000
                                                     2        1.5000000       -2.43431102    0.00000000
   12          1            1
                                      F and up 
                                                     0        0.0000010       -0.00007675    0.00000000
                                                     2        0.1200000        0.05352699    0.00000000
                                                     2        0.1400000       -0.25123645    0.00000000
                                                     2        0.1600000        0.32188106    0.00000000
                                                     2        0.2200000       -0.25206857    0.00000000
                                                     2        0.3000000        0.19290477    0.00000000
                                                     2        0.5000000       -0.10129770    0.00000000
                                                     2        0.9000000        0.00314995    0.00000000
                                                     2        1.5000000        0.18401192    0.00000000
                                      S - F
                                                     0        0.0000010        0.08065976    0.00000000
                                                     2        0.1200000       -0.09231673    0.00000000
                                                     2        0.1600000       -0.03278082    0.00000000
                                                     2        0.2800000        0.38423402    0.00000000
                                                     2        0.6000000       -1.09357590    0.00000000
                                                     2        1.1000000        1.53099489    0.00000000
                                                     2        3.0000000       -2.63300202    0.00000000
                                      P - F
                                                     0        0.0000010       -0.11638665    0.00000000
                                                     2        0.1200000        0.35468655    0.00000000
                                                     2        0.1600000       -0.59160923    0.00000000
                                                     2        0.3000000        0.49390547    0.00000000
                                                     2        0.6000000       -0.37949835    0.00000000
                                                     2        1.6000000        0.89304688    0.00000000
                                      D - F
                                                     0        0.0000010        0.05443663    0.00000000
                                                     2        0.1200000       -0.29679479    0.00000000
                                                     2        0.1400000        0.36849872    0.00000000
                                                     2        0.2400000        0.02793449    0.00000000
                                                     2        0.4000000       -0.46312857    0.00000000
                                                     2        0.7000000        0.97587598    0.00000000
                                                     2        1.5000000       -2.43431102    0.00000000
   13          1            1
                                      F and up 
                                                     0        0.0000010       -0.00007675    0.00000000
                                                     2        0.1200000        0.05352699    0.00000000
                                                     2        0.1400000       -0.25123645    0.00000000
                                                     2        0.1600000        0.32188106    0.00000000
                                                     2        0.2200000       -0.25206857    0.00000000
                                                     2        0.3000000        0.19290477    0.00000000
                                                     2        0.5000000       -0.10129770    0.00000000
                                                     2        0.9000000        0.00314995    0.00000000
                                                     2        1.5000000        0.18401192    0.00000000
                                      S - F
                                                     0        0.0000010        0.08065976    0.00000000
                                                     2        0.1200000       -0.09231673    0.00000000
                                                     2        0.1600000       -0.03278082    0.00000000
                                                     2        0.2800000        0.38423402    0.00000000
                                                     2        0.6000000       -1.09357590    0.00000000
                                                     2        1.1000000        1.53099489    0.00000000
                                                     2        3.0000000       -2.63300202    0.00000000
                                      P - F
                                                     0        0.0000010       -0.11638665    0.00000000
                                                     2        0.1200000        0.35468655    0.00000000
                                                     2        0.1600000       -0.59160923    0.00000000
                                                     2        0.3000000        0.49390547    0.00000000
                                                     2        0.6000000       -0.37949835    0.00000000
                                                     2        1.6000000        0.89304688    0.00000000
                                      D - F
                                                     0        0.0000010        0.05443663    0.00000000
                                                     2        0.1200000       -0.29679479    0.00000000
                                                     2        0.1400000        0.36849872    0.00000000
                                                     2        0.2400000        0.02793449    0.00000000
                                                     2        0.4000000       -0.46312857    0.00000000
                                                     2        0.7000000        0.97587598    0.00000000
                                                     2        1.5000000       -2.43431102    0.00000000
 ======================================================================================================
   215 basis functions,   367 primitive gaussians,   229 cartesian basis functions
    26 alpha electrons       26 beta electrons
       nuclear repulsion energy       296.6692237952 Hartrees.
 NAtoms=   13 NActive=   13 NUniq=   13 SFac= 1.00D+00 NAtFMM=   60 NAOKFM=F Big=F
   1 Symmetry operations used in ECPInt.
 ECPInt:  NShTT=    4371 NPrTT=   21039 LenC2=    4367 LenP2D=   16493.
 LDataN:  DoStor=T MaxTD1= 6 Len=  172
 Initial guess from the checkpoint file:  "Grambow2020_wb97xd3_008303_forward_mol1.chk"
 B after Tr=    -0.147675   -0.341685    0.096544
         Rot=   -0.063719    0.045474    0.078779    0.993814 Ang= 187.31 deg.
 >>>>>>>>>> Convergence criterion not met.
 SCF Done:  E(RHF) =  -338.955341981     A.U. after    2 cycles
            NFock=  1  Conv=0.41D-01     -V/T= 2.0011

 **********************************************************************

            Population analysis using the SCF Density.

 **********************************************************************

 Orbital symmetries:
       Occupied  (A) (A) (A) (A) (A) (A) (A) (A) (A) (A) (A) (A)
                 (A) (A) (A) (A) (A) (A) (A) (A) (A) (A) (A) (A)
                 (A) (A)
       Virtual   (A) (A) (A) (A) (A) (A) (A) (A) (A) (A) (A) (A)
                 (A) (A) (A) (A) (A) (A) (A) (A) (A) (A) (A) (A)
                 (A) (A) (A) (A) (A) (A) (A) (A) (A) (A) (A) (A)
                 (A) (A) (A) (A) (A) (A) (A) (A) (A) (A) (A) (A)
                 (A) (A) (A) (A) (A) (A) (A) (A) (A) (A) (A) (A)
                 (A) (A) (A) (A) (A) (A) (A) (A) (A) (A) (A) (A)
                 (A) (A) (A) (A) (A) (A) (A) (A) (A) (A) (A) (A)
                 (A) (A) (A) (A) (A) (A) (A) (A) (A) (A) (A) (A)
                 (A) (A) (A) (A) (A) (A) (A) (A) (A) (A) (A) (A)
                 (A) (A) (A) (A) (A) (A) (A) (A) (A) (A) (A) (A)
                 (A) (A) (A) (A) (A) (A) (A) (A) (A) (A) (A) (A)
                 (A) (A) (A) (A) (A) (A) (A) (A) (A) (A) (A) (A)
                 (A) (A) (A) (A) (A) (A) (A) (A) (A) (A) (A) (A)
                 (A) (A) (A) (A) (A) (A) (A) (A) (A) (A) (A) (A)
                 (A) (A) (A) (A) (A) (A) (A) (A) (A) (A) (A) (A)
                 (A) (A) (A) (A) (A) (A) (A) (A) (A)
 The electronic state is 1-A.
 Alpha  occ. eigenvalues --  -20.46220 -15.55772 -15.48931 -11.35528 -11.31203
 Alpha  occ. eigenvalues --  -11.28119 -11.22330  -1.39891  -1.32858  -1.16805
 Alpha  occ. eigenvalues --   -0.99981  -0.97140  -0.85953  -0.80521  -0.75898
 Alpha  occ. eigenvalues --   -0.65684  -0.64966  -0.64886  -0.62436  -0.60980
 Alpha  occ. eigenvalues --   -0.56011  -0.49613  -0.48458  -0.41965  -0.38335
 Alpha  occ. eigenvalues --   -0.27279
 Alpha virt. eigenvalues --    0.02630   0.03211   0.04254   0.05318   0.06007
 Alpha virt. eigenvalues --    0.06385   0.07982   0.09009   0.10118   0.11352
 Alpha virt. eigenvalues --    0.12397   0.12813   0.13864   0.14818   0.14924
 Alpha virt. eigenvalues --    0.15922   0.16607   0.16673   0.16875   0.18015
 Alpha virt. eigenvalues --    0.18594   0.19165   0.22410   0.22848   0.23278
 Alpha virt. eigenvalues --    0.24829   0.26778   0.26972   0.27609   0.28733
 Alpha virt. eigenvalues --    0.30087   0.31468   0.32355   0.33405   0.33821
 Alpha virt. eigenvalues --    0.34698   0.37248   0.37717   0.38527   0.39486
 Alpha virt. eigenvalues --    0.40567   0.40668   0.41129   0.41836   0.43930
 Alpha virt. eigenvalues --    0.44116   0.46119   0.46969   0.47319   0.48601
 Alpha virt. eigenvalues --    0.49461   0.50150   0.54280   0.54972   0.55585
 Alpha virt. eigenvalues --    0.56049   0.57758   0.58965   0.58980   0.60394
 Alpha virt. eigenvalues --    0.61508   0.61637   0.62118   0.63397   0.64002
 Alpha virt. eigenvalues --    0.66518   0.67253   0.67704   0.68754   0.70102
 Alpha virt. eigenvalues --    0.71047   0.71211   0.73500   0.74036   0.74991
 Alpha virt. eigenvalues --    0.76809   0.77857   0.78676   0.82235   0.82493
 Alpha virt. eigenvalues --    0.83443   0.84500   0.86850   0.87598   0.88071
 Alpha virt. eigenvalues --    0.89191   0.89425   0.95718   0.98125   0.98719
 Alpha virt. eigenvalues --    1.01537   1.02740   1.05008   1.05477   1.08260
 Alpha virt. eigenvalues --    1.08328   1.10079   1.11009   1.12530   1.13592
 Alpha virt. eigenvalues --    1.18441   1.20041   1.26675   1.27072   1.27915
 Alpha virt. eigenvalues --    1.28131   1.32120   1.35772   1.36263   1.37734
 Alpha virt. eigenvalues --    1.40583   1.42714   1.47777   1.50000   1.53605
 Alpha virt. eigenvalues --    1.56789   1.58437   1.60585   1.62139   1.65590
 Alpha virt. eigenvalues --    1.65876   1.68034   1.73279   1.74809   1.76665
 Alpha virt. eigenvalues --    1.77467   1.80201   1.83101   1.84250   1.87625
 Alpha virt. eigenvalues --    1.88104   1.90563   1.91216   1.92251   1.96638
 Alpha virt. eigenvalues --    1.98756   2.01777   2.05072   2.08734   2.12619
 Alpha virt. eigenvalues --    2.13056   2.13782   2.15080   2.15361   2.17464
 Alpha virt. eigenvalues --    2.19640   2.24330   2.24969   2.26793   2.26991
 Alpha virt. eigenvalues --    2.30100   2.32901   2.33911   2.34528   2.35867
 Alpha virt. eigenvalues --    2.42021   2.48805   2.49578   2.51351   2.52881
 Alpha virt. eigenvalues --    2.54856   2.56089   2.59245   2.61287   2.62707
 Alpha virt. eigenvalues --    2.64270   2.68368   2.72303   2.76815   2.80719
 Alpha virt. eigenvalues --    2.85869   2.92445   2.93703   2.99352   3.03395
 Alpha virt. eigenvalues --    3.04973   3.05873   3.14388   3.20520   3.27641
 Alpha virt. eigenvalues --    3.35744   3.54844   3.66651   3.92723   3.96705
 Alpha virt. eigenvalues --    4.03440   4.10243   4.26959   4.37990
          Condensed to atoms (all electrons):
 Mulliken charges:
               1
     1  C    0.006885
     2  O   -1.483646
     3  C    0.527306
     4  C   -0.070421
     5  N    0.568017
     6  C   -0.581735
     7  N    0.690918
     8  H    0.123416
     9  H    0.245400
    10  H    0.245531
    11  H   -0.166102
    12  H   -0.032894
    13  H   -0.072675
 Sum of Mulliken charges =  -0.00000
 Mulliken charges with hydrogens summed into heavy atoms:
               1
     1  C    0.621231
     2  O   -1.483646
     3  C    0.527306
     4  C   -0.236523
     5  N    0.535123
     6  C   -0.654410
     7  N    0.690918
 Electronic spatial extent (au):  <R**2>=            676.1984
 Charge=              0.0000 electrons
 Dipole moment (field-independent basis, Debye):
    X=              1.2768    Y=             -4.1214    Z=              0.0128  Tot=              4.3147

 Test job not archived.
 1\1\GINC-SE070\SP\RHF\Aug-CC-pVDZ\C4H6N2O1\OHZDE\09-Apr-2025\0\\#t hf 
 aug-cc-pvdz iop(5/13=1,5/36=2,99/5=2) pseudo=read geom=check guess=(re
 ad,tcheck) scf=(maxcycle=1)\\title\\0,1\C,0,2.08616796,0.73500515,-0.3
 4284072\O,0,1.37537509,-1.20139433,0.03261575\C,0,0.16377553,-0.808517
 98,0.06758575\C,0,-1.08566439,-1.36456348,0.26262078\N,0,-1.98025525,-
 0.30382666,0.16022792\C,0,-1.29748339,0.81877837,-0.08189777\N,0,-0.00
 819187,0.53385299,-0.14032085\H,0,1.7935693,1.75359642,-0.54077413\H,0
 ,2.51126805,0.213003,-1.18548899\H,0,2.57802231,0.57625011,0.60372734\
 H,0,-1.40488659,-2.37200267,0.45576296\H,0,-2.97782397,-0.36733403,0.2
 5135158\H,0,-1.75387277,1.78715211,-0.20448263\\Version=ES64L-G16RevC.
 01\State=1-A\HF=-338.955342\RMSD=4.073e-02\Dipole=-0.7127437,1.5289985
 ,-0.1891093\Quadrupole=7.2938339,-2.2081742,-5.0856597,4.5589641,-1.76
 9434,-0.8960531\PG=C01 [X(C4H6N2O1)]\\@


 ACCORDING TO HEN3RY, LIFE IS MUCH LIKE A SEWER........
 YOU GET OUT OF IT JUST WHAT YOU PUT INTO IT...........
                         TOM LEHRER - (THE 3 IS SILENT)
 Job cpu time:       0 days  0 hours  0 minutes 48.9 seconds.
 Elapsed time:       0 days  0 hours  0 minutes  3.9 seconds.
 File lengths (MBytes):  RWF=     10 Int=      0 D2E=      0 Chk=      7 Scr=      1
 Normal termination of Gaussian 16 at Wed Apr  9 03:52:39 2025.
