 Entering Gaussian System, Link 0=g16
 Input=Grambow2020_b97d3_006715_forward_mol1.gjf
 Output=Grambow2020_b97d3_006715_forward_mol1.log
 Initial command:
 /arc/software/Gaussian/g16.c01/l1.exe "/tmp/slurm/4875908/Gau-3812417.inp" -scrdir="/tmp/slurm/4875908/"
 Entering Link 1 = /arc/software/Gaussian/g16.c01/l1.exe PID=   3812418.
  
 Copyright (c) 1988-2019, Gaussian, Inc.  All Rights Reserved.
  
 This is part of the Gaussian(R) 16 program.  It is based on
 the Gaussian(R) 09 system (copyright 2009, Gaussian, Inc.),
 the Gaussian(R) 03 system (copyright 2003, Gaussian, Inc.),
 the Gaussian(R) 98 system (copyright 1998, Gaussian, Inc.),
 the Gaussian(R) 94 system (copyright 1995, Gaussian, Inc.),
 the Gaussian 92(TM) system (copyright 1992, Gaussian, Inc.),
 the Gaussian 90(TM) system (copyright 1990, Gaussian, Inc.),
 the Gaussian 88(TM) system (copyright 1988, Gaussian, Inc.),
 the Gaussian 86(TM) system (copyright 1986, Carnegie Mellon
 University), and the Gaussian 82(TM) system (copyright 1983,
 Carnegie Mellon University). Gaussian is a federally registered
 trademark of Gaussian, Inc.
  
 This software contains proprietary and confidential information,
 including trade secrets, belonging to Gaussian, Inc.
  
 This software is provided under written license and may be
 used, copied, transmitted, or stored only in accord with that
 written license.
  
 The following legend is applicable only to US Government
 contracts under FAR:
  
                    RESTRICTED RIGHTS LEGEND
  
 Use, reproduction and disclosure by the US Government is
 subject to restrictions as set forth in subparagraphs (a)
 and (c) of the Commercial Computer Software - Restricted
 Rights clause in FAR 52.227-19.
  
 Gaussian, Inc.
 340 Quinnipiac St., Bldg. 40, Wallingford CT 06492
  
  
 ---------------------------------------------------------------
 Warning -- This program may not be used in any manner that
 competes with the business of Gaussian, Inc. or will provide
 assistance to any competitor of Gaussian, Inc.  The licensee
 of this program is prohibited from giving any competitor of
 Gaussian, Inc. access to this program.  By using this program,
 the user acknowledges that Gaussian, Inc. is engaged in the
 business of creating and licensing software in the field of
 computational chemistry and represents and warrants to the
 licensee that it is not a competitor of Gaussian, Inc. and that
 it will not use this program in any manner prohibited above.
 ---------------------------------------------------------------
  

 Cite this work as:
 Gaussian 16, Revision C.01,
 M. J. Frisch, G. W. Trucks, H. B. Schlegel, G. E. Scuseria, 
 M. A. Robb, J. R. Cheeseman, G. Scalmani, V. Barone, 
 G. A. Petersson, H. Nakatsuji, X. Li, M. Caricato, A. V. Marenich, 
 J. Bloino, B. G. Janesko, R. Gomperts, B. Mennucci, H. P. Hratchian, 
 J. V. Ortiz, A. F. Izmaylov, J. L. Sonnenberg, D. Williams-Young, 
 F. Ding, F. Lipparini, F. Egidi, J. Goings, B. Peng, A. Petrone, 
 T. Henderson, D. Ranasinghe, V. G. Zakrzewski, J. Gao, N. Rega, 
 G. Zheng, W. Liang, M. Hada, M. Ehara, K. Toyota, R. Fukuda, 
 J. Hasegawa, M. Ishida, T. Nakajima, Y. Honda, O. Kitao, H. Nakai, 
 T. Vreven, K. Throssell, J. A. Montgomery, Jr., J. E. Peralta, 
 F. Ogliaro, M. J. Bearpark, J. J. Heyd, E. N. Brothers, K. N. Kudin, 
 V. N. Staroverov, T. A. Keith, R. Kobayashi, J. Normand, 
 K. Raghavachari, A. P. Rendell, J. C. Burant, S. S. Iyengar, 
 J. Tomasi, M. Cossi, J. M. Millam, M. Klene, C. Adamo, R. Cammi, 
 J. W. Ochterski, R. L. Martin, K. Morokuma, O. Farkas, 
 J. B. Foresman, and D. J. Fox, Gaussian, Inc., Wallingford CT, 2019.
 
 ******************************************
 Gaussian 16:  ES64L-G16RevC.01  3-Jul-2019
                 9-Apr-2025 
 ******************************************
 %nprocs=16
 Will use up to   16 processors via shared memory.
 %mem=30GB
 %chk=Grambow2020_b97d3_006715_forward_mol1.chk
 ----------------------------------------------------------------------
 #t hf aug-cc-pvdz symm=none int=(grid=ultrafine) guess=(read,tcheck) s
 table=(opt,rrhf)
 ----------------------------------------------------------------------
 -----
 title
 -----
 Symbolic Z-matrix:
 Charge =  0 Multiplicity = 1
 O                    -2.92027  -0.12338   0.37518 
 C                    -1.79789  -0.50822  -0.20696 
 C                    -0.50913  -0.04139  -0.02867 
 C                     0.71803   0.14578  -0.12667 
 C                     2.11934   0.43657  -0.11001 
 O                     2.90863  -0.13365   0.6405 
 H                    -2.93523  -1.00695  -0.44781 
 H                     2.43162   1.22526  -0.83143 
 
                    Distance matrix (angstroms):
                    1          2          3          4          5
     1  O    0.000000
     2  C    1.321637   0.000000
     3  C    2.446097   1.382247   0.000000
     4  C    3.682599   2.600773   1.245220   0.000000
     5  C    5.093783   4.030722   2.672816   1.431260   0.000000
     6  O    5.834941   4.796853   3.483875   2.337808   1.229385
     7  H    1.207575   1.265029   2.644609   3.844252   5.267504
     8  H    5.649552   4.613419   3.301038   2.144373   1.113553
                    6          7          8
     6  O    0.000000
     7  H    6.008145   0.000000
     8  H    2.059311   5.825205   0.000000
 Symmetry turned off by external request.
 Rotational constants (GHZ):          32.6152438           1.2785997           1.2591690
   156 basis functions,   280 primitive gaussians,   168 cartesian basis functions
    21 alpha electrons       21 beta electrons
       nuclear repulsion energy       171.2009166705 Hartrees.
 NAtoms=    8 NActive=    8 NUniq=    8 SFac= 1.00D+00 NAtFMM=   60 NAOKFM=F Big=F
 ExpMin= 2.97D-02 ExpMax= 1.17D+04 ExpMxC= 4.01D+02 IAcc=3 IRadAn=         5 AccDes= 0.00D+00
 Harris functional with IExCor=  205 and IRadAn=       5 diagonalized for initial guess.
 HarFok:  IExCor=  205 AccDes= 0.00D+00 IRadAn=         5 IDoV= 1 UseB2=F ITyADJ=14
 ICtDFT=  3500011 ScaDFX=  1.000000  1.000000  1.000000  1.000000
 FoFCou: FMM=F IPFlag=           0 FMFlag=      100000 FMFlg1=           0
         NFxFlg=           0 DoJE=T BraDBF=F KetDBF=T FulRan=T
         wScrn=  0.000000 ICntrl=       500 IOpCl=  0 I1Cent=   200000004 NGrid=           0
         NMat0=    1 NMatS0=      1 NMatT0=    0 NMatD0=    1 NMtDS0=    0 NMtDT0=    0
 Symmetry not used in FoFCou.
 SCF Done:  E(RHF) =  -302.140671052     A.U. after   18 cycles
            NFock= 18  Conv=0.74D-08     -V/T= 2.0020

 **********************************************************************

            Population analysis using the SCF Density.

 **********************************************************************

 Alpha  occ. eigenvalues --  -20.64020 -20.60453 -11.39845 -11.38049 -11.32127
 Alpha  occ. eigenvalues --  -11.31491  -1.44509  -1.42004  -1.11594  -0.98712
 Alpha  occ. eigenvalues --   -0.88901  -0.77122  -0.74265  -0.67709  -0.65938
 Alpha  occ. eigenvalues --   -0.58707  -0.57551  -0.48002  -0.46667  -0.45173
 Alpha  occ. eigenvalues --   -0.36894
 Alpha virt. eigenvalues --    0.01757   0.02310   0.03411   0.04569   0.07801
 Alpha virt. eigenvalues --    0.08327   0.08866   0.10517   0.10579   0.11983
 Alpha virt. eigenvalues --    0.13627   0.14637   0.16105   0.16145   0.17325
 Alpha virt. eigenvalues --    0.18273   0.20338   0.21645   0.22784   0.23358
 Alpha virt. eigenvalues --    0.24848   0.25426   0.26424   0.27533   0.27807
 Alpha virt. eigenvalues --    0.29605   0.31260   0.32435   0.33477   0.34406
 Alpha virt. eigenvalues --    0.36925   0.38858   0.39521   0.39950   0.41904
 Alpha virt. eigenvalues --    0.43515   0.45064   0.46897   0.49282   0.52471
 Alpha virt. eigenvalues --    0.54871   0.55755   0.56880   0.58786   0.59644
 Alpha virt. eigenvalues --    0.60988   0.63501   0.65828   0.66493   0.68628
 Alpha virt. eigenvalues --    0.69508   0.71297   0.75014   0.75878   0.76677
 Alpha virt. eigenvalues --    0.77631   0.79160   0.79732   0.83683   0.84781
 Alpha virt. eigenvalues --    0.85780   0.87998   0.88735   0.92826   0.97369
 Alpha virt. eigenvalues --    0.98450   1.01963   1.03692   1.07168   1.08241
 Alpha virt. eigenvalues --    1.13777   1.14477   1.19156   1.20279   1.22605
 Alpha virt. eigenvalues --    1.24373   1.27249   1.32196   1.35301   1.35818
 Alpha virt. eigenvalues --    1.37268   1.41037   1.45378   1.49172   1.50852
 Alpha virt. eigenvalues --    1.54372   1.55200   1.57981   1.61064   1.62748
 Alpha virt. eigenvalues --    1.63628   1.64191   1.67892   1.72668   1.75283
 Alpha virt. eigenvalues --    1.78047   1.80587   1.83954   1.88850   1.89686
 Alpha virt. eigenvalues --    1.93411   1.97205   1.99272   2.01515   2.06568
 Alpha virt. eigenvalues --    2.08487   2.10691   2.13701   2.19587   2.23396
 Alpha virt. eigenvalues --    2.26777   2.34852   2.37592   2.44668   2.52383
 Alpha virt. eigenvalues --    2.57710   2.71677   2.82302   2.87425   2.96587
 Alpha virt. eigenvalues --    3.17813   3.30147   3.38356   3.43326   3.62390
 Alpha virt. eigenvalues --    3.63793   3.70290   3.71129   3.73484   3.75891
 Alpha virt. eigenvalues --    3.87301   3.92132   3.92800   4.02089   4.05011
          Condensed to atoms (all electrons):
 Mulliken charges:
               1
     1  O   -0.720078
     2  C   -0.231343
     3  C    0.872489
     4  C   -0.289194
     5  C    0.739920
     6  O   -0.682595
     7  H    0.333435
     8  H   -0.022634
 Sum of Mulliken charges =  -0.00000
 Mulliken charges with hydrogens summed into heavy atoms:
               1
     1  O   -0.386643
     2  C   -0.231343
     3  C    0.872489
     4  C   -0.289194
     5  C    0.717286
     6  O   -0.682595
 Electronic spatial extent (au):  <R**2>=            841.7519
 Charge=             -0.0000 electrons
 Dipole moment (field-independent basis, Debye):
    X=             -0.8755    Y=              0.8613    Z=             -2.4238  Tot=              2.7171
 NROrb=    156 NOA=    21 NOB=    21 NVA=   135 NVB=   135

 **** Warning!!: The largest alpha MO coefficient is  0.47481816D+02

    12 initial guesses have been made.
 Iteration     1 Dimension    12 NMult     0 NNew     12
 Iteration     2 Dimension    24 NMult    12 NNew     12
 Iteration     3 Dimension    27 NMult    24 NNew      3
 Iteration     4 Dimension    30 NMult    27 NNew      3
 Iteration     5 Dimension    33 NMult    30 NNew      3
 ***********************************************************************
 Stability analysis using <AA,BB:AA,BB> singles matrix:
 ***********************************************************************
 Ground to excited state transition densities written to RWF  633

 Eigenvectors of the stability matrix:
 
 Excited state symmetry could not be determined.
 Eigenvector   1:      Singlet-?Sym  Eigenvalue= 0.0786151  <S**2>=0.000
      20 -> 22        -0.15563
      20 -> 25         0.10669
      21 -> 23         0.60555
      21 -> 24        -0.15991
 The wavefunction is stable under the perturbations considered.
 The wavefunction is already stable.

 **********************************************************************

            Population analysis using the SCF Density.

 **********************************************************************

 Alpha  occ. eigenvalues --  -20.64020 -20.60453 -11.39845 -11.38049 -11.32127
 Alpha  occ. eigenvalues --  -11.31491  -1.44509  -1.42004  -1.11594  -0.98712
 Alpha  occ. eigenvalues --   -0.88901  -0.77122  -0.74265  -0.67709  -0.65938
 Alpha  occ. eigenvalues --   -0.58707  -0.57551  -0.48002  -0.46667  -0.45173
 Alpha  occ. eigenvalues --   -0.36894
 Alpha virt. eigenvalues --    0.01757   0.02310   0.03411   0.04569   0.07801
 Alpha virt. eigenvalues --    0.08327   0.08866   0.10517   0.10579   0.11983
 Alpha virt. eigenvalues --    0.13627   0.14637   0.16105   0.16145   0.17325
 Alpha virt. eigenvalues --    0.18273   0.20338   0.21645   0.22784   0.23358
 Alpha virt. eigenvalues --    0.24848   0.25426   0.26424   0.27533   0.27807
 Alpha virt. eigenvalues --    0.29605   0.31260   0.32435   0.33477   0.34406
 Alpha virt. eigenvalues --    0.36925   0.38858   0.39521   0.39950   0.41904
 Alpha virt. eigenvalues --    0.43515   0.45064   0.46897   0.49282   0.52471
 Alpha virt. eigenvalues --    0.54871   0.55755   0.56880   0.58786   0.59644
 Alpha virt. eigenvalues --    0.60988   0.63501   0.65828   0.66493   0.68628
 Alpha virt. eigenvalues --    0.69508   0.71297   0.75014   0.75878   0.76677
 Alpha virt. eigenvalues --    0.77631   0.79160   0.79732   0.83683   0.84781
 Alpha virt. eigenvalues --    0.85780   0.87998   0.88735   0.92826   0.97369
 Alpha virt. eigenvalues --    0.98450   1.01963   1.03692   1.07168   1.08241
 Alpha virt. eigenvalues --    1.13777   1.14477   1.19156   1.20279   1.22605
 Alpha virt. eigenvalues --    1.24373   1.27249   1.32196   1.35301   1.35818
 Alpha virt. eigenvalues --    1.37268   1.41037   1.45378   1.49172   1.50852
 Alpha virt. eigenvalues --    1.54372   1.55200   1.57981   1.61064   1.62748
 Alpha virt. eigenvalues --    1.63628   1.64191   1.67892   1.72668   1.75283
 Alpha virt. eigenvalues --    1.78047   1.80587   1.83954   1.88850   1.89686
 Alpha virt. eigenvalues --    1.93411   1.97205   1.99272   2.01515   2.06568
 Alpha virt. eigenvalues --    2.08487   2.10691   2.13701   2.19587   2.23396
 Alpha virt. eigenvalues --    2.26777   2.34852   2.37592   2.44668   2.52383
 Alpha virt. eigenvalues --    2.57710   2.71677   2.82302   2.87425   2.96587
 Alpha virt. eigenvalues --    3.17813   3.30147   3.38356   3.43326   3.62390
 Alpha virt. eigenvalues --    3.63793   3.70290   3.71129   3.73484   3.75891
 Alpha virt. eigenvalues --    3.87301   3.92132   3.92800   4.02089   4.05011
          Condensed to atoms (all electrons):
 Mulliken charges:
               1
     1  O   -0.720078
     2  C   -0.231343
     3  C    0.872489
     4  C   -0.289194
     5  C    0.739920
     6  O   -0.682595
     7  H    0.333435
     8  H   -0.022634
 Sum of Mulliken charges =  -0.00000
 Mulliken charges with hydrogens summed into heavy atoms:
               1
     1  O   -0.386643
     2  C   -0.231343
     3  C    0.872489
     4  C   -0.289194
     5  C    0.717286
     6  O   -0.682595
 Electronic spatial extent (au):  <R**2>=            841.7519
 Charge=             -0.0000 electrons
 Dipole moment (field-independent basis, Debye):
    X=             -0.8755    Y=              0.8613    Z=             -2.4238  Tot=              2.7171
 Unable to Open any file for archive entry.
 1\1\GINC-SE141\Stability\RHF\Aug-CC-pVDZ\C4H2O2\OHZDE\09-Apr-2025\0\\#
 t hf aug-cc-pvdz symm=none int=(grid=ultrafine) guess=(read,tcheck) st
 able=(opt,rrhf)\\title\\0,1\O,0,-2.92026905,-0.12338114,0.37517953\C,0
 ,-1.79788904,-0.50821844,-0.20696194\C,0,-0.50913266,-0.04139382,-0.02
 86654\C,0,0.71803205,0.14577944,-0.1266723\C,0,2.11934203,0.43656844,-
 0.11000687\O,0,2.90862737,-0.13364987,0.64050378\H,0,-2.9352342,-1.006
 95108,-0.44781419\H,0,2.4316185,1.22525548,-0.83143363\\Version=ES64L-
 G16RevC.01\HF=-302.1406711\RMSD=7.358e-09\Dipole=-0.3444293,0.3388549,
 -0.9535825\Quadrupole=-3.8616662,2.9113567,0.9503095,5.1807424,-1.7104
 89,-0.6016373\PG=Unknown\\@
 The archive entry for this job was punched.


 ERROR IS THE FORCE THAT WELDS MEN TOGETHER....
 TRUTH IS COMMUNICATED TO MEN ONLY BY DEEDS OF TRUTH.
           TOLSTOI,MY RELIGION
 Job cpu time:       0 days  0 hours  0 minutes 50.6 seconds.
 Elapsed time:       0 days  0 hours  0 minutes  6.9 seconds.
 File lengths (MBytes):  RWF=    141 Int=      0 D2E=      0 Chk=      4 Scr=      1
 Normal termination of Gaussian 16 at Wed Apr  9 15:43:34 2025.
 Initial command:
 /arc/software/Gaussian/g16.c01/l1.exe "/tmp/slurm/4875908/Gau-3812417.inp" -scrdir="/tmp/slurm/4875908/"
 Entering Link 1 = /arc/software/Gaussian/g16.c01/l1.exe PID=   3812631.
  
 Copyright (c) 1988-2019, Gaussian, Inc.  All Rights Reserved.
  
 This is part of the Gaussian(R) 16 program.  It is based on
 the Gaussian(R) 09 system (copyright 2009, Gaussian, Inc.),
 the Gaussian(R) 03 system (copyright 2003, Gaussian, Inc.),
 the Gaussian(R) 98 system (copyright 1998, Gaussian, Inc.),
 the Gaussian(R) 94 system (copyright 1995, Gaussian, Inc.),
 the Gaussian 92(TM) system (copyright 1992, Gaussian, Inc.),
 the Gaussian 90(TM) system (copyright 1990, Gaussian, Inc.),
 the Gaussian 88(TM) system (copyright 1988, Gaussian, Inc.),
 the Gaussian 86(TM) system (copyright 1986, Carnegie Mellon
 University), and the Gaussian 82(TM) system (copyright 1983,
 Carnegie Mellon University). Gaussian is a federally registered
 trademark of Gaussian, Inc.
  
 This software contains proprietary and confidential information,
 including trade secrets, belonging to Gaussian, Inc.
  
 This software is provided under written license and may be
 used, copied, transmitted, or stored only in accord with that
 written license.
  
 The following legend is applicable only to US Government
 contracts under FAR:
  
                    RESTRICTED RIGHTS LEGEND
  
 Use, reproduction and disclosure by the US Government is
 subject to restrictions as set forth in subparagraphs (a)
 and (c) of the Commercial Computer Software - Restricted
 Rights clause in FAR 52.227-19.
  
 Gaussian, Inc.
 340 Quinnipiac St., Bldg. 40, Wallingford CT 06492
  
  
 ---------------------------------------------------------------
 Warning -- This program may not be used in any manner that
 competes with the business of Gaussian, Inc. or will provide
 assistance to any competitor of Gaussian, Inc.  The licensee
 of this program is prohibited from giving any competitor of
 Gaussian, Inc. access to this program.  By using this program,
 the user acknowledges that Gaussian, Inc. is engaged in the
 business of creating and licensing software in the field of
 computational chemistry and represents and warrants to the
 licensee that it is not a competitor of Gaussian, Inc. and that
 it will not use this program in any manner prohibited above.
 ---------------------------------------------------------------
  

 Cite this work as:
 Gaussian 16, Revision C.01,
 M. J. Frisch, G. W. Trucks, H. B. Schlegel, G. E. Scuseria, 
 M. A. Robb, J. R. Cheeseman, G. Scalmani, V. Barone, 
 G. A. Petersson, H. Nakatsuji, X. Li, M. Caricato, A. V. Marenich, 
 J. Bloino, B. G. Janesko, R. Gomperts, B. Mennucci, H. P. Hratchian, 
 J. V. Ortiz, A. F. Izmaylov, J. L. Sonnenberg, D. Williams-Young, 
 F. Ding, F. Lipparini, F. Egidi, J. Goings, B. Peng, A. Petrone, 
 T. Henderson, D. Ranasinghe, V. G. Zakrzewski, J. Gao, N. Rega, 
 G. Zheng, W. Liang, M. Hada, M. Ehara, K. Toyota, R. Fukuda, 
 J. Hasegawa, M. Ishida, T. Nakajima, Y. Honda, O. Kitao, H. Nakai, 
 T. Vreven, K. Throssell, J. A. Montgomery, Jr., J. E. Peralta, 
 F. Ogliaro, M. J. Bearpark, J. J. Heyd, E. N. Brothers, K. N. Kudin, 
 V. N. Staroverov, T. A. Keith, R. Kobayashi, J. Normand, 
 K. Raghavachari, A. P. Rendell, J. C. Burant, S. S. Iyengar, 
 J. Tomasi, M. Cossi, J. M. Millam, M. Klene, C. Adamo, R. Cammi, 
 J. W. Ochterski, R. L. Martin, K. Morokuma, O. Farkas, 
 J. B. Foresman, and D. J. Fox, Gaussian, Inc., Wallingford CT, 2019.
 
 ******************************************
 Gaussian 16:  ES64L-G16RevC.01  3-Jul-2019
                 9-Apr-2025 
 ******************************************
 %nprocs=16
 Will use up to   16 processors via shared memory.
 %mem=30GB
 %chk=Grambow2020_b97d3_006715_forward_mol1.chk
 ----------------------------------------------------------------------
 #t hf aug-cc-pvdz iop(5/13=1,5/36=2,99/5=2) pseudo=read geom=check gue
 ss=(read,tcheck) scf=(maxcycle=1)
 ----------------------------------------------------------------------
 -----
 title
 -----
 Structure from the checkpoint file:  "Grambow2020_b97d3_006715_forward_mol1.chk"
 Charge =  0 Multiplicity = 1
 Z-Matrix found in chk file.
 O,0,-2.92026905,-0.12338114,0.37517953
 C,0,-1.79788904,-0.50821844,-0.20696194
 C,0,-0.50913266,-0.04139382,-0.0286654
 C,0,0.71803205,0.14577944,-0.1266723
 C,0,2.11934203,0.43656844,-0.11000687
 O,0,2.90862737,-0.13364987,0.64050378
 H,0,-2.9352342,-1.00695108,-0.44781419
 H,0,2.4316185,1.22525548,-0.83143363
 Recover connectivity data from disk.
                    Distance matrix (angstroms):
                    1          2          3          4          5
     1  O    0.000000
     2  C    1.321637   0.000000
     3  C    2.446097   1.382247   0.000000
     4  C    3.682599   2.600773   1.245220   0.000000
     5  C    5.093783   4.030722   2.672816   1.431260   0.000000
     6  O    5.834941   4.796853   3.483875   2.337808   1.229385
     7  H    1.207575   1.265029   2.644609   3.844252   5.267504
     8  H    5.649552   4.613419   3.301038   2.144373   1.113553
                    6          7          8
     6  O    0.000000
     7  H    6.008145   0.000000
     8  H    2.059311   5.825205   0.000000
 Framework group  C1[X(C4H2O2)]
 Deg. of freedom    18
                         Standard orientation:                         
 ---------------------------------------------------------------------
 Center     Atomic      Atomic             Coordinates (Angstroms)
 Number     Number       Type             X           Y           Z
 ---------------------------------------------------------------------
      1          8           0        2.968764   -0.191317   -0.355569
      2          6           0        1.901292    0.030168    0.391542
      3          6           0        0.571845    0.116508    0.023134
      4          6           0       -0.663918    0.269156    0.035737
      5          6           0       -2.085404    0.382845   -0.086576
      6          8           0       -2.841394   -0.581412    0.013792
      7          1           0        3.084524   -0.027815    0.835274
      8          1           0       -2.446377    1.417586   -0.284083
 ---------------------------------------------------------------------
 Rotational constants (GHZ):          32.6152438           1.2785997           1.2591690
 ======================================================================================================
                                       Pseudopotential Parameters
 ======================================================================================================
  Center     Atomic      Valence      Angular      Power
  Number     Number     Electrons     Momentum     of R      Exponent        Coefficient   SO-Coeffient
 ======================================================================================================
    1          8            8
                                      G and up 
                                                     0        0.0000010        0.00049668    0.00000000
                                                     2        0.1200000       -0.01803391    0.00000000
                                                     2        0.1400000        0.04014195    0.00000000
                                                     2        0.2000000       -0.02692147    0.00000000
                                                     2        0.2800000       -0.04241843    0.00000000
                                                     2        0.4000000        0.15412145    0.00000000
                                                     2        0.7000000       -0.40587006    0.00000000
                                                     2        1.1000000        1.75666647    0.00000000
                                      S - G
                                                     0        0.0000010       -0.01088195    0.00000000
                                                     2        0.1200000        0.09867335    0.00000000
                                                     2        0.2400000       -0.08484177    0.00000000
                                                     2        0.6000000       -1.39011554    0.00000000
                                                     2        2.5000000        1.36225910    0.00000000
                                      P - G
                                                     0        0.0000010        0.05874028    0.00000000
                                                     2        0.1200000       -0.11700340    0.00000000
                                                     2        0.1600000        0.08847775    0.00000000
                                                     2        0.3000000        0.04709907    0.00000000
                                                     2        1.2000000       -1.80388338    0.00000000
                                      D - G
                                                     0        0.0000010       -0.00541262    0.00000000
                                                     2        0.1200000       -0.26547906    0.00000000
                                                     2        0.1600000        1.04289661    0.00000000
                                                     2        0.2400000       -1.92800913    0.00000000
                                                     2        0.4000000        2.26691633    0.00000000
                                                     2        0.7000000       -1.97391482    0.00000000
                                      F - G
                                                     0        0.0000010       -0.02604870    0.00000000
                                                     2        0.1200000        0.37362552    0.00000000
                                                     2        0.1600000       -1.43526367    0.00000000
                                                     2        0.2200000        1.76778079    0.00000000
                                                     2        0.5000000       -1.90846303    0.00000000
    2          6            6
                                      G and up 
                                                     0        0.0000010       -0.00007288    0.00000000
                                                     2        0.1200000        0.10466671    0.00000000
                                                     2        0.1400000       -0.65716157    0.00000000
                                                     2        0.1600000        1.18890794    0.00000000
                                                     2        0.2000000       -1.25772850    0.00000000
                                                     2        0.2600000        1.01188378    0.00000000
                                                     2        0.4000000       -1.09380874    0.00000000
                                                     2        0.5000000        0.96944888    0.00000000
                                                     2        1.0000000       -0.79256938    0.00000000
                                                     2        3.0000000        1.06443276    0.00000000
                                      S - G
                                                     0        0.0000010       -0.00635295    0.00000000
                                                     2        0.1200000        0.16918955    0.00000000
                                                     2        0.1600000       -0.38862576    0.00000000
                                                     2        0.2800000        0.25638263    0.00000000
                                                     2        0.5000000        0.29628419    0.00000000
                                                     2        0.9000000       -0.28791512    0.00000000
                                      P - G
                                                     0        0.0000010       -0.04756931    0.00000000
                                                     2        0.1200000        0.28430375    0.00000000
                                                     2        0.1600000       -0.69640032    0.00000000
                                                     2        0.2600000        1.13005668    0.00000000
                                                     2        0.4000000       -1.31433324    0.00000000
                                                     2        0.7000000        0.91526469    0.00000000
                                      D - G
                                                     0        0.0000010       -0.11496411    0.00000000
                                                     2        0.1200000        0.16620776    0.00000000
                                                     2        0.1800000       -0.30959819    0.00000000
                                                     2        0.3000000        0.16621458    0.00000000
                                                     2        0.6000000        0.27350556    0.00000000
                                      F - G
                                                     0        0.0000010        0.12037550    0.00000000
                                                     2        0.1200000       -0.48737077    0.00000000
                                                     2        0.1400000        0.58315350    0.00000000
                                                     2        0.3000000        0.00005188    0.00000000
                                                     2        0.5000000       -1.16063549    0.00000000
                                                     2        0.8000000        2.09053308    0.00000000
    3          6            6
                                      G and up 
                                                     0        0.0000010       -0.00007288    0.00000000
                                                     2        0.1200000        0.10466671    0.00000000
                                                     2        0.1400000       -0.65716157    0.00000000
                                                     2        0.1600000        1.18890794    0.00000000
                                                     2        0.2000000       -1.25772850    0.00000000
                                                     2        0.2600000        1.01188378    0.00000000
                                                     2        0.4000000       -1.09380874    0.00000000
                                                     2        0.5000000        0.96944888    0.00000000
                                                     2        1.0000000       -0.79256938    0.00000000
                                                     2        3.0000000        1.06443276    0.00000000
                                      S - G
                                                     0        0.0000010       -0.00635295    0.00000000
                                                     2        0.1200000        0.16918955    0.00000000
                                                     2        0.1600000       -0.38862576    0.00000000
                                                     2        0.2800000        0.25638263    0.00000000
                                                     2        0.5000000        0.29628419    0.00000000
                                                     2        0.9000000       -0.28791512    0.00000000
                                      P - G
                                                     0        0.0000010       -0.04756931    0.00000000
                                                     2        0.1200000        0.28430375    0.00000000
                                                     2        0.1600000       -0.69640032    0.00000000
                                                     2        0.2600000        1.13005668    0.00000000
                                                     2        0.4000000       -1.31433324    0.00000000
                                                     2        0.7000000        0.91526469    0.00000000
                                      D - G
                                                     0        0.0000010       -0.11496411    0.00000000
                                                     2        0.1200000        0.16620776    0.00000000
                                                     2        0.1800000       -0.30959819    0.00000000
                                                     2        0.3000000        0.16621458    0.00000000
                                                     2        0.6000000        0.27350556    0.00000000
                                      F - G
                                                     0        0.0000010        0.12037550    0.00000000
                                                     2        0.1200000       -0.48737077    0.00000000
                                                     2        0.1400000        0.58315350    0.00000000
                                                     2        0.3000000        0.00005188    0.00000000
                                                     2        0.5000000       -1.16063549    0.00000000
                                                     2        0.8000000        2.09053308    0.00000000
    4          6            6
                                      G and up 
                                                     0        0.0000010       -0.00007288    0.00000000
                                                     2        0.1200000        0.10466671    0.00000000
                                                     2        0.1400000       -0.65716157    0.00000000
                                                     2        0.1600000        1.18890794    0.00000000
                                                     2        0.2000000       -1.25772850    0.00000000
                                                     2        0.2600000        1.01188378    0.00000000
                                                     2        0.4000000       -1.09380874    0.00000000
                                                     2        0.5000000        0.96944888    0.00000000
                                                     2        1.0000000       -0.79256938    0.00000000
                                                     2        3.0000000        1.06443276    0.00000000
                                      S - G
                                                     0        0.0000010       -0.00635295    0.00000000
                                                     2        0.1200000        0.16918955    0.00000000
                                                     2        0.1600000       -0.38862576    0.00000000
                                                     2        0.2800000        0.25638263    0.00000000
                                                     2        0.5000000        0.29628419    0.00000000
                                                     2        0.9000000       -0.28791512    0.00000000
                                      P - G
                                                     0        0.0000010       -0.04756931    0.00000000
                                                     2        0.1200000        0.28430375    0.00000000
                                                     2        0.1600000       -0.69640032    0.00000000
                                                     2        0.2600000        1.13005668    0.00000000
                                                     2        0.4000000       -1.31433324    0.00000000
                                                     2        0.7000000        0.91526469    0.00000000
                                      D - G
                                                     0        0.0000010       -0.11496411    0.00000000
                                                     2        0.1200000        0.16620776    0.00000000
                                                     2        0.1800000       -0.30959819    0.00000000
                                                     2        0.3000000        0.16621458    0.00000000
                                                     2        0.6000000        0.27350556    0.00000000
                                      F - G
                                                     0        0.0000010        0.12037550    0.00000000
                                                     2        0.1200000       -0.48737077    0.00000000
                                                     2        0.1400000        0.58315350    0.00000000
                                                     2        0.3000000        0.00005188    0.00000000
                                                     2        0.5000000       -1.16063549    0.00000000
                                                     2        0.8000000        2.09053308    0.00000000
    5          6            6
                                      G and up 
                                                     0        0.0000010       -0.00007288    0.00000000
                                                     2        0.1200000        0.10466671    0.00000000
                                                     2        0.1400000       -0.65716157    0.00000000
                                                     2        0.1600000        1.18890794    0.00000000
                                                     2        0.2000000       -1.25772850    0.00000000
                                                     2        0.2600000        1.01188378    0.00000000
                                                     2        0.4000000       -1.09380874    0.00000000
                                                     2        0.5000000        0.96944888    0.00000000
                                                     2        1.0000000       -0.79256938    0.00000000
                                                     2        3.0000000        1.06443276    0.00000000
                                      S - G
                                                     0        0.0000010       -0.00635295    0.00000000
                                                     2        0.1200000        0.16918955    0.00000000
                                                     2        0.1600000       -0.38862576    0.00000000
                                                     2        0.2800000        0.25638263    0.00000000
                                                     2        0.5000000        0.29628419    0.00000000
                                                     2        0.9000000       -0.28791512    0.00000000
                                      P - G
                                                     0        0.0000010       -0.04756931    0.00000000
                                                     2        0.1200000        0.28430375    0.00000000
                                                     2        0.1600000       -0.69640032    0.00000000
                                                     2        0.2600000        1.13005668    0.00000000
                                                     2        0.4000000       -1.31433324    0.00000000
                                                     2        0.7000000        0.91526469    0.00000000
                                      D - G
                                                     0        0.0000010       -0.11496411    0.00000000
                                                     2        0.1200000        0.16620776    0.00000000
                                                     2        0.1800000       -0.30959819    0.00000000
                                                     2        0.3000000        0.16621458    0.00000000
                                                     2        0.6000000        0.27350556    0.00000000
                                      F - G
                                                     0        0.0000010        0.12037550    0.00000000
                                                     2        0.1200000       -0.48737077    0.00000000
                                                     2        0.1400000        0.58315350    0.00000000
                                                     2        0.3000000        0.00005188    0.00000000
                                                     2        0.5000000       -1.16063549    0.00000000
                                                     2        0.8000000        2.09053308    0.00000000
    6          8            8
                                      G and up 
                                                     0        0.0000010        0.00049668    0.00000000
                                                     2        0.1200000       -0.01803391    0.00000000
                                                     2        0.1400000        0.04014195    0.00000000
                                                     2        0.2000000       -0.02692147    0.00000000
                                                     2        0.2800000       -0.04241843    0.00000000
                                                     2        0.4000000        0.15412145    0.00000000
                                                     2        0.7000000       -0.40587006    0.00000000
                                                     2        1.1000000        1.75666647    0.00000000
                                      S - G
                                                     0        0.0000010       -0.01088195    0.00000000
                                                     2        0.1200000        0.09867335    0.00000000
                                                     2        0.2400000       -0.08484177    0.00000000
                                                     2        0.6000000       -1.39011554    0.00000000
                                                     2        2.5000000        1.36225910    0.00000000
                                      P - G
                                                     0        0.0000010        0.05874028    0.00000000
                                                     2        0.1200000       -0.11700340    0.00000000
                                                     2        0.1600000        0.08847775    0.00000000
                                                     2        0.3000000        0.04709907    0.00000000
                                                     2        1.2000000       -1.80388338    0.00000000
                                      D - G
                                                     0        0.0000010       -0.00541262    0.00000000
                                                     2        0.1200000       -0.26547906    0.00000000
                                                     2        0.1600000        1.04289661    0.00000000
                                                     2        0.2400000       -1.92800913    0.00000000
                                                     2        0.4000000        2.26691633    0.00000000
                                                     2        0.7000000       -1.97391482    0.00000000
                                      F - G
                                                     0        0.0000010       -0.02604870    0.00000000
                                                     2        0.1200000        0.37362552    0.00000000
                                                     2        0.1600000       -1.43526367    0.00000000
                                                     2        0.2200000        1.76778079    0.00000000
                                                     2        0.5000000       -1.90846303    0.00000000
    7          1            1
                                      F and up 
                                                     0        0.0000010       -0.00007675    0.00000000
                                                     2        0.1200000        0.05352699    0.00000000
                                                     2        0.1400000       -0.25123645    0.00000000
                                                     2        0.1600000        0.32188106    0.00000000
                                                     2        0.2200000       -0.25206857    0.00000000
                                                     2        0.3000000        0.19290477    0.00000000
                                                     2        0.5000000       -0.10129770    0.00000000
                                                     2        0.9000000        0.00314995    0.00000000
                                                     2        1.5000000        0.18401192    0.00000000
                                      S - F
                                                     0        0.0000010        0.08065976    0.00000000
                                                     2        0.1200000       -0.09231673    0.00000000
                                                     2        0.1600000       -0.03278082    0.00000000
                                                     2        0.2800000        0.38423402    0.00000000
                                                     2        0.6000000       -1.09357590    0.00000000
                                                     2        1.1000000        1.53099489    0.00000000
                                                     2        3.0000000       -2.63300202    0.00000000
                                      P - F
                                                     0        0.0000010       -0.11638665    0.00000000
                                                     2        0.1200000        0.35468655    0.00000000
                                                     2        0.1600000       -0.59160923    0.00000000
                                                     2        0.3000000        0.49390547    0.00000000
                                                     2        0.6000000       -0.37949835    0.00000000
                                                     2        1.6000000        0.89304688    0.00000000
                                      D - F
                                                     0        0.0000010        0.05443663    0.00000000
                                                     2        0.1200000       -0.29679479    0.00000000
                                                     2        0.1400000        0.36849872    0.00000000
                                                     2        0.2400000        0.02793449    0.00000000
                                                     2        0.4000000       -0.46312857    0.00000000
                                                     2        0.7000000        0.97587598    0.00000000
                                                     2        1.5000000       -2.43431102    0.00000000
    8          1            1
                                      F and up 
                                                     0        0.0000010       -0.00007675    0.00000000
                                                     2        0.1200000        0.05352699    0.00000000
                                                     2        0.1400000       -0.25123645    0.00000000
                                                     2        0.1600000        0.32188106    0.00000000
                                                     2        0.2200000       -0.25206857    0.00000000
                                                     2        0.3000000        0.19290477    0.00000000
                                                     2        0.5000000       -0.10129770    0.00000000
                                                     2        0.9000000        0.00314995    0.00000000
                                                     2        1.5000000        0.18401192    0.00000000
                                      S - F
                                                     0        0.0000010        0.08065976    0.00000000
                                                     2        0.1200000       -0.09231673    0.00000000
                                                     2        0.1600000       -0.03278082    0.00000000
                                                     2        0.2800000        0.38423402    0.00000000
                                                     2        0.6000000       -1.09357590    0.00000000
                                                     2        1.1000000        1.53099489    0.00000000
                                                     2        3.0000000       -2.63300202    0.00000000
                                      P - F
                                                     0        0.0000010       -0.11638665    0.00000000
                                                     2        0.1200000        0.35468655    0.00000000
                                                     2        0.1600000       -0.59160923    0.00000000
                                                     2        0.3000000        0.49390547    0.00000000
                                                     2        0.6000000       -0.37949835    0.00000000
                                                     2        1.6000000        0.89304688    0.00000000
                                      D - F
                                                     0        0.0000010        0.05443663    0.00000000
                                                     2        0.1200000       -0.29679479    0.00000000
                                                     2        0.1400000        0.36849872    0.00000000
                                                     2        0.2400000        0.02793449    0.00000000
                                                     2        0.4000000       -0.46312857    0.00000000
                                                     2        0.7000000        0.97587598    0.00000000
                                                     2        1.5000000       -2.43431102    0.00000000
 ======================================================================================================
   156 basis functions,   280 primitive gaussians,   168 cartesian basis functions
    21 alpha electrons       21 beta electrons
       nuclear repulsion energy       171.2009166705 Hartrees.
 NAtoms=    8 NActive=    8 NUniq=    8 SFac= 1.00D+00 NAtFMM=   60 NAOKFM=F Big=F
   1 Symmetry operations used in ECPInt.
 ECPInt:  NShTT=    2080 NPrTT=   11904 LenC2=    2051 LenP2D=    8726.
 LDataN:  DoStor=T MaxTD1= 6 Len=  172
 Initial guess from the checkpoint file:  "Grambow2020_b97d3_006715_forward_mol1.chk"
 B after Tr=     0.114239    0.193356    0.033774
         Rot=    0.032584   -0.033055    0.887159   -0.459123 Ang=-176.27 deg.
 >>>>>>>>>> Convergence criterion not met.
 SCF Done:  E(RHF) =  -302.431807891     A.U. after    2 cycles
            NFock=  1  Conv=0.24D-01     -V/T= 2.0056

 **********************************************************************

            Population analysis using the SCF Density.

 **********************************************************************

 Orbital symmetries:
       Occupied  (A) (A) (A) (A) (A) (A) (A) (A) (A) (A) (A) (A)
                 (A) (A) (A) (A) (A) (A) (A) (A) (A)
       Virtual   (A) (A) (A) (A) (A) (A) (A) (A) (A) (A) (A) (A)
                 (A) (A) (A) (A) (A) (A) (A) (A) (A) (A) (A) (A)
                 (A) (A) (A) (A) (A) (A) (A) (A) (A) (A) (A) (A)
                 (A) (A) (A) (A) (A) (A) (A) (A) (A) (A) (A) (A)
                 (A) (A) (A) (A) (A) (A) (A) (A) (A) (A) (A) (A)
                 (A) (A) (A) (A) (A) (A) (A) (A) (A) (A) (A) (A)
                 (A) (A) (A) (A) (A) (A) (A) (A) (A) (A) (A) (A)
                 (A) (A) (A) (A) (A) (A) (A) (A) (A) (A) (A) (A)
                 (A) (A) (A) (A) (A) (A) (A) (A) (A) (A) (A) (A)
                 (A) (A) (A) (A) (A) (A) (A) (A) (A) (A) (A) (A)
                 (A) (A) (A) (A) (A) (A) (A) (A) (A) (A) (A) (A)
                 (A) (A) (A)
 The electronic state is 1-A.
 Alpha  occ. eigenvalues --  -20.61901 -20.58282 -11.39964 -11.38174 -11.32240
 Alpha  occ. eigenvalues --  -11.31593  -1.52368  -1.49585  -1.11623  -0.99505
 Alpha  occ. eigenvalues --   -0.90304  -0.77664  -0.75193  -0.67908  -0.65941
 Alpha  occ. eigenvalues --   -0.58512  -0.57744  -0.47549  -0.46887  -0.45798
 Alpha  occ. eigenvalues --   -0.37138
 Alpha virt. eigenvalues --    0.01645   0.01882   0.03285   0.04419   0.07679
 Alpha virt. eigenvalues --    0.08290   0.08869   0.10284   0.10380   0.11827
 Alpha virt. eigenvalues --    0.13649   0.14414   0.15993   0.16067   0.17150
 Alpha virt. eigenvalues --    0.18125   0.20334   0.21431   0.22739   0.23276
 Alpha virt. eigenvalues --    0.24816   0.25215   0.26388   0.27475   0.27768
 Alpha virt. eigenvalues --    0.29504   0.30964   0.32329   0.33439   0.34223
 Alpha virt. eigenvalues --    0.37060   0.38664   0.39612   0.39759   0.41709
 Alpha virt. eigenvalues --    0.43384   0.44971   0.46746   0.49078   0.52328
 Alpha virt. eigenvalues --    0.54887   0.55571   0.56656   0.58798   0.59620
 Alpha virt. eigenvalues --    0.60907   0.63509   0.65955   0.66709   0.68589
 Alpha virt. eigenvalues --    0.69403   0.71160   0.75002   0.76386   0.77065
 Alpha virt. eigenvalues --    0.77748   0.79543   0.79896   0.83769   0.85030
 Alpha virt. eigenvalues --    0.86351   0.88561   0.89130   0.93078   0.97250
 Alpha virt. eigenvalues --    0.98670   1.02424   1.03999   1.07769   1.08874
 Alpha virt. eigenvalues --    1.14470   1.15021   1.19948   1.21260   1.23481
 Alpha virt. eigenvalues --    1.25396   1.27964   1.33068   1.36129   1.37049
 Alpha virt. eigenvalues --    1.38344   1.42201   1.46845   1.49669   1.51108
 Alpha virt. eigenvalues --    1.54576   1.56233   1.59964   1.61413   1.63721
 Alpha virt. eigenvalues --    1.64537   1.65068   1.69608   1.74300   1.76698
 Alpha virt. eigenvalues --    1.78860   1.81560   1.85058   1.89349   1.91026
 Alpha virt. eigenvalues --    1.95002   1.99725   2.01590   2.02004   2.09182
 Alpha virt. eigenvalues --    2.10269   2.12376   2.17910   2.20375   2.24077
 Alpha virt. eigenvalues --    2.27214   2.36868   2.39131   2.46169   2.54557
 Alpha virt. eigenvalues --    2.58871   2.71360   2.82457   2.88338   2.99775
 Alpha virt. eigenvalues --    3.19107   3.34186   3.40039   3.47358   3.67110
 Alpha virt. eigenvalues --    3.72884   3.80708   3.81396   3.83886   3.85157
 Alpha virt. eigenvalues --    3.96146   4.01892   4.02851   4.09296   4.15185
          Condensed to atoms (all electrons):
 Mulliken charges:
               1
     1  O   -1.041734
     2  C   -0.145692
     3  C    0.946125
     4  C    0.048700
     5  C    0.668223
     6  O   -1.060392
     7  H    0.433366
     8  H    0.151404
 Sum of Mulliken charges =  -0.00000
 Mulliken charges with hydrogens summed into heavy atoms:
               1
     1  O   -0.608368
     2  C   -0.145692
     3  C    0.946125
     4  C    0.048700
     5  C    0.819627
     6  O   -1.060392
 Electronic spatial extent (au):  <R**2>=            838.3164
 Charge=             -0.0000 electrons
 Dipole moment (field-independent basis, Debye):
    X=              0.9287    Y=              2.3165    Z=              0.5011  Tot=              2.5455

 Test job not archived.
 1\1\GINC-SE141\SP\RHF\Aug-CC-pVDZ\C4H2O2\OHZDE\09-Apr-2025\0\\#t hf au
 g-cc-pvdz iop(5/13=1,5/36=2,99/5=2) pseudo=read geom=check guess=(read
 ,tcheck) scf=(maxcycle=1)\\title\\0,1\O,0,-2.92026905,-0.12338114,0.37
 517953\C,0,-1.79788904,-0.50821844,-0.20696194\C,0,-0.50913266,-0.0413
 9382,-0.0286654\C,0,0.71803205,0.14577944,-0.1266723\C,0,2.11934203,0.
 43656844,-0.11000687\O,0,2.90862737,-0.13364987,0.64050378\H,0,-2.9352
 342,-1.00695108,-0.44781419\H,0,2.4316185,1.22525548,-0.83143363\\Vers
 ion=ES64L-G16RevC.01\State=1-A\HF=-302.4318079\RMSD=2.439e-02\Dipole=-
 0.372617,0.3326352,-0.8680423\Quadrupole=-2.9828565,2.2847212,0.698135
 2,4.9235588,-1.5042898,-0.7441644\PG=C01 [X(C4H2O2)]\\@


 THE ATTENTION SPAN OF A COMPUTER IS AS LONG
 AS ITS EXTENSION CORD.
 Job cpu time:       0 days  0 hours  0 minutes 21.6 seconds.
 Elapsed time:       0 days  0 hours  0 minutes  2.3 seconds.
 File lengths (MBytes):  RWF=      6 Int=      0 D2E=      0 Chk=      4 Scr=      1
 Normal termination of Gaussian 16 at Wed Apr  9 15:43:37 2025.
