 Entering Gaussian System, Link 0=g16
 Input=Grambow2020_wb97xd3_009242_reverse_mol1.gjf
 Output=Grambow2020_wb97xd3_009242_reverse_mol1.log
 Initial command:
 /arc/software/Gaussian/g16.c01/l1.exe "/tmp/slurm/4870514/Gau-2996890.inp" -scrdir="/tmp/slurm/4870514/"
 Entering Link 1 = /arc/software/Gaussian/g16.c01/l1.exe PID=   2996893.
  
 Copyright (c) 1988-2019, Gaussian, Inc.  All Rights Reserved.
  
 This is part of the Gaussian(R) 16 program.  It is based on
 the Gaussian(R) 09 system (copyright 2009, Gaussian, Inc.),
 the Gaussian(R) 03 system (copyright 2003, Gaussian, Inc.),
 the Gaussian(R) 98 system (copyright 1998, Gaussian, Inc.),
 the Gaussian(R) 94 system (copyright 1995, Gaussian, Inc.),
 the Gaussian 92(TM) system (copyright 1992, Gaussian, Inc.),
 the Gaussian 90(TM) system (copyright 1990, Gaussian, Inc.),
 the Gaussian 88(TM) system (copyright 1988, Gaussian, Inc.),
 the Gaussian 86(TM) system (copyright 1986, Carnegie Mellon
 University), and the Gaussian 82(TM) system (copyright 1983,
 Carnegie Mellon University). Gaussian is a federally registered
 trademark of Gaussian, Inc.
  
 This software contains proprietary and confidential information,
 including trade secrets, belonging to Gaussian, Inc.
  
 This software is provided under written license and may be
 used, copied, transmitted, or stored only in accord with that
 written license.
  
 The following legend is applicable only to US Government
 contracts under FAR:
  
                    RESTRICTED RIGHTS LEGEND
  
 Use, reproduction and disclosure by the US Government is
 subject to restrictions as set forth in subparagraphs (a)
 and (c) of the Commercial Computer Software - Restricted
 Rights clause in FAR 52.227-19.
  
 Gaussian, Inc.
 340 Quinnipiac St., Bldg. 40, Wallingford CT 06492
  
  
 ---------------------------------------------------------------
 Warning -- This program may not be used in any manner that
 competes with the business of Gaussian, Inc. or will provide
 assistance to any competitor of Gaussian, Inc.  The licensee
 of this program is prohibited from giving any competitor of
 Gaussian, Inc. access to this program.  By using this program,
 the user acknowledges that Gaussian, Inc. is engaged in the
 business of creating and licensing software in the field of
 computational chemistry and represents and warrants to the
 licensee that it is not a competitor of Gaussian, Inc. and that
 it will not use this program in any manner prohibited above.
 ---------------------------------------------------------------
  

 Cite this work as:
 Gaussian 16, Revision C.01,
 M. J. Frisch, G. W. Trucks, H. B. Schlegel, G. E. Scuseria, 
 M. A. Robb, J. R. Cheeseman, G. Scalmani, V. Barone, 
 G. A. Petersson, H. Nakatsuji, X. Li, M. Caricato, A. V. Marenich, 
 J. Bloino, B. G. Janesko, R. Gomperts, B. Mennucci, H. P. Hratchian, 
 J. V. Ortiz, A. F. Izmaylov, J. L. Sonnenberg, D. Williams-Young, 
 F. Ding, F. Lipparini, F. Egidi, J. Goings, B. Peng, A. Petrone, 
 T. Henderson, D. Ranasinghe, V. G. Zakrzewski, J. Gao, N. Rega, 
 G. Zheng, W. Liang, M. Hada, M. Ehara, K. Toyota, R. Fukuda, 
 J. Hasegawa, M. Ishida, T. Nakajima, Y. Honda, O. Kitao, H. Nakai, 
 T. Vreven, K. Throssell, J. A. Montgomery, Jr., J. E. Peralta, 
 F. Ogliaro, M. J. Bearpark, J. J. Heyd, E. N. Brothers, K. N. Kudin, 
 V. N. Staroverov, T. A. Keith, R. Kobayashi, J. Normand, 
 K. Raghavachari, A. P. Rendell, J. C. Burant, S. S. Iyengar, 
 J. Tomasi, M. Cossi, J. M. Millam, M. Klene, C. Adamo, R. Cammi, 
 J. W. Ochterski, R. L. Martin, K. Morokuma, O. Farkas, 
 J. B. Foresman, and D. J. Fox, Gaussian, Inc., Wallingford CT, 2019.
 
 ******************************************
 Gaussian 16:  ES64L-G16RevC.01  3-Jul-2019
                 9-Apr-2025 
 ******************************************
 %nprocs=16
 Will use up to   16 processors via shared memory.
 %mem=30GB
 %chk=Grambow2020_wb97xd3_009242_reverse_mol1.chk
 ----------------------------------------------------------------------
 #t hf aug-cc-pvdz symm=none int=(grid=ultrafine) guess=(read,tcheck) s
 table=(opt,rrhf)
 ----------------------------------------------------------------------
 -----
 title
 -----
 Symbolic Z-matrix:
 Charge =  0 Multiplicity = 1
 C                    -1.17294  -1.17153   0.45848 
 C                    -0.34484  -0.34057  -0.4959 
 C                    -0.68494   1.45082   0.3745 
 O                    -1.54125   1.48831   1.20256 
 C                     0.90499   0.18106  -0.11399 
 O                     0.79908   1.09497   0.8046 
 N                     2.08477   0.0262   -0.71937 
 H                    -0.89631  -0.98857   1.49472 
 H                    -2.23086  -0.9172    0.36352 
 H                    -1.05287  -2.23782   0.25091 
 H                    -0.42449  -0.64313  -1.53962 
 H                    -0.52906   2.14534  -0.45478 
 H                     2.24711  -0.75672  -1.32363 
 H                     2.83819   0.65988  -0.5194 
 
                    Distance matrix (angstroms):
                    1          2          3          4          5
     1  C    0.000000
     2  C    1.512315   0.000000
     3  C    2.668687   2.020476   0.000000
     4  O    2.786402   2.767843   1.191785   0.000000
     5  C    2.544604   1.407132   2.092555   3.070227   0.000000
     6  O    3.024175   2.249577   1.585534   2.406285   1.300098
     7  N    3.665314   2.467275   3.301115   4.356553   1.335041
     8  H    1.088020   2.164855   2.692611   2.576084   2.683404
     9  H    1.092203   2.151324   2.827986   2.639325   3.356750
    10  H    1.092927   2.158386   3.709006   3.876624   3.133270
    11  H    2.198138   1.089609   2.848922   3.648259   2.116419
    12  H    3.500033   2.493062   1.092871   2.050118   2.455818
    13  H    3.878746   2.752541   4.043975   5.076749   2.035660
    14  H    4.516581   3.336638   3.719826   4.778173   2.032463
                    6          7          8          9         10
     6  O    0.000000
     7  N    2.262240   0.000000
     8  H    2.773392   3.849511   0.000000
     9  H    3.663865   4.548331   1.750931   0.000000
    10  H    3.852762   3.988988   1.769807   1.773245   0.000000
    11  H    3.164410   2.723452   3.090175   2.638191   2.478694
    12  H    2.110280   3.375334   3.709014   3.597899   4.470404
    13  H    3.170940   1.002220   4.228222   4.787943   3.944957
    14  H    2.469872   1.004586   4.551985   5.381643   4.912280
                   11         12         13         14
    11  H    0.000000
    12  H    2.993898   0.000000
    13  H    2.682715   4.109010   0.000000
    14  H    3.658388   3.680922   1.732897   0.000000
 Symmetry turned off by external request.
 Rotational constants (GHZ):           4.3215421           2.4256243           1.7394848
   224 basis functions,   378 primitive gaussians,   238 cartesian basis functions
    27 alpha electrons       27 beta electrons
       nuclear repulsion energy       311.7179098619 Hartrees.
 NAtoms=   14 NActive=   14 NUniq=   14 SFac= 1.00D+00 NAtFMM=   60 NAOKFM=F Big=F
 ExpMin= 2.97D-02 ExpMax= 1.17D+04 ExpMxC= 4.01D+02 IAcc=3 IRadAn=         5 AccDes= 0.00D+00
 Harris functional with IExCor=  205 and IRadAn=       5 diagonalized for initial guess.
 HarFok:  IExCor=  205 AccDes= 0.00D+00 IRadAn=         5 IDoV= 1 UseB2=F ITyADJ=14
 ICtDFT=  3500011 ScaDFX=  1.000000  1.000000  1.000000  1.000000
 FoFCou: FMM=F IPFlag=           0 FMFlag=      100000 FMFlg1=           0
         NFxFlg=           0 DoJE=T BraDBF=F KetDBF=T FulRan=T
         wScrn=  0.000000 ICntrl=       500 IOpCl=  0 I1Cent=   200000004 NGrid=           0
         NMat0=    1 NMatS0=      1 NMatT0=    0 NMatD0=    1 NMtDS0=    0 NMtDT0=    0
 Symmetry not used in FoFCou.
 SCF Done:  E(RHF) =  -359.679275400     A.U. after   15 cycles
            NFock= 15  Conv=0.62D-08     -V/T= 2.0012

 **********************************************************************

            Population analysis using the SCF Density.

 **********************************************************************

 Alpha  occ. eigenvalues --  -20.60919 -20.52699 -15.63412 -11.39360 -11.38746
 Alpha  occ. eigenvalues --  -11.22737 -11.22338  -1.46452  -1.37549  -1.26427
 Alpha  occ. eigenvalues --   -1.05460  -0.91771  -0.87461  -0.78858  -0.75772
 Alpha  occ. eigenvalues --   -0.71974  -0.67030  -0.64846  -0.60943  -0.58486
 Alpha  occ. eigenvalues --   -0.56087  -0.53134  -0.50497  -0.50264  -0.47622
 Alpha  occ. eigenvalues --   -0.42342  -0.31377
 Alpha virt. eigenvalues --    0.01832   0.03821   0.04450   0.05188   0.06543
 Alpha virt. eigenvalues --    0.07307   0.07734   0.10397   0.10605   0.11444
 Alpha virt. eigenvalues --    0.11916   0.13534   0.13986   0.14510   0.15270
 Alpha virt. eigenvalues --    0.15591   0.15876   0.16537   0.18126   0.18722
 Alpha virt. eigenvalues --    0.18966   0.20076   0.20510   0.21319   0.22363
 Alpha virt. eigenvalues --    0.23692   0.25164   0.26082   0.27762   0.28228
 Alpha virt. eigenvalues --    0.29401   0.31844   0.32921   0.33505   0.34454
 Alpha virt. eigenvalues --    0.35242   0.35865   0.36470   0.36930   0.37748
 Alpha virt. eigenvalues --    0.39280   0.39509   0.40509   0.41457   0.41610
 Alpha virt. eigenvalues --    0.44269   0.44549   0.45981   0.47091   0.47837
 Alpha virt. eigenvalues --    0.48912   0.49037   0.50101   0.51601   0.52645
 Alpha virt. eigenvalues --    0.54449   0.54709   0.55396   0.56851   0.57932
 Alpha virt. eigenvalues --    0.58980   0.59831   0.61590   0.62387   0.63584
 Alpha virt. eigenvalues --    0.64190   0.65188   0.65648   0.66403   0.69217
 Alpha virt. eigenvalues --    0.69625   0.70406   0.71575   0.71732   0.73015
 Alpha virt. eigenvalues --    0.74906   0.75610   0.78150   0.78626   0.80117
 Alpha virt. eigenvalues --    0.80631   0.81991   0.83722   0.84398   0.85577
 Alpha virt. eigenvalues --    0.86400   0.88116   0.90438   0.93875   0.94667
 Alpha virt. eigenvalues --    0.96009   0.96622   0.97260   1.00350   1.03257
 Alpha virt. eigenvalues --    1.04053   1.06205   1.09319   1.10112   1.12436
 Alpha virt. eigenvalues --    1.15579   1.17407   1.19238   1.20922   1.22862
 Alpha virt. eigenvalues --    1.25924   1.28401   1.31526   1.33977   1.35583
 Alpha virt. eigenvalues --    1.36585   1.38193   1.40946   1.43381   1.44707
 Alpha virt. eigenvalues --    1.49850   1.50725   1.53237   1.54716   1.58119
 Alpha virt. eigenvalues --    1.61036   1.61789   1.64673   1.68432   1.70222
 Alpha virt. eigenvalues --    1.72634   1.73365   1.76822   1.81890   1.84008
 Alpha virt. eigenvalues --    1.84662   1.89454   1.90328   1.91382   1.93871
 Alpha virt. eigenvalues --    1.95667   1.96834   1.97591   2.00843   2.01045
 Alpha virt. eigenvalues --    2.04682   2.06960   2.10355   2.14871   2.16640
 Alpha virt. eigenvalues --    2.18694   2.19444   2.22224   2.26038   2.27496
 Alpha virt. eigenvalues --    2.28789   2.30048   2.32312   2.35060   2.36618
 Alpha virt. eigenvalues --    2.39142   2.40773   2.42251   2.44194   2.46453
 Alpha virt. eigenvalues --    2.47666   2.51988   2.55279   2.58583   2.59181
 Alpha virt. eigenvalues --    2.63372   2.69563   2.72500   2.74590   2.77372
 Alpha virt. eigenvalues --    2.80419   2.85094   2.87737   2.90785   2.93323
 Alpha virt. eigenvalues --    2.94173   3.00572   3.09465   3.12226   3.15015
 Alpha virt. eigenvalues --    3.24807   3.32376   3.38751   3.40878   3.52168
 Alpha virt. eigenvalues --    3.63107   3.78875   3.79501   3.84871   3.85686
 Alpha virt. eigenvalues --    3.89483   3.92728   3.93162   4.06497   4.13175
 Alpha virt. eigenvalues --    4.16584   4.25915
          Condensed to atoms (all electrons):
 Mulliken charges:
               1
     1  C    0.508413
     2  C   -0.066933
     3  C    1.182924
     4  O   -0.738574
     5  C    1.130493
     6  O   -0.996851
     7  N   -0.205955
     8  H   -0.136198
     9  H   -0.021458
    10  H   -0.057878
    11  H   -0.415825
    12  H   -0.133098
    13  H   -0.020303
    14  H   -0.028758
 Sum of Mulliken charges =  -0.00000
 Mulliken charges with hydrogens summed into heavy atoms:
               1
     1  C    0.292880
     2  C   -0.482758
     3  C    1.049826
     4  O   -0.738574
     5  C    1.130493
     6  O   -0.996851
     7  N   -0.255016
 Electronic spatial extent (au):  <R**2>=            753.7399
 Charge=             -0.0000 electrons
 Dipole moment (field-independent basis, Debye):
    X=              4.7111    Y=             -2.0753    Z=             -4.2420  Tot=              6.6706
 NROrb=    224 NOA=    27 NOB=    27 NVA=   197 NVB=   197

 **** Warning!!: The largest alpha MO coefficient is  0.54119491D+02

    12 initial guesses have been made.
 Iteration     1 Dimension    12 NMult     0 NNew     12
 New state      1 was old state      2
 Iteration     2 Dimension    24 NMult    12 NNew     12
 New state      1 was old state      2
 Iteration     3 Dimension    27 NMult    24 NNew      3
 Iteration     4 Dimension    30 NMult    27 NNew      3
 Iteration     5 Dimension    33 NMult    30 NNew      3
 Iteration     6 Dimension    36 NMult    33 NNew      3
 Iteration     7 Dimension    39 NMult    36 NNew      3
 ***********************************************************************
 Stability analysis using <AA,BB:AA,BB> singles matrix:
 ***********************************************************************
 Ground to excited state transition densities written to RWF  633

 Eigenvectors of the stability matrix:
 
 Excited state symmetry could not be determined.
 Eigenvector   1:      Singlet-?Sym  Eigenvalue= 0.1804212  <S**2>=0.000
      27 -> 28        -0.15146
      27 -> 29         0.14496
      27 -> 32         0.11844
      27 -> 36        -0.10214
      27 -> 37         0.27518
      27 -> 38         0.43983
      27 -> 39        -0.21313
      27 -> 46        -0.10360
 The wavefunction is stable under the perturbations considered.
 The wavefunction is already stable.

 **********************************************************************

            Population analysis using the SCF Density.

 **********************************************************************

 Alpha  occ. eigenvalues --  -20.60919 -20.52699 -15.63412 -11.39360 -11.38746
 Alpha  occ. eigenvalues --  -11.22737 -11.22338  -1.46452  -1.37549  -1.26427
 Alpha  occ. eigenvalues --   -1.05460  -0.91771  -0.87461  -0.78858  -0.75772
 Alpha  occ. eigenvalues --   -0.71974  -0.67030  -0.64846  -0.60943  -0.58486
 Alpha  occ. eigenvalues --   -0.56087  -0.53134  -0.50497  -0.50264  -0.47622
 Alpha  occ. eigenvalues --   -0.42342  -0.31377
 Alpha virt. eigenvalues --    0.01832   0.03821   0.04450   0.05188   0.06543
 Alpha virt. eigenvalues --    0.07307   0.07734   0.10397   0.10605   0.11444
 Alpha virt. eigenvalues --    0.11916   0.13534   0.13986   0.14510   0.15270
 Alpha virt. eigenvalues --    0.15591   0.15876   0.16537   0.18126   0.18722
 Alpha virt. eigenvalues --    0.18966   0.20076   0.20510   0.21319   0.22363
 Alpha virt. eigenvalues --    0.23692   0.25164   0.26082   0.27762   0.28228
 Alpha virt. eigenvalues --    0.29401   0.31844   0.32921   0.33505   0.34454
 Alpha virt. eigenvalues --    0.35242   0.35865   0.36470   0.36930   0.37748
 Alpha virt. eigenvalues --    0.39280   0.39509   0.40509   0.41457   0.41610
 Alpha virt. eigenvalues --    0.44269   0.44549   0.45981   0.47091   0.47837
 Alpha virt. eigenvalues --    0.48912   0.49037   0.50101   0.51601   0.52645
 Alpha virt. eigenvalues --    0.54449   0.54709   0.55396   0.56851   0.57932
 Alpha virt. eigenvalues --    0.58980   0.59831   0.61590   0.62387   0.63584
 Alpha virt. eigenvalues --    0.64190   0.65188   0.65648   0.66403   0.69217
 Alpha virt. eigenvalues --    0.69625   0.70406   0.71575   0.71732   0.73015
 Alpha virt. eigenvalues --    0.74906   0.75610   0.78150   0.78626   0.80117
 Alpha virt. eigenvalues --    0.80631   0.81991   0.83722   0.84398   0.85577
 Alpha virt. eigenvalues --    0.86400   0.88116   0.90438   0.93875   0.94667
 Alpha virt. eigenvalues --    0.96009   0.96622   0.97260   1.00350   1.03257
 Alpha virt. eigenvalues --    1.04053   1.06205   1.09319   1.10112   1.12436
 Alpha virt. eigenvalues --    1.15579   1.17407   1.19238   1.20922   1.22862
 Alpha virt. eigenvalues --    1.25924   1.28401   1.31526   1.33977   1.35583
 Alpha virt. eigenvalues --    1.36585   1.38193   1.40946   1.43381   1.44707
 Alpha virt. eigenvalues --    1.49850   1.50725   1.53237   1.54716   1.58119
 Alpha virt. eigenvalues --    1.61036   1.61789   1.64673   1.68432   1.70222
 Alpha virt. eigenvalues --    1.72634   1.73365   1.76822   1.81890   1.84008
 Alpha virt. eigenvalues --    1.84662   1.89454   1.90328   1.91382   1.93871
 Alpha virt. eigenvalues --    1.95667   1.96834   1.97591   2.00843   2.01045
 Alpha virt. eigenvalues --    2.04682   2.06960   2.10355   2.14871   2.16640
 Alpha virt. eigenvalues --    2.18694   2.19444   2.22224   2.26038   2.27496
 Alpha virt. eigenvalues --    2.28789   2.30048   2.32312   2.35060   2.36618
 Alpha virt. eigenvalues --    2.39142   2.40773   2.42251   2.44194   2.46453
 Alpha virt. eigenvalues --    2.47666   2.51988   2.55279   2.58583   2.59181
 Alpha virt. eigenvalues --    2.63372   2.69563   2.72500   2.74590   2.77372
 Alpha virt. eigenvalues --    2.80419   2.85094   2.87737   2.90785   2.93323
 Alpha virt. eigenvalues --    2.94173   3.00572   3.09465   3.12226   3.15015
 Alpha virt. eigenvalues --    3.24807   3.32376   3.38751   3.40878   3.52168
 Alpha virt. eigenvalues --    3.63107   3.78875   3.79501   3.84871   3.85686
 Alpha virt. eigenvalues --    3.89483   3.92728   3.93162   4.06497   4.13175
 Alpha virt. eigenvalues --    4.16584   4.25915
          Condensed to atoms (all electrons):
 Mulliken charges:
               1
     1  C    0.508413
     2  C   -0.066933
     3  C    1.182924
     4  O   -0.738574
     5  C    1.130493
     6  O   -0.996851
     7  N   -0.205955
     8  H   -0.136198
     9  H   -0.021458
    10  H   -0.057878
    11  H   -0.415825
    12  H   -0.133098
    13  H   -0.020303
    14  H   -0.028758
 Sum of Mulliken charges =  -0.00000
 Mulliken charges with hydrogens summed into heavy atoms:
               1
     1  C    0.292880
     2  C   -0.482758
     3  C    1.049826
     4  O   -0.738574
     5  C    1.130493
     6  O   -0.996851
     7  N   -0.255016
 Electronic spatial extent (au):  <R**2>=            753.7399
 Charge=             -0.0000 electrons
 Dipole moment (field-independent basis, Debye):
    X=              4.7111    Y=             -2.0753    Z=             -4.2420  Tot=              6.6706
 Unable to Open any file for archive entry.
 1\1\GINC-SE338\Stability\RHF\Aug-CC-pVDZ\C4H7N1O2\OHZDE\09-Apr-2025\0\
 \#t hf aug-cc-pvdz symm=none int=(grid=ultrafine) guess=(read,tcheck) 
 stable=(opt,rrhf)\\title\\0,1\C,0,-1.17293721,-1.17152812,0.45848299\C
 ,0,-0.34483831,-0.34056569,-0.49590121\C,0,-0.68493795,1.45081667,0.37
 450481\O,0,-1.54124509,1.48830759,1.20256461\C,0,0.90499105,0.18106,-0
 .11399319\O,0,0.79907875,1.09496513,0.8046002\N,0,2.08476871,0.0262000
 5,-0.71936601\H,0,-0.8963056,-0.98856712,1.49472051\H,0,-2.23086276,-0
 .91719932,0.36351696\H,0,-1.05287056,-2.23782485,0.25091192\H,0,-0.424
 48602,-0.6431345,-1.53962394\H,0,-0.52906331,2.14534051,-0.45477664\H,
 0,2.2471054,-0.75671899,-1.32362517\H,0,2.83819491,0.65988463,-0.51939
 983\\Version=ES64L-G16RevC.01\HF=-359.6792754\RMSD=6.236e-09\Dipole=1.
 8535017,-0.816492,-1.6689458\Quadrupole=2.7514773,-0.5946834,-2.156794
 ,2.2768769,-0.1349706,-2.9505233\PG=Unknown\\@
 The archive entry for this job was punched.


 EVERY WORD THAT YOU WRITE IS A BLOW THAT SMITES THE DEVIL.
     -- ST. BERNARD OF CLAIRVAUX
 Job cpu time:       0 days  0 hours  6 minutes 56.5 seconds.
 Elapsed time:       0 days  0 hours  0 minutes 29.4 seconds.
 File lengths (MBytes):  RWF=    239 Int=      0 D2E=      0 Chk=      7 Scr=      1
 Normal termination of Gaussian 16 at Wed Apr  9 04:05:45 2025.
 Initial command:
 /arc/software/Gaussian/g16.c01/l1.exe "/tmp/slurm/4870514/Gau-2996890.inp" -scrdir="/tmp/slurm/4870514/"
 Entering Link 1 = /arc/software/Gaussian/g16.c01/l1.exe PID=   2997320.
  
 Copyright (c) 1988-2019, Gaussian, Inc.  All Rights Reserved.
  
 This is part of the Gaussian(R) 16 program.  It is based on
 the Gaussian(R) 09 system (copyright 2009, Gaussian, Inc.),
 the Gaussian(R) 03 system (copyright 2003, Gaussian, Inc.),
 the Gaussian(R) 98 system (copyright 1998, Gaussian, Inc.),
 the Gaussian(R) 94 system (copyright 1995, Gaussian, Inc.),
 the Gaussian 92(TM) system (copyright 1992, Gaussian, Inc.),
 the Gaussian 90(TM) system (copyright 1990, Gaussian, Inc.),
 the Gaussian 88(TM) system (copyright 1988, Gaussian, Inc.),
 the Gaussian 86(TM) system (copyright 1986, Carnegie Mellon
 University), and the Gaussian 82(TM) system (copyright 1983,
 Carnegie Mellon University). Gaussian is a federally registered
 trademark of Gaussian, Inc.
  
 This software contains proprietary and confidential information,
 including trade secrets, belonging to Gaussian, Inc.
  
 This software is provided under written license and may be
 used, copied, transmitted, or stored only in accord with that
 written license.
  
 The following legend is applicable only to US Government
 contracts under FAR:
  
                    RESTRICTED RIGHTS LEGEND
  
 Use, reproduction and disclosure by the US Government is
 subject to restrictions as set forth in subparagraphs (a)
 and (c) of the Commercial Computer Software - Restricted
 Rights clause in FAR 52.227-19.
  
 Gaussian, Inc.
 340 Quinnipiac St., Bldg. 40, Wallingford CT 06492
  
  
 ---------------------------------------------------------------
 Warning -- This program may not be used in any manner that
 competes with the business of Gaussian, Inc. or will provide
 assistance to any competitor of Gaussian, Inc.  The licensee
 of this program is prohibited from giving any competitor of
 Gaussian, Inc. access to this program.  By using this program,
 the user acknowledges that Gaussian, Inc. is engaged in the
 business of creating and licensing software in the field of
 computational chemistry and represents and warrants to the
 licensee that it is not a competitor of Gaussian, Inc. and that
 it will not use this program in any manner prohibited above.
 ---------------------------------------------------------------
  

 Cite this work as:
 Gaussian 16, Revision C.01,
 M. J. Frisch, G. W. Trucks, H. B. Schlegel, G. E. Scuseria, 
 M. A. Robb, J. R. Cheeseman, G. Scalmani, V. Barone, 
 G. A. Petersson, H. Nakatsuji, X. Li, M. Caricato, A. V. Marenich, 
 J. Bloino, B. G. Janesko, R. Gomperts, B. Mennucci, H. P. Hratchian, 
 J. V. Ortiz, A. F. Izmaylov, J. L. Sonnenberg, D. Williams-Young, 
 F. Ding, F. Lipparini, F. Egidi, J. Goings, B. Peng, A. Petrone, 
 T. Henderson, D. Ranasinghe, V. G. Zakrzewski, J. Gao, N. Rega, 
 G. Zheng, W. Liang, M. Hada, M. Ehara, K. Toyota, R. Fukuda, 
 J. Hasegawa, M. Ishida, T. Nakajima, Y. Honda, O. Kitao, H. Nakai, 
 T. Vreven, K. Throssell, J. A. Montgomery, Jr., J. E. Peralta, 
 F. Ogliaro, M. J. Bearpark, J. J. Heyd, E. N. Brothers, K. N. Kudin, 
 V. N. Staroverov, T. A. Keith, R. Kobayashi, J. Normand, 
 K. Raghavachari, A. P. Rendell, J. C. Burant, S. S. Iyengar, 
 J. Tomasi, M. Cossi, J. M. Millam, M. Klene, C. Adamo, R. Cammi, 
 J. W. Ochterski, R. L. Martin, K. Morokuma, O. Farkas, 
 J. B. Foresman, and D. J. Fox, Gaussian, Inc., Wallingford CT, 2019.
 
 ******************************************
 Gaussian 16:  ES64L-G16RevC.01  3-Jul-2019
                 9-Apr-2025 
 ******************************************
 %nprocs=16
 Will use up to   16 processors via shared memory.
 %mem=30GB
 %chk=Grambow2020_wb97xd3_009242_reverse_mol1.chk
 ----------------------------------------------------------------------
 #t hf aug-cc-pvdz iop(5/13=1,5/36=2,99/5=2) pseudo=read geom=check gue
 ss=(read,tcheck) scf=(maxcycle=1)
 ----------------------------------------------------------------------
 -----
 title
 -----
 Structure from the checkpoint file:  "Grambow2020_wb97xd3_009242_reverse_mol1.chk"
 Charge =  0 Multiplicity = 1
 Z-Matrix found in chk file.
 C,0,-1.17293721,-1.17152812,0.45848299
 C,0,-0.34483831,-0.34056569,-0.49590121
 C,0,-0.68493795,1.45081667,0.37450481
 O,0,-1.54124509,1.48830759,1.20256461
 C,0,0.90499105,0.18106,-0.11399319
 O,0,0.79907875,1.09496513,0.8046002
 N,0,2.08476871,0.02620005,-0.71936601
 H,0,-0.8963056,-0.98856712,1.49472051
 H,0,-2.23086276,-0.91719932,0.36351696
 H,0,-1.05287056,-2.23782485,0.25091192
 H,0,-0.42448602,-0.6431345,-1.53962394
 H,0,-0.52906331,2.14534051,-0.45477664
 H,0,2.2471054,-0.75671899,-1.32362517
 H,0,2.83819491,0.65988463,-0.51939983
 Recover connectivity data from disk.
                    Distance matrix (angstroms):
                    1          2          3          4          5
     1  C    0.000000
     2  C    1.512315   0.000000
     3  C    2.668687   2.020476   0.000000
     4  O    2.786402   2.767843   1.191785   0.000000
     5  C    2.544604   1.407132   2.092555   3.070227   0.000000
     6  O    3.024175   2.249577   1.585534   2.406285   1.300098
     7  N    3.665314   2.467275   3.301115   4.356553   1.335041
     8  H    1.088020   2.164855   2.692611   2.576084   2.683404
     9  H    1.092203   2.151324   2.827986   2.639325   3.356750
    10  H    1.092927   2.158386   3.709006   3.876624   3.133270
    11  H    2.198138   1.089609   2.848922   3.648259   2.116419
    12  H    3.500033   2.493062   1.092871   2.050118   2.455818
    13  H    3.878746   2.752541   4.043975   5.076749   2.035660
    14  H    4.516581   3.336638   3.719826   4.778173   2.032463
                    6          7          8          9         10
     6  O    0.000000
     7  N    2.262240   0.000000
     8  H    2.773392   3.849511   0.000000
     9  H    3.663865   4.548331   1.750931   0.000000
    10  H    3.852762   3.988988   1.769807   1.773245   0.000000
    11  H    3.164410   2.723452   3.090175   2.638191   2.478694
    12  H    2.110280   3.375334   3.709014   3.597899   4.470404
    13  H    3.170940   1.002220   4.228222   4.787943   3.944957
    14  H    2.469872   1.004586   4.551985   5.381643   4.912280
                   11         12         13         14
    11  H    0.000000
    12  H    2.993898   0.000000
    13  H    2.682715   4.109010   0.000000
    14  H    3.658388   3.680922   1.732897   0.000000
 Framework group  C1[X(C4H7NO2)]
 Deg. of freedom    36
                         Standard orientation:                         
 ---------------------------------------------------------------------
 Center     Atomic      Atomic             Coordinates (Angstroms)
 Number     Number       Type             X           Y           Z
 ---------------------------------------------------------------------
      1          6           0       -0.898819    1.696011   -0.326968
      2          6           0        0.076349    0.902721    0.513766
      3          6           0       -0.899054   -0.864498    0.425149
      4          8           0       -2.005779   -0.842148   -0.016451
      5          6           0        0.954283   -0.028880   -0.070505
      6          8           0        0.328438   -1.058144   -0.559575
      7          7           0        2.284378   -0.085827    0.029179
      8          1           0       -1.095750    1.209905   -1.280229
      9          1           0       -1.858291    1.785172    0.187203
     10          1           0       -0.515996    2.700761   -0.522965
     11          1           0        0.474977    1.445178    1.370553
     12          1           0       -0.553707   -1.366189    1.332569
     13          1           0        2.812158    0.733662    0.262271
     14          1           0        2.768139   -0.937480   -0.194104
 ---------------------------------------------------------------------
 Rotational constants (GHZ):           4.3215421           2.4256243           1.7394848
 ======================================================================================================
                                       Pseudopotential Parameters
 ======================================================================================================
  Center     Atomic      Valence      Angular      Power
  Number     Number     Electrons     Momentum     of R      Exponent        Coefficient   SO-Coeffient
 ======================================================================================================
    1          6            6
                                      G and up 
                                                     0        0.0000010       -0.00007288    0.00000000
                                                     2        0.1200000        0.10466671    0.00000000
                                                     2        0.1400000       -0.65716157    0.00000000
                                                     2        0.1600000        1.18890794    0.00000000
                                                     2        0.2000000       -1.25772850    0.00000000
                                                     2        0.2600000        1.01188378    0.00000000
                                                     2        0.4000000       -1.09380874    0.00000000
                                                     2        0.5000000        0.96944888    0.00000000
                                                     2        1.0000000       -0.79256938    0.00000000
                                                     2        3.0000000        1.06443276    0.00000000
                                      S - G
                                                     0        0.0000010       -0.00635295    0.00000000
                                                     2        0.1200000        0.16918955    0.00000000
                                                     2        0.1600000       -0.38862576    0.00000000
                                                     2        0.2800000        0.25638263    0.00000000
                                                     2        0.5000000        0.29628419    0.00000000
                                                     2        0.9000000       -0.28791512    0.00000000
                                      P - G
                                                     0        0.0000010       -0.04756931    0.00000000
                                                     2        0.1200000        0.28430375    0.00000000
                                                     2        0.1600000       -0.69640032    0.00000000
                                                     2        0.2600000        1.13005668    0.00000000
                                                     2        0.4000000       -1.31433324    0.00000000
                                                     2        0.7000000        0.91526469    0.00000000
                                      D - G
                                                     0        0.0000010       -0.11496411    0.00000000
                                                     2        0.1200000        0.16620776    0.00000000
                                                     2        0.1800000       -0.30959819    0.00000000
                                                     2        0.3000000        0.16621458    0.00000000
                                                     2        0.6000000        0.27350556    0.00000000
                                      F - G
                                                     0        0.0000010        0.12037550    0.00000000
                                                     2        0.1200000       -0.48737077    0.00000000
                                                     2        0.1400000        0.58315350    0.00000000
                                                     2        0.3000000        0.00005188    0.00000000
                                                     2        0.5000000       -1.16063549    0.00000000
                                                     2        0.8000000        2.09053308    0.00000000
    2          6            6
                                      G and up 
                                                     0        0.0000010       -0.00007288    0.00000000
                                                     2        0.1200000        0.10466671    0.00000000
                                                     2        0.1400000       -0.65716157    0.00000000
                                                     2        0.1600000        1.18890794    0.00000000
                                                     2        0.2000000       -1.25772850    0.00000000
                                                     2        0.2600000        1.01188378    0.00000000
                                                     2        0.4000000       -1.09380874    0.00000000
                                                     2        0.5000000        0.96944888    0.00000000
                                                     2        1.0000000       -0.79256938    0.00000000
                                                     2        3.0000000        1.06443276    0.00000000
                                      S - G
                                                     0        0.0000010       -0.00635295    0.00000000
                                                     2        0.1200000        0.16918955    0.00000000
                                                     2        0.1600000       -0.38862576    0.00000000
                                                     2        0.2800000        0.25638263    0.00000000
                                                     2        0.5000000        0.29628419    0.00000000
                                                     2        0.9000000       -0.28791512    0.00000000
                                      P - G
                                                     0        0.0000010       -0.04756931    0.00000000
                                                     2        0.1200000        0.28430375    0.00000000
                                                     2        0.1600000       -0.69640032    0.00000000
                                                     2        0.2600000        1.13005668    0.00000000
                                                     2        0.4000000       -1.31433324    0.00000000
                                                     2        0.7000000        0.91526469    0.00000000
                                      D - G
                                                     0        0.0000010       -0.11496411    0.00000000
                                                     2        0.1200000        0.16620776    0.00000000
                                                     2        0.1800000       -0.30959819    0.00000000
                                                     2        0.3000000        0.16621458    0.00000000
                                                     2        0.6000000        0.27350556    0.00000000
                                      F - G
                                                     0        0.0000010        0.12037550    0.00000000
                                                     2        0.1200000       -0.48737077    0.00000000
                                                     2        0.1400000        0.58315350    0.00000000
                                                     2        0.3000000        0.00005188    0.00000000
                                                     2        0.5000000       -1.16063549    0.00000000
                                                     2        0.8000000        2.09053308    0.00000000
    3          6            6
                                      G and up 
                                                     0        0.0000010       -0.00007288    0.00000000
                                                     2        0.1200000        0.10466671    0.00000000
                                                     2        0.1400000       -0.65716157    0.00000000
                                                     2        0.1600000        1.18890794    0.00000000
                                                     2        0.2000000       -1.25772850    0.00000000
                                                     2        0.2600000        1.01188378    0.00000000
                                                     2        0.4000000       -1.09380874    0.00000000
                                                     2        0.5000000        0.96944888    0.00000000
                                                     2        1.0000000       -0.79256938    0.00000000
                                                     2        3.0000000        1.06443276    0.00000000
                                      S - G
                                                     0        0.0000010       -0.00635295    0.00000000
                                                     2        0.1200000        0.16918955    0.00000000
                                                     2        0.1600000       -0.38862576    0.00000000
                                                     2        0.2800000        0.25638263    0.00000000
                                                     2        0.5000000        0.29628419    0.00000000
                                                     2        0.9000000       -0.28791512    0.00000000
                                      P - G
                                                     0        0.0000010       -0.04756931    0.00000000
                                                     2        0.1200000        0.28430375    0.00000000
                                                     2        0.1600000       -0.69640032    0.00000000
                                                     2        0.2600000        1.13005668    0.00000000
                                                     2        0.4000000       -1.31433324    0.00000000
                                                     2        0.7000000        0.91526469    0.00000000
                                      D - G
                                                     0        0.0000010       -0.11496411    0.00000000
                                                     2        0.1200000        0.16620776    0.00000000
                                                     2        0.1800000       -0.30959819    0.00000000
                                                     2        0.3000000        0.16621458    0.00000000
                                                     2        0.6000000        0.27350556    0.00000000
                                      F - G
                                                     0        0.0000010        0.12037550    0.00000000
                                                     2        0.1200000       -0.48737077    0.00000000
                                                     2        0.1400000        0.58315350    0.00000000
                                                     2        0.3000000        0.00005188    0.00000000
                                                     2        0.5000000       -1.16063549    0.00000000
                                                     2        0.8000000        2.09053308    0.00000000
    4          8            8
                                      G and up 
                                                     0        0.0000010        0.00049668    0.00000000
                                                     2        0.1200000       -0.01803391    0.00000000
                                                     2        0.1400000        0.04014195    0.00000000
                                                     2        0.2000000       -0.02692147    0.00000000
                                                     2        0.2800000       -0.04241843    0.00000000
                                                     2        0.4000000        0.15412145    0.00000000
                                                     2        0.7000000       -0.40587006    0.00000000
                                                     2        1.1000000        1.75666647    0.00000000
                                      S - G
                                                     0        0.0000010       -0.01088195    0.00000000
                                                     2        0.1200000        0.09867335    0.00000000
                                                     2        0.2400000       -0.08484177    0.00000000
                                                     2        0.6000000       -1.39011554    0.00000000
                                                     2        2.5000000        1.36225910    0.00000000
                                      P - G
                                                     0        0.0000010        0.05874028    0.00000000
                                                     2        0.1200000       -0.11700340    0.00000000
                                                     2        0.1600000        0.08847775    0.00000000
                                                     2        0.3000000        0.04709907    0.00000000
                                                     2        1.2000000       -1.80388338    0.00000000
                                      D - G
                                                     0        0.0000010       -0.00541262    0.00000000
                                                     2        0.1200000       -0.26547906    0.00000000
                                                     2        0.1600000        1.04289661    0.00000000
                                                     2        0.2400000       -1.92800913    0.00000000
                                                     2        0.4000000        2.26691633    0.00000000
                                                     2        0.7000000       -1.97391482    0.00000000
                                      F - G
                                                     0        0.0000010       -0.02604870    0.00000000
                                                     2        0.1200000        0.37362552    0.00000000
                                                     2        0.1600000       -1.43526367    0.00000000
                                                     2        0.2200000        1.76778079    0.00000000
                                                     2        0.5000000       -1.90846303    0.00000000
    5          6            6
                                      G and up 
                                                     0        0.0000010       -0.00007288    0.00000000
                                                     2        0.1200000        0.10466671    0.00000000
                                                     2        0.1400000       -0.65716157    0.00000000
                                                     2        0.1600000        1.18890794    0.00000000
                                                     2        0.2000000       -1.25772850    0.00000000
                                                     2        0.2600000        1.01188378    0.00000000
                                                     2        0.4000000       -1.09380874    0.00000000
                                                     2        0.5000000        0.96944888    0.00000000
                                                     2        1.0000000       -0.79256938    0.00000000
                                                     2        3.0000000        1.06443276    0.00000000
                                      S - G
                                                     0        0.0000010       -0.00635295    0.00000000
                                                     2        0.1200000        0.16918955    0.00000000
                                                     2        0.1600000       -0.38862576    0.00000000
                                                     2        0.2800000        0.25638263    0.00000000
                                                     2        0.5000000        0.29628419    0.00000000
                                                     2        0.9000000       -0.28791512    0.00000000
                                      P - G
                                                     0        0.0000010       -0.04756931    0.00000000
                                                     2        0.1200000        0.28430375    0.00000000
                                                     2        0.1600000       -0.69640032    0.00000000
                                                     2        0.2600000        1.13005668    0.00000000
                                                     2        0.4000000       -1.31433324    0.00000000
                                                     2        0.7000000        0.91526469    0.00000000
                                      D - G
                                                     0        0.0000010       -0.11496411    0.00000000
                                                     2        0.1200000        0.16620776    0.00000000
                                                     2        0.1800000       -0.30959819    0.00000000
                                                     2        0.3000000        0.16621458    0.00000000
                                                     2        0.6000000        0.27350556    0.00000000
                                      F - G
                                                     0        0.0000010        0.12037550    0.00000000
                                                     2        0.1200000       -0.48737077    0.00000000
                                                     2        0.1400000        0.58315350    0.00000000
                                                     2        0.3000000        0.00005188    0.00000000
                                                     2        0.5000000       -1.16063549    0.00000000
                                                     2        0.8000000        2.09053308    0.00000000
    6          8            8
                                      G and up 
                                                     0        0.0000010        0.00049668    0.00000000
                                                     2        0.1200000       -0.01803391    0.00000000
                                                     2        0.1400000        0.04014195    0.00000000
                                                     2        0.2000000       -0.02692147    0.00000000
                                                     2        0.2800000       -0.04241843    0.00000000
                                                     2        0.4000000        0.15412145    0.00000000
                                                     2        0.7000000       -0.40587006    0.00000000
                                                     2        1.1000000        1.75666647    0.00000000
                                      S - G
                                                     0        0.0000010       -0.01088195    0.00000000
                                                     2        0.1200000        0.09867335    0.00000000
                                                     2        0.2400000       -0.08484177    0.00000000
                                                     2        0.6000000       -1.39011554    0.00000000
                                                     2        2.5000000        1.36225910    0.00000000
                                      P - G
                                                     0        0.0000010        0.05874028    0.00000000
                                                     2        0.1200000       -0.11700340    0.00000000
                                                     2        0.1600000        0.08847775    0.00000000
                                                     2        0.3000000        0.04709907    0.00000000
                                                     2        1.2000000       -1.80388338    0.00000000
                                      D - G
                                                     0        0.0000010       -0.00541262    0.00000000
                                                     2        0.1200000       -0.26547906    0.00000000
                                                     2        0.1600000        1.04289661    0.00000000
                                                     2        0.2400000       -1.92800913    0.00000000
                                                     2        0.4000000        2.26691633    0.00000000
                                                     2        0.7000000       -1.97391482    0.00000000
                                      F - G
                                                     0        0.0000010       -0.02604870    0.00000000
                                                     2        0.1200000        0.37362552    0.00000000
                                                     2        0.1600000       -1.43526367    0.00000000
                                                     2        0.2200000        1.76778079    0.00000000
                                                     2        0.5000000       -1.90846303    0.00000000
    7          7            7
                                      G and up 
                                                     0        0.0000010       -0.00039818    0.00000000
                                                     2        0.1200000       -0.37616123    0.00000000
                                                     2        0.1400000        2.13837358    0.00000000
                                                     2        0.1600000       -3.36562035    0.00000000
                                                     2        0.2000000        2.53463289    0.00000000
                                                     2        0.3000000       -1.98118833    0.00000000
                                                     2        0.5000000        4.06642919    0.00000000
                                                     2        0.7000000       -6.15327959    0.00000000
                                                     2        1.2000000       10.22492851    0.00000000
                                                     2        2.0000000      -14.94707511    0.00000000
                                      S - G
                                                     0        0.0000010        0.02721443    0.00000000
                                                     2        0.1200000       -0.60186009    0.00000000
                                                     2        0.1600000        1.10088134    0.00000000
                                                     2        0.2600000       -0.59857981    0.00000000
                                                     2        0.6000000        0.21288222    0.00000000
                                                     2        3.0000000        5.09059205    0.00000000
                                      P - G
                                                     0        0.0000010        0.40558062    0.00000000
                                                     2        0.1200000        0.81809854    0.00000000
                                                     2        0.1600000       -2.44952728    0.00000000
                                                     2        0.2800000        4.16638749    0.00000000
                                                     2        0.5000000       -6.02944147    0.00000000
                                                     2        1.1000000        5.78262914    0.00000000
                                      D - G
                                                     0        0.0000010       -0.62770267    0.00000000
                                                     2        0.1600000        0.91438653    0.00000000
                                                     2        0.2600000       -2.00568466    0.00000000
                                                     2        0.5000000        3.30798839    0.00000000
                                                     2        1.1000000       -3.91526108    0.00000000
                                      F - G
                                                     0        0.0000010        0.29726344    0.00000000
                                                     2        0.1200000       -0.41591527    0.00000000
                                                     2        0.1600000        0.51444439    0.00000000
                                                     2        0.4000000       -0.69401726    0.00000000
                                                     2        0.7000000        0.51478123    0.00000000
    8          1            1
                                      F and up 
                                                     0        0.0000010       -0.00007675    0.00000000
                                                     2        0.1200000        0.05352699    0.00000000
                                                     2        0.1400000       -0.25123645    0.00000000
                                                     2        0.1600000        0.32188106    0.00000000
                                                     2        0.2200000       -0.25206857    0.00000000
                                                     2        0.3000000        0.19290477    0.00000000
                                                     2        0.5000000       -0.10129770    0.00000000
                                                     2        0.9000000        0.00314995    0.00000000
                                                     2        1.5000000        0.18401192    0.00000000
                                      S - F
                                                     0        0.0000010        0.08065976    0.00000000
                                                     2        0.1200000       -0.09231673    0.00000000
                                                     2        0.1600000       -0.03278082    0.00000000
                                                     2        0.2800000        0.38423402    0.00000000
                                                     2        0.6000000       -1.09357590    0.00000000
                                                     2        1.1000000        1.53099489    0.00000000
                                                     2        3.0000000       -2.63300202    0.00000000
                                      P - F
                                                     0        0.0000010       -0.11638665    0.00000000
                                                     2        0.1200000        0.35468655    0.00000000
                                                     2        0.1600000       -0.59160923    0.00000000
                                                     2        0.3000000        0.49390547    0.00000000
                                                     2        0.6000000       -0.37949835    0.00000000
                                                     2        1.6000000        0.89304688    0.00000000
                                      D - F
                                                     0        0.0000010        0.05443663    0.00000000
                                                     2        0.1200000       -0.29679479    0.00000000
                                                     2        0.1400000        0.36849872    0.00000000
                                                     2        0.2400000        0.02793449    0.00000000
                                                     2        0.4000000       -0.46312857    0.00000000
                                                     2        0.7000000        0.97587598    0.00000000
                                                     2        1.5000000       -2.43431102    0.00000000
    9          1            1
                                      F and up 
                                                     0        0.0000010       -0.00007675    0.00000000
                                                     2        0.1200000        0.05352699    0.00000000
                                                     2        0.1400000       -0.25123645    0.00000000
                                                     2        0.1600000        0.32188106    0.00000000
                                                     2        0.2200000       -0.25206857    0.00000000
                                                     2        0.3000000        0.19290477    0.00000000
                                                     2        0.5000000       -0.10129770    0.00000000
                                                     2        0.9000000        0.00314995    0.00000000
                                                     2        1.5000000        0.18401192    0.00000000
                                      S - F
                                                     0        0.0000010        0.08065976    0.00000000
                                                     2        0.1200000       -0.09231673    0.00000000
                                                     2        0.1600000       -0.03278082    0.00000000
                                                     2        0.2800000        0.38423402    0.00000000
                                                     2        0.6000000       -1.09357590    0.00000000
                                                     2        1.1000000        1.53099489    0.00000000
                                                     2        3.0000000       -2.63300202    0.00000000
                                      P - F
                                                     0        0.0000010       -0.11638665    0.00000000
                                                     2        0.1200000        0.35468655    0.00000000
                                                     2        0.1600000       -0.59160923    0.00000000
                                                     2        0.3000000        0.49390547    0.00000000
                                                     2        0.6000000       -0.37949835    0.00000000
                                                     2        1.6000000        0.89304688    0.00000000
                                      D - F
                                                     0        0.0000010        0.05443663    0.00000000
                                                     2        0.1200000       -0.29679479    0.00000000
                                                     2        0.1400000        0.36849872    0.00000000
                                                     2        0.2400000        0.02793449    0.00000000
                                                     2        0.4000000       -0.46312857    0.00000000
                                                     2        0.7000000        0.97587598    0.00000000
                                                     2        1.5000000       -2.43431102    0.00000000
   10          1            1
                                      F and up 
                                                     0        0.0000010       -0.00007675    0.00000000
                                                     2        0.1200000        0.05352699    0.00000000
                                                     2        0.1400000       -0.25123645    0.00000000
                                                     2        0.1600000        0.32188106    0.00000000
                                                     2        0.2200000       -0.25206857    0.00000000
                                                     2        0.3000000        0.19290477    0.00000000
                                                     2        0.5000000       -0.10129770    0.00000000
                                                     2        0.9000000        0.00314995    0.00000000
                                                     2        1.5000000        0.18401192    0.00000000
                                      S - F
                                                     0        0.0000010        0.08065976    0.00000000
                                                     2        0.1200000       -0.09231673    0.00000000
                                                     2        0.1600000       -0.03278082    0.00000000
                                                     2        0.2800000        0.38423402    0.00000000
                                                     2        0.6000000       -1.09357590    0.00000000
                                                     2        1.1000000        1.53099489    0.00000000
                                                     2        3.0000000       -2.63300202    0.00000000
                                      P - F
                                                     0        0.0000010       -0.11638665    0.00000000
                                                     2        0.1200000        0.35468655    0.00000000
                                                     2        0.1600000       -0.59160923    0.00000000
                                                     2        0.3000000        0.49390547    0.00000000
                                                     2        0.6000000       -0.37949835    0.00000000
                                                     2        1.6000000        0.89304688    0.00000000
                                      D - F
                                                     0        0.0000010        0.05443663    0.00000000
                                                     2        0.1200000       -0.29679479    0.00000000
                                                     2        0.1400000        0.36849872    0.00000000
                                                     2        0.2400000        0.02793449    0.00000000
                                                     2        0.4000000       -0.46312857    0.00000000
                                                     2        0.7000000        0.97587598    0.00000000
                                                     2        1.5000000       -2.43431102    0.00000000
   11          1            1
                                      F and up 
                                                     0        0.0000010       -0.00007675    0.00000000
                                                     2        0.1200000        0.05352699    0.00000000
                                                     2        0.1400000       -0.25123645    0.00000000
                                                     2        0.1600000        0.32188106    0.00000000
                                                     2        0.2200000       -0.25206857    0.00000000
                                                     2        0.3000000        0.19290477    0.00000000
                                                     2        0.5000000       -0.10129770    0.00000000
                                                     2        0.9000000        0.00314995    0.00000000
                                                     2        1.5000000        0.18401192    0.00000000
                                      S - F
                                                     0        0.0000010        0.08065976    0.00000000
                                                     2        0.1200000       -0.09231673    0.00000000
                                                     2        0.1600000       -0.03278082    0.00000000
                                                     2        0.2800000        0.38423402    0.00000000
                                                     2        0.6000000       -1.09357590    0.00000000
                                                     2        1.1000000        1.53099489    0.00000000
                                                     2        3.0000000       -2.63300202    0.00000000
                                      P - F
                                                     0        0.0000010       -0.11638665    0.00000000
                                                     2        0.1200000        0.35468655    0.00000000
                                                     2        0.1600000       -0.59160923    0.00000000
                                                     2        0.3000000        0.49390547    0.00000000
                                                     2        0.6000000       -0.37949835    0.00000000
                                                     2        1.6000000        0.89304688    0.00000000
                                      D - F
                                                     0        0.0000010        0.05443663    0.00000000
                                                     2        0.1200000       -0.29679479    0.00000000
                                                     2        0.1400000        0.36849872    0.00000000
                                                     2        0.2400000        0.02793449    0.00000000
                                                     2        0.4000000       -0.46312857    0.00000000
                                                     2        0.7000000        0.97587598    0.00000000
                                                     2        1.5000000       -2.43431102    0.00000000
   12          1            1
                                      F and up 
                                                     0        0.0000010       -0.00007675    0.00000000
                                                     2        0.1200000        0.05352699    0.00000000
                                                     2        0.1400000       -0.25123645    0.00000000
                                                     2        0.1600000        0.32188106    0.00000000
                                                     2        0.2200000       -0.25206857    0.00000000
                                                     2        0.3000000        0.19290477    0.00000000
                                                     2        0.5000000       -0.10129770    0.00000000
                                                     2        0.9000000        0.00314995    0.00000000
                                                     2        1.5000000        0.18401192    0.00000000
                                      S - F
                                                     0        0.0000010        0.08065976    0.00000000
                                                     2        0.1200000       -0.09231673    0.00000000
                                                     2        0.1600000       -0.03278082    0.00000000
                                                     2        0.2800000        0.38423402    0.00000000
                                                     2        0.6000000       -1.09357590    0.00000000
                                                     2        1.1000000        1.53099489    0.00000000
                                                     2        3.0000000       -2.63300202    0.00000000
                                      P - F
                                                     0        0.0000010       -0.11638665    0.00000000
                                                     2        0.1200000        0.35468655    0.00000000
                                                     2        0.1600000       -0.59160923    0.00000000
                                                     2        0.3000000        0.49390547    0.00000000
                                                     2        0.6000000       -0.37949835    0.00000000
                                                     2        1.6000000        0.89304688    0.00000000
                                      D - F
                                                     0        0.0000010        0.05443663    0.00000000
                                                     2        0.1200000       -0.29679479    0.00000000
                                                     2        0.1400000        0.36849872    0.00000000
                                                     2        0.2400000        0.02793449    0.00000000
                                                     2        0.4000000       -0.46312857    0.00000000
                                                     2        0.7000000        0.97587598    0.00000000
                                                     2        1.5000000       -2.43431102    0.00000000
   13          1            1
                                      F and up 
                                                     0        0.0000010       -0.00007675    0.00000000
                                                     2        0.1200000        0.05352699    0.00000000
                                                     2        0.1400000       -0.25123645    0.00000000
                                                     2        0.1600000        0.32188106    0.00000000
                                                     2        0.2200000       -0.25206857    0.00000000
                                                     2        0.3000000        0.19290477    0.00000000
                                                     2        0.5000000       -0.10129770    0.00000000
                                                     2        0.9000000        0.00314995    0.00000000
                                                     2        1.5000000        0.18401192    0.00000000
                                      S - F
                                                     0        0.0000010        0.08065976    0.00000000
                                                     2        0.1200000       -0.09231673    0.00000000
                                                     2        0.1600000       -0.03278082    0.00000000
                                                     2        0.2800000        0.38423402    0.00000000
                                                     2        0.6000000       -1.09357590    0.00000000
                                                     2        1.1000000        1.53099489    0.00000000
                                                     2        3.0000000       -2.63300202    0.00000000
                                      P - F
                                                     0        0.0000010       -0.11638665    0.00000000
                                                     2        0.1200000        0.35468655    0.00000000
                                                     2        0.1600000       -0.59160923    0.00000000
                                                     2        0.3000000        0.49390547    0.00000000
                                                     2        0.6000000       -0.37949835    0.00000000
                                                     2        1.6000000        0.89304688    0.00000000
                                      D - F
                                                     0        0.0000010        0.05443663    0.00000000
                                                     2        0.1200000       -0.29679479    0.00000000
                                                     2        0.1400000        0.36849872    0.00000000
                                                     2        0.2400000        0.02793449    0.00000000
                                                     2        0.4000000       -0.46312857    0.00000000
                                                     2        0.7000000        0.97587598    0.00000000
                                                     2        1.5000000       -2.43431102    0.00000000
   14          1            1
                                      F and up 
                                                     0        0.0000010       -0.00007675    0.00000000
                                                     2        0.1200000        0.05352699    0.00000000
                                                     2        0.1400000       -0.25123645    0.00000000
                                                     2        0.1600000        0.32188106    0.00000000
                                                     2        0.2200000       -0.25206857    0.00000000
                                                     2        0.3000000        0.19290477    0.00000000
                                                     2        0.5000000       -0.10129770    0.00000000
                                                     2        0.9000000        0.00314995    0.00000000
                                                     2        1.5000000        0.18401192    0.00000000
                                      S - F
                                                     0        0.0000010        0.08065976    0.00000000
                                                     2        0.1200000       -0.09231673    0.00000000
                                                     2        0.1600000       -0.03278082    0.00000000
                                                     2        0.2800000        0.38423402    0.00000000
                                                     2        0.6000000       -1.09357590    0.00000000
                                                     2        1.1000000        1.53099489    0.00000000
                                                     2        3.0000000       -2.63300202    0.00000000
                                      P - F
                                                     0        0.0000010       -0.11638665    0.00000000
                                                     2        0.1200000        0.35468655    0.00000000
                                                     2        0.1600000       -0.59160923    0.00000000
                                                     2        0.3000000        0.49390547    0.00000000
                                                     2        0.6000000       -0.37949835    0.00000000
                                                     2        1.6000000        0.89304688    0.00000000
                                      D - F
                                                     0        0.0000010        0.05443663    0.00000000
                                                     2        0.1200000       -0.29679479    0.00000000
                                                     2        0.1400000        0.36849872    0.00000000
                                                     2        0.2400000        0.02793449    0.00000000
                                                     2        0.4000000       -0.46312857    0.00000000
                                                     2        0.7000000        0.97587598    0.00000000
                                                     2        1.5000000       -2.43431102    0.00000000
 ======================================================================================================
   224 basis functions,   378 primitive gaussians,   238 cartesian basis functions
    27 alpha electrons       27 beta electrons
       nuclear repulsion energy       311.7179098619 Hartrees.
 NAtoms=   14 NActive=   14 NUniq=   14 SFac= 1.00D+00 NAtFMM=   60 NAOKFM=F Big=F
   1 Symmetry operations used in ECPInt.
 ECPInt:  NShTT=    4851 NPrTT=   22491 LenC2=    4845 LenP2D=   17684.
 LDataN:  DoStor=T MaxTD1= 6 Len=  172
 Initial guess from the checkpoint file:  "Grambow2020_wb97xd3_009242_reverse_mol1.chk"
 B after Tr=     0.241100    0.706127    0.129380
         Rot=   -0.142046    0.964110   -0.121263   -0.188708 Ang= 196.33 deg.
 >>>>>>>>>> Convergence criterion not met.
 SCF Done:  E(RHF) =  -360.043597174     A.U. after    2 cycles
            NFock=  1  Conv=0.17D-01     -V/T= 2.0034

 **********************************************************************

            Population analysis using the SCF Density.

 **********************************************************************

 Orbital symmetries:
       Occupied  (A) (A) (A) (A) (A) (A) (A) (A) (A) (A) (A) (A)
                 (A) (A) (A) (A) (A) (A) (A) (A) (A) (A) (A) (A)
                 (A) (A) (A)
       Virtual   (A) (A) (A) (A) (A) (A) (A) (A) (A) (A) (A) (A)
                 (A) (A) (A) (A) (A) (A) (A) (A) (A) (A) (A) (A)
                 (A) (A) (A) (A) (A) (A) (A) (A) (A) (A) (A) (A)
                 (A) (A) (A) (A) (A) (A) (A) (A) (A) (A) (A) (A)
                 (A) (A) (A) (A) (A) (A) (A) (A) (A) (A) (A) (A)
                 (A) (A) (A) (A) (A) (A) (A) (A) (A) (A) (A) (A)
                 (A) (A) (A) (A) (A) (A) (A) (A) (A) (A) (A) (A)
                 (A) (A) (A) (A) (A) (A) (A) (A) (A) (A) (A) (A)
                 (A) (A) (A) (A) (A) (A) (A) (A) (A) (A) (A) (A)
                 (A) (A) (A) (A) (A) (A) (A) (A) (A) (A) (A) (A)
                 (A) (A) (A) (A) (A) (A) (A) (A) (A) (A) (A) (A)
                 (A) (A) (A) (A) (A) (A) (A) (A) (A) (A) (A) (A)
                 (A) (A) (A) (A) (A) (A) (A) (A) (A) (A) (A) (A)
                 (A) (A) (A) (A) (A) (A) (A) (A) (A) (A) (A) (A)
                 (A) (A) (A) (A) (A) (A) (A) (A) (A) (A) (A) (A)
                 (A) (A) (A) (A) (A) (A) (A) (A) (A) (A) (A) (A)
                 (A) (A) (A) (A) (A)
 The electronic state is 1-A.
 Alpha  occ. eigenvalues --  -20.58617 -20.50474 -15.56920 -11.39135 -11.38813
 Alpha  occ. eigenvalues --  -11.22884 -11.22653  -1.53856  -1.45336  -1.27087
 Alpha  occ. eigenvalues --   -1.05986  -0.92879  -0.89049  -0.80936  -0.78910
 Alpha  occ. eigenvalues --   -0.72840  -0.67958  -0.65527  -0.61806  -0.59148
 Alpha  occ. eigenvalues --   -0.57216  -0.53985  -0.51313  -0.50548  -0.49200
 Alpha  occ. eigenvalues --   -0.41571  -0.32013
 Alpha virt. eigenvalues --    0.01612   0.03809   0.04300   0.05015   0.05968
 Alpha virt. eigenvalues --    0.06981   0.07262   0.10036   0.10270   0.10979
 Alpha virt. eigenvalues --    0.11475   0.13199   0.13895   0.14499   0.15399
 Alpha virt. eigenvalues --    0.15541   0.15900   0.16630   0.18024   0.18528
 Alpha virt. eigenvalues --    0.18886   0.20080   0.20346   0.21030   0.21967
 Alpha virt. eigenvalues --    0.23559   0.24994   0.25782   0.27489   0.27774
 Alpha virt. eigenvalues --    0.29227   0.31438   0.32779   0.33393   0.34266
 Alpha virt. eigenvalues --    0.34799   0.35257   0.36123   0.36749   0.37594
 Alpha virt. eigenvalues --    0.38984   0.39356   0.40264   0.40695   0.41454
 Alpha virt. eigenvalues --    0.44090   0.44388   0.45812   0.46949   0.47674
 Alpha virt. eigenvalues --    0.48603   0.48730   0.50114   0.51157   0.52392
 Alpha virt. eigenvalues --    0.54234   0.54510   0.55171   0.56529   0.57801
 Alpha virt. eigenvalues --    0.58623   0.59566   0.61259   0.62252   0.62975
 Alpha virt. eigenvalues --    0.63777   0.64847   0.65589   0.66253   0.69078
 Alpha virt. eigenvalues --    0.69227   0.70200   0.71302   0.71806   0.72673
 Alpha virt. eigenvalues --    0.74685   0.75094   0.78064   0.78487   0.79985
 Alpha virt. eigenvalues --    0.80176   0.81638   0.82724   0.84501   0.85746
 Alpha virt. eigenvalues --    0.86343   0.88044   0.90269   0.93730   0.94622
 Alpha virt. eigenvalues --    0.95323   0.96486   0.97071   1.00264   1.03307
 Alpha virt. eigenvalues --    1.03594   1.05867   1.09230   1.10350   1.12813
 Alpha virt. eigenvalues --    1.15814   1.18587   1.20016   1.21272   1.23767
 Alpha virt. eigenvalues --    1.27304   1.29201   1.31666   1.34253   1.35868
 Alpha virt. eigenvalues --    1.37619   1.39075   1.41842   1.44494   1.44763
 Alpha virt. eigenvalues --    1.50616   1.51277   1.53912   1.55740   1.59151
 Alpha virt. eigenvalues --    1.59756   1.63047   1.65938   1.68210   1.70003
 Alpha virt. eigenvalues --    1.72112   1.73653   1.78050   1.82674   1.83372
 Alpha virt. eigenvalues --    1.84803   1.88338   1.89909   1.92394   1.93911
 Alpha virt. eigenvalues --    1.95310   1.98094   1.99217   1.99703   2.02067
 Alpha virt. eigenvalues --    2.03046   2.04258   2.09811   2.10779   2.12813
 Alpha virt. eigenvalues --    2.17438   2.18331   2.20186   2.21857   2.22758
 Alpha virt. eigenvalues --    2.26571   2.27253   2.29637   2.31644   2.33636
 Alpha virt. eigenvalues --    2.37195   2.38486   2.41056   2.41833   2.44847
 Alpha virt. eigenvalues --    2.45860   2.48500   2.51218   2.54574   2.57196
 Alpha virt. eigenvalues --    2.60718   2.61244   2.63693   2.73226   2.76790
 Alpha virt. eigenvalues --    2.79504   2.80971   2.87277   2.90035   2.93878
 Alpha virt. eigenvalues --    2.97643   3.00931   3.03658   3.12036   3.16752
 Alpha virt. eigenvalues --    3.20323   3.29462   3.36610   3.39607   3.43905
 Alpha virt. eigenvalues --    3.51341   3.84907   3.89215   3.93893   3.95623
 Alpha virt. eigenvalues --    3.99310   3.99489   4.03136   4.13447   4.21335
 Alpha virt. eigenvalues --    4.25002   4.35445
          Condensed to atoms (all electrons):
 Mulliken charges:
               1
     1  C   -0.295100
     2  C   -0.272948
     3  C    1.409910
     4  O   -1.181364
     5  C    0.269827
     6  O   -1.473357
     7  N    0.898333
     8  H    0.123791
     9  H    0.181323
    10  H    0.126363
    11  H   -0.172493
    12  H    0.153516
    13  H    0.140635
    14  H    0.091565
 Sum of Mulliken charges =  -0.00000
 Mulliken charges with hydrogens summed into heavy atoms:
               1
     1  C    0.136377
     2  C   -0.445441
     3  C    1.563426
     4  O   -1.181364
     5  C    0.269827
     6  O   -1.473357
     7  N    1.130532
 Electronic spatial extent (au):  <R**2>=            719.7595
 Charge=             -0.0000 electrons
 Dipole moment (field-independent basis, Debye):
    X=              5.9228    Y=              1.4082    Z=              1.4242  Tot=              6.2523

 Test job not archived.
 1\1\GINC-SE338\SP\RHF\Aug-CC-pVDZ\C4H7N1O2\OHZDE\09-Apr-2025\0\\#t hf 
 aug-cc-pvdz iop(5/13=1,5/36=2,99/5=2) pseudo=read geom=check guess=(re
 ad,tcheck) scf=(maxcycle=1)\\title\\0,1\C,0,-1.17293721,-1.17152812,0.
 45848299\C,0,-0.34483831,-0.34056569,-0.49590121\C,0,-0.68493795,1.450
 81667,0.37450481\O,0,-1.54124509,1.48830759,1.20256461\C,0,0.90499105,
 0.18106,-0.11399319\O,0,0.79907875,1.09496513,0.8046002\N,0,2.08476871
 ,0.02620005,-0.71936601\H,0,-0.8963056,-0.98856712,1.49472051\H,0,-2.2
 3086276,-0.91719932,0.36351696\H,0,-1.05287056,-2.23782485,0.25091192\
 H,0,-0.42448602,-0.6431345,-1.53962394\H,0,-0.52906331,2.14534051,-0.4
 5477664\H,0,2.2471054,-0.75671899,-1.32362517\H,0,2.83819491,0.6598846
 3,-0.51939983\\Version=ES64L-G16RevC.01\State=1-A\HF=-360.0435972\RMSD
 =1.718e-02\Dipole=1.7518905,-0.7561774,-1.5523642\Quadrupole=1.8706307
 ,-0.2251975,-1.6454332,1.1229866,-0.8016893,-1.3728664\PG=C01 [X(C4H7N
 1O2)]\\@


 BETTER TO HUNT IN FIELDS, FOR HEALTH UNBOUGHT
 THAN FEE THE DOCTOR FOR A NAUSEOUS DRAUGHT.
 THE WISE, FOR CURE, ON EXERCISE DEPEND;
 GOD NEVER MADE HIS WORK FOR MAN TO MEND.
     -- JOHN DRYDEN (1631-1700)
 Job cpu time:       0 days  0 hours  0 minutes 56.5 seconds.
 Elapsed time:       0 days  0 hours  0 minutes  4.4 seconds.
 File lengths (MBytes):  RWF=     10 Int=      0 D2E=      0 Chk=      7 Scr=      1
 Normal termination of Gaussian 16 at Wed Apr  9 04:05:50 2025.
