 Entering Gaussian System, Link 0=g16
 Input=Grambow2020_wb97xd3_009273_forward_mol1.gjf
 Output=Grambow2020_wb97xd3_009273_forward_mol1.log
 Initial command:
 /arc/software/Gaussian/g16.c01/l1.exe "/tmp/slurm/4883088/Gau-3697977.inp" -scrdir="/tmp/slurm/4883088/"
 Entering Link 1 = /arc/software/Gaussian/g16.c01/l1.exe PID=   3697978.
  
 Copyright (c) 1988-2019, Gaussian, Inc.  All Rights Reserved.
  
 This is part of the Gaussian(R) 16 program.  It is based on
 the Gaussian(R) 09 system (copyright 2009, Gaussian, Inc.),
 the Gaussian(R) 03 system (copyright 2003, Gaussian, Inc.),
 the Gaussian(R) 98 system (copyright 1998, Gaussian, Inc.),
 the Gaussian(R) 94 system (copyright 1995, Gaussian, Inc.),
 the Gaussian 92(TM) system (copyright 1992, Gaussian, Inc.),
 the Gaussian 90(TM) system (copyright 1990, Gaussian, Inc.),
 the Gaussian 88(TM) system (copyright 1988, Gaussian, Inc.),
 the Gaussian 86(TM) system (copyright 1986, Carnegie Mellon
 University), and the Gaussian 82(TM) system (copyright 1983,
 Carnegie Mellon University). Gaussian is a federally registered
 trademark of Gaussian, Inc.
  
 This software contains proprietary and confidential information,
 including trade secrets, belonging to Gaussian, Inc.
  
 This software is provided under written license and may be
 used, copied, transmitted, or stored only in accord with that
 written license.
  
 The following legend is applicable only to US Government
 contracts under FAR:
  
                    RESTRICTED RIGHTS LEGEND
  
 Use, reproduction and disclosure by the US Government is
 subject to restrictions as set forth in subparagraphs (a)
 and (c) of the Commercial Computer Software - Restricted
 Rights clause in FAR 52.227-19.
  
 Gaussian, Inc.
 340 Quinnipiac St., Bldg. 40, Wallingford CT 06492
  
  
 ---------------------------------------------------------------
 Warning -- This program may not be used in any manner that
 competes with the business of Gaussian, Inc. or will provide
 assistance to any competitor of Gaussian, Inc.  The licensee
 of this program is prohibited from giving any competitor of
 Gaussian, Inc. access to this program.  By using this program,
 the user acknowledges that Gaussian, Inc. is engaged in the
 business of creating and licensing software in the field of
 computational chemistry and represents and warrants to the
 licensee that it is not a competitor of Gaussian, Inc. and that
 it will not use this program in any manner prohibited above.
 ---------------------------------------------------------------
  

 Cite this work as:
 Gaussian 16, Revision C.01,
 M. J. Frisch, G. W. Trucks, H. B. Schlegel, G. E. Scuseria, 
 M. A. Robb, J. R. Cheeseman, G. Scalmani, V. Barone, 
 G. A. Petersson, H. Nakatsuji, X. Li, M. Caricato, A. V. Marenich, 
 J. Bloino, B. G. Janesko, R. Gomperts, B. Mennucci, H. P. Hratchian, 
 J. V. Ortiz, A. F. Izmaylov, J. L. Sonnenberg, D. Williams-Young, 
 F. Ding, F. Lipparini, F. Egidi, J. Goings, B. Peng, A. Petrone, 
 T. Henderson, D. Ranasinghe, V. G. Zakrzewski, J. Gao, N. Rega, 
 G. Zheng, W. Liang, M. Hada, M. Ehara, K. Toyota, R. Fukuda, 
 J. Hasegawa, M. Ishida, T. Nakajima, Y. Honda, O. Kitao, H. Nakai, 
 T. Vreven, K. Throssell, J. A. Montgomery, Jr., J. E. Peralta, 
 F. Ogliaro, M. J. Bearpark, J. J. Heyd, E. N. Brothers, K. N. Kudin, 
 V. N. Staroverov, T. A. Keith, R. Kobayashi, J. Normand, 
 K. Raghavachari, A. P. Rendell, J. C. Burant, S. S. Iyengar, 
 J. Tomasi, M. Cossi, J. M. Millam, M. Klene, C. Adamo, R. Cammi, 
 J. W. Ochterski, R. L. Martin, K. Morokuma, O. Farkas, 
 J. B. Foresman, and D. J. Fox, Gaussian, Inc., Wallingford CT, 2019.
 
 ******************************************
 Gaussian 16:  ES64L-G16RevC.01  3-Jul-2019
                 9-Apr-2025 
 ******************************************
 %nprocs=16
 Will use up to   16 processors via shared memory.
 %mem=30GB
 %chk=Grambow2020_wb97xd3_009273_forward_mol1.chk
 ----------------------------------------------------------------------
 #t hf aug-cc-pvdz symm=none int=(grid=ultrafine) guess=(read,tcheck) s
 table=(opt,rrhf)
 ----------------------------------------------------------------------
 -----
 title
 -----
 Symbolic Z-matrix:
 Charge =  0 Multiplicity = 1
 C                     2.52785   0.29612  -0.75989 
 O                     1.15104   0.56414  -0.67226 
 C                     0.40184  -0.56751  -0.28246 
 C                    -1.07296  -0.26558  -0.23284 
 C                    -1.88293  -1.47889   0.18259 
 C                    -1.02445   1.5781    0.98362 
 O                    -0.78677   2.48998   0.02984 
 H                     2.73305  -0.48732  -1.4996 
 H                     3.02336   1.21436  -1.07131 
 H                     2.93467  -0.02145   0.20839 
 H                     0.58178  -1.38105  -1.00649 
 H                     0.75138  -0.9292    0.69643 
 H                    -1.41156   0.16541  -1.17713 
 H                    -2.95086  -1.25772   0.19309 
 H                    -1.60234  -1.81481   1.18399 
 H                    -1.7233   -2.31597  -0.50449 
 H                    -1.6551    0.5978    0.60822 
 H                    -0.10158   1.21267   1.45005 
 H                     0.11565   2.39452  -0.30483 
 
                    Distance matrix (angstroms):
                    1          2          3          4          5
     1  C    0.000000
     2  O    1.405395   0.000000
     3  C    2.343868   1.412045   0.000000
     4  C    3.682273   2.414061   1.506207   0.000000
     5  C    4.847051   3.756287   2.503409   1.516823   0.000000
     6  C    4.159586   2.915954   2.870693   2.209359   3.274726
     7  O    4.052580   2.820795   3.295231   2.782808   4.120298
     8  H    1.096836   2.071916   2.631046   4.017409   5.012007
     9  H    1.088891   2.021785   3.266451   4.435435   5.735636
    10  H    1.097232   2.073599   2.637109   4.039232   5.033297
    11  H    2.580872   2.054149   1.103833   2.140318   2.738292
    12  H    2.603482   2.064725   1.100551   2.152240   2.739667
    13  H    3.963601   2.642117   2.150822   1.091832   2.185122
    14  H    5.773981   4.570948   3.455883   2.166163   1.090641
    15  H    5.029231   4.084869   2.779022   2.165123   1.092876
    16  H    4.996049   4.072468   2.760913   2.168143   1.094652
    17  H    4.411332   3.084669   2.526312   1.338539   2.132065
    18  H    3.554971   2.548299   2.534568   2.441496   3.467588
    19  H    3.229405   2.134782   2.975902   2.914465   4.385797
                    6          7          8          9         10
     6  C    0.000000
     7  O    1.340784   0.000000
     8  H    4.954912   4.857226   0.000000
     9  H    4.554094   4.166146   1.778609   0.000000
    10  H    4.339838   4.493134   1.781826   1.781215   0.000000
    11  H    3.911143   4.234592   2.381151   3.563941   2.976667
    12  H    3.085868   3.808017   2.990786   3.589099   2.414323
    13  H    2.610438   2.692730   4.208069   4.558507   4.565558
    14  H    3.518219   4.330732   5.980429   6.587956   6.013989
    15  H    3.447600   4.530832   5.268725   5.971544   4.975180
    16  H    4.226896   4.925423   4.918662   5.942667   5.241156
    17  H    1.224598   2.160763   4.987613   5.008889   4.648588
    18  H    1.096716   2.029279   4.430070   4.015281   3.504797
    19  H    1.904333   0.967205   4.072252   3.230322   3.747953
                   11         12         13         14         15
    11  H    0.000000
    12  H    1.769987   0.000000
    13  H    2.528646   3.063772   0.000000
    14  H    3.732788   3.750711   2.504450   0.000000
    15  H    3.123572   2.561643   3.087487   1.763724   0.000000
    16  H    2.537608   3.080484   2.589766   1.764488   1.765436
    17  H    3.395106   2.851427   1.853042   2.300927   2.480920
    18  H    3.637158   2.425505   3.116870   3.975067   3.389499
    19  H    3.868396   3.528986   2.839403   4.794820   4.783988
                   16         17         18         19
    16  H    0.000000
    17  H    3.119748   0.000000
    18  H    4.347587   1.870875   0.000000
    19  H    5.060664   2.682809   2.126867   0.000000
 Symmetry turned off by external request.
 Rotational constants (GHZ):           2.6508360           1.9447260           1.2152630
   269 basis functions,   433 primitive gaussians,   283 cartesian basis functions
    29 alpha electrons       29 beta electrons
       nuclear repulsion energy       330.2566058072 Hartrees.
 NAtoms=   19 NActive=   19 NUniq=   19 SFac= 1.00D+00 NAtFMM=   60 NAOKFM=F Big=F
 ExpMin= 2.97D-02 ExpMax= 1.17D+04 ExpMxC= 4.01D+02 IAcc=3 IRadAn=         5 AccDes= 0.00D+00
 Harris functional with IExCor=  205 and IRadAn=       5 diagonalized for initial guess.
 HarFok:  IExCor=  205 AccDes= 0.00D+00 IRadAn=         5 IDoV= 1 UseB2=F ITyADJ=14
 ICtDFT=  3500011 ScaDFX=  1.000000  1.000000  1.000000  1.000000
 FoFCou: FMM=F IPFlag=           0 FMFlag=      100000 FMFlg1=           0
         NFxFlg=           0 DoJE=T BraDBF=F KetDBF=T FulRan=T
         wScrn=  0.000000 ICntrl=       500 IOpCl=  0 I1Cent=   200000004 NGrid=           0
         NMat0=    1 NMatS0=      1 NMatT0=    0 NMatD0=    1 NMtDS0=    0 NMtDT0=    0
 Symmetry not used in FoFCou.
 SCF Done:  E(RHF) =  -345.915451104     A.U. after   15 cycles
            NFock= 15  Conv=0.39D-08     -V/T= 2.0010

 **********************************************************************

            Population analysis using the SCF Density.

 **********************************************************************

 Alpha  occ. eigenvalues --  -20.58694 -20.57890 -11.30031 -11.29386 -11.28076
 Alpha  occ. eigenvalues --  -11.25834 -11.23786  -1.40582  -1.38849  -1.08251
 Alpha  occ. eigenvalues --   -0.97408  -0.90306  -0.88517  -0.80499  -0.71963
 Alpha  occ. eigenvalues --   -0.67857  -0.67455  -0.65881  -0.62652  -0.58982
 Alpha  occ. eigenvalues --   -0.56714  -0.56001  -0.55517  -0.52318  -0.51189
 Alpha  occ. eigenvalues --   -0.49123  -0.45888  -0.44252  -0.29477
 Alpha virt. eigenvalues --    0.02985   0.03966   0.04391   0.04901   0.06154
 Alpha virt. eigenvalues --    0.06279   0.06808   0.07374   0.08108   0.09042
 Alpha virt. eigenvalues --    0.09191   0.09789   0.12371   0.12845   0.13557
 Alpha virt. eigenvalues --    0.14966   0.15039   0.15178   0.15832   0.16129
 Alpha virt. eigenvalues --    0.16705   0.17522   0.18019   0.18338   0.18802
 Alpha virt. eigenvalues --    0.19284   0.19969   0.20898   0.21382   0.22586
 Alpha virt. eigenvalues --    0.23452   0.24722   0.25817   0.26035   0.27469
 Alpha virt. eigenvalues --    0.28204   0.29326   0.30068   0.31137   0.31878
 Alpha virt. eigenvalues --    0.32720   0.33273   0.34236   0.35686   0.36502
 Alpha virt. eigenvalues --    0.37110   0.37868   0.38265   0.39129   0.40388
 Alpha virt. eigenvalues --    0.41641   0.41984   0.43189   0.43510   0.44019
 Alpha virt. eigenvalues --    0.44987   0.45625   0.46576   0.46858   0.47264
 Alpha virt. eigenvalues --    0.48734   0.49796   0.50004   0.50682   0.52053
 Alpha virt. eigenvalues --    0.52646   0.53182   0.54280   0.54871   0.55664
 Alpha virt. eigenvalues --    0.56171   0.56708   0.57758   0.58573   0.59002
 Alpha virt. eigenvalues --    0.60055   0.61354   0.62906   0.63113   0.63721
 Alpha virt. eigenvalues --    0.64861   0.65866   0.66108   0.66322   0.66627
 Alpha virt. eigenvalues --    0.68250   0.68923   0.69446   0.70990   0.71576
 Alpha virt. eigenvalues --    0.71984   0.72853   0.74979   0.75431   0.75949
 Alpha virt. eigenvalues --    0.76343   0.77625   0.78484   0.79044   0.79397
 Alpha virt. eigenvalues --    0.81024   0.81754   0.82015   0.83457   0.84613
 Alpha virt. eigenvalues --    0.85677   0.86403   0.87399   0.88414   0.89542
 Alpha virt. eigenvalues --    0.90655   0.91739   0.93106   0.94562   0.95465
 Alpha virt. eigenvalues --    0.97273   0.98635   1.00587   1.01822   1.04874
 Alpha virt. eigenvalues --    1.05918   1.08661   1.10395   1.13414   1.14507
 Alpha virt. eigenvalues --    1.16631   1.17257   1.18383   1.19663   1.20858
 Alpha virt. eigenvalues --    1.23945   1.24828   1.25902   1.29976   1.30869
 Alpha virt. eigenvalues --    1.31829   1.34830   1.35794   1.39889   1.42028
 Alpha virt. eigenvalues --    1.43730   1.47484   1.49701   1.50608   1.52452
 Alpha virt. eigenvalues --    1.53230   1.56542   1.58993   1.60854   1.63082
 Alpha virt. eigenvalues --    1.66386   1.68119   1.71361   1.71798   1.74135
 Alpha virt. eigenvalues --    1.75505   1.75650   1.79463   1.80716   1.82934
 Alpha virt. eigenvalues --    1.84102   1.87504   1.87878   1.89316   1.91424
 Alpha virt. eigenvalues --    1.92144   1.93412   1.95480   1.97183   1.99261
 Alpha virt. eigenvalues --    2.02187   2.03655   2.05425   2.07540   2.09098
 Alpha virt. eigenvalues --    2.10701   2.13775   2.15216   2.18421   2.19022
 Alpha virt. eigenvalues --    2.19471   2.21560   2.23427   2.24726   2.26764
 Alpha virt. eigenvalues --    2.27334   2.29714   2.31605   2.33669   2.35797
 Alpha virt. eigenvalues --    2.36433   2.38095   2.40992   2.42670   2.42940
 Alpha virt. eigenvalues --    2.43651   2.44495   2.48320   2.52738   2.53424
 Alpha virt. eigenvalues --    2.56443   2.56624   2.58975   2.60653   2.65585
 Alpha virt. eigenvalues --    2.66799   2.67864   2.70584   2.73079   2.75757
 Alpha virt. eigenvalues --    2.76420   2.78749   2.85825   2.86765   2.88050
 Alpha virt. eigenvalues --    2.89082   2.91821   2.96768   2.99182   3.02029
 Alpha virt. eigenvalues --    3.05883   3.09928   3.12870   3.15221   3.18116
 Alpha virt. eigenvalues --    3.21883   3.36714   3.39943   3.48631   3.57232
 Alpha virt. eigenvalues --    3.77972   3.82728   3.85400   3.88400   3.97875
 Alpha virt. eigenvalues --    4.02002   4.04826   4.14593   4.18549   4.35998
          Condensed to atoms (all electrons):
 Mulliken charges:
               1
     1  C    0.783068
     2  O   -0.851478
     3  C    0.984426
     4  C   -0.525865
     5  C    0.420031
     6  C    0.386918
     7  O   -0.565421
     8  H   -0.074244
     9  H   -0.285907
    10  H   -0.060286
    11  H   -0.191604
    12  H   -0.147567
    13  H   -0.229995
    14  H   -0.131573
    15  H   -0.063739
    16  H   -0.087584
    17  H    0.500685
    18  H   -0.070924
    19  H    0.211058
 Sum of Mulliken charges =  -0.00000
 Mulliken charges with hydrogens summed into heavy atoms:
               1
     1  C    0.362632
     2  O   -0.851478
     3  C    0.645255
     4  C   -0.755860
     5  C    0.137135
     6  C    0.816679
     7  O   -0.354363
 Electronic spatial extent (au):  <R**2>=           1050.7917
 Charge=             -0.0000 electrons
 Dipole moment (field-independent basis, Debye):
    X=              3.0462    Y=             -3.2886    Z=             -1.0826  Tot=              4.6115
 NROrb=    269 NOA=    29 NOB=    29 NVA=   240 NVB=   240

 **** Warning!!: The largest alpha MO coefficient is  0.39200989D+02

    12 initial guesses have been made.
 Iteration     1 Dimension    12 NMult     0 NNew     12
 Iteration     2 Dimension    24 NMult    12 NNew     12
 New state      1 was old state     12
 Iteration     3 Dimension    27 NMult    24 NNew      3
 Iteration     4 Dimension    30 NMult    27 NNew      3
 Iteration     5 Dimension    33 NMult    30 NNew      3
 Iteration     6 Dimension    36 NMult    33 NNew      3
 Iteration     7 Dimension    39 NMult    36 NNew      3
 ***********************************************************************
 Stability analysis using <AA,BB:AA,BB> singles matrix:
 ***********************************************************************
 Ground to excited state transition densities written to RWF  633

 Eigenvectors of the stability matrix:
 
 Excited state symmetry could not be determined.
 Eigenvector   1:      Singlet-?Sym  Eigenvalue= 0.1683325  <S**2>=0.000
      29 -> 37        -0.20226
      29 -> 41        -0.16337
      29 -> 43        -0.32359
      29 -> 45         0.11622
      29 -> 46        -0.13105
      29 -> 47         0.25470
      29 -> 48        -0.11181
      29 -> 49         0.17989
      29 -> 50        -0.17928
      29 -> 58         0.12742
 The wavefunction is stable under the perturbations considered.
 The wavefunction is already stable.

 **********************************************************************

            Population analysis using the SCF Density.

 **********************************************************************

 Alpha  occ. eigenvalues --  -20.58694 -20.57890 -11.30031 -11.29386 -11.28076
 Alpha  occ. eigenvalues --  -11.25834 -11.23786  -1.40582  -1.38849  -1.08251
 Alpha  occ. eigenvalues --   -0.97408  -0.90306  -0.88517  -0.80499  -0.71963
 Alpha  occ. eigenvalues --   -0.67857  -0.67455  -0.65881  -0.62652  -0.58982
 Alpha  occ. eigenvalues --   -0.56714  -0.56001  -0.55517  -0.52318  -0.51189
 Alpha  occ. eigenvalues --   -0.49123  -0.45888  -0.44252  -0.29477
 Alpha virt. eigenvalues --    0.02985   0.03966   0.04391   0.04901   0.06154
 Alpha virt. eigenvalues --    0.06279   0.06808   0.07374   0.08108   0.09042
 Alpha virt. eigenvalues --    0.09191   0.09789   0.12371   0.12845   0.13557
 Alpha virt. eigenvalues --    0.14966   0.15039   0.15178   0.15832   0.16129
 Alpha virt. eigenvalues --    0.16705   0.17522   0.18019   0.18338   0.18802
 Alpha virt. eigenvalues --    0.19284   0.19969   0.20898   0.21382   0.22586
 Alpha virt. eigenvalues --    0.23452   0.24722   0.25817   0.26035   0.27469
 Alpha virt. eigenvalues --    0.28204   0.29326   0.30068   0.31137   0.31878
 Alpha virt. eigenvalues --    0.32720   0.33273   0.34236   0.35686   0.36502
 Alpha virt. eigenvalues --    0.37110   0.37868   0.38265   0.39129   0.40388
 Alpha virt. eigenvalues --    0.41641   0.41984   0.43189   0.43510   0.44019
 Alpha virt. eigenvalues --    0.44987   0.45625   0.46576   0.46858   0.47264
 Alpha virt. eigenvalues --    0.48734   0.49796   0.50004   0.50682   0.52053
 Alpha virt. eigenvalues --    0.52646   0.53182   0.54280   0.54871   0.55664
 Alpha virt. eigenvalues --    0.56171   0.56708   0.57758   0.58573   0.59002
 Alpha virt. eigenvalues --    0.60055   0.61354   0.62906   0.63113   0.63721
 Alpha virt. eigenvalues --    0.64861   0.65866   0.66108   0.66322   0.66627
 Alpha virt. eigenvalues --    0.68250   0.68923   0.69446   0.70990   0.71576
 Alpha virt. eigenvalues --    0.71984   0.72853   0.74979   0.75431   0.75949
 Alpha virt. eigenvalues --    0.76343   0.77625   0.78484   0.79044   0.79397
 Alpha virt. eigenvalues --    0.81024   0.81754   0.82015   0.83457   0.84613
 Alpha virt. eigenvalues --    0.85677   0.86403   0.87399   0.88414   0.89542
 Alpha virt. eigenvalues --    0.90655   0.91739   0.93106   0.94562   0.95465
 Alpha virt. eigenvalues --    0.97273   0.98635   1.00587   1.01822   1.04874
 Alpha virt. eigenvalues --    1.05918   1.08661   1.10395   1.13414   1.14507
 Alpha virt. eigenvalues --    1.16631   1.17257   1.18383   1.19663   1.20858
 Alpha virt. eigenvalues --    1.23945   1.24828   1.25902   1.29976   1.30869
 Alpha virt. eigenvalues --    1.31829   1.34830   1.35794   1.39889   1.42028
 Alpha virt. eigenvalues --    1.43730   1.47484   1.49701   1.50608   1.52452
 Alpha virt. eigenvalues --    1.53230   1.56542   1.58993   1.60854   1.63082
 Alpha virt. eigenvalues --    1.66386   1.68119   1.71361   1.71798   1.74135
 Alpha virt. eigenvalues --    1.75505   1.75650   1.79463   1.80716   1.82934
 Alpha virt. eigenvalues --    1.84102   1.87504   1.87878   1.89316   1.91424
 Alpha virt. eigenvalues --    1.92144   1.93412   1.95480   1.97183   1.99261
 Alpha virt. eigenvalues --    2.02187   2.03655   2.05425   2.07540   2.09098
 Alpha virt. eigenvalues --    2.10701   2.13775   2.15216   2.18421   2.19022
 Alpha virt. eigenvalues --    2.19471   2.21560   2.23427   2.24726   2.26764
 Alpha virt. eigenvalues --    2.27334   2.29714   2.31605   2.33669   2.35797
 Alpha virt. eigenvalues --    2.36433   2.38095   2.40992   2.42670   2.42940
 Alpha virt. eigenvalues --    2.43651   2.44495   2.48320   2.52738   2.53424
 Alpha virt. eigenvalues --    2.56443   2.56624   2.58975   2.60653   2.65585
 Alpha virt. eigenvalues --    2.66799   2.67864   2.70584   2.73079   2.75757
 Alpha virt. eigenvalues --    2.76420   2.78749   2.85825   2.86765   2.88050
 Alpha virt. eigenvalues --    2.89082   2.91821   2.96768   2.99182   3.02029
 Alpha virt. eigenvalues --    3.05883   3.09928   3.12870   3.15221   3.18116
 Alpha virt. eigenvalues --    3.21883   3.36714   3.39943   3.48631   3.57232
 Alpha virt. eigenvalues --    3.77972   3.82728   3.85400   3.88400   3.97875
 Alpha virt. eigenvalues --    4.02002   4.04826   4.14593   4.18549   4.35998
          Condensed to atoms (all electrons):
 Mulliken charges:
               1
     1  C    0.783068
     2  O   -0.851478
     3  C    0.984426
     4  C   -0.525865
     5  C    0.420031
     6  C    0.386918
     7  O   -0.565421
     8  H   -0.074244
     9  H   -0.285907
    10  H   -0.060286
    11  H   -0.191604
    12  H   -0.147567
    13  H   -0.229995
    14  H   -0.131573
    15  H   -0.063739
    16  H   -0.087584
    17  H    0.500685
    18  H   -0.070924
    19  H    0.211058
 Sum of Mulliken charges =  -0.00000
 Mulliken charges with hydrogens summed into heavy atoms:
               1
     1  C    0.362632
     2  O   -0.851478
     3  C    0.645255
     4  C   -0.755860
     5  C    0.137135
     6  C    0.816679
     7  O   -0.354363
 Electronic spatial extent (au):  <R**2>=           1050.7917
 Charge=             -0.0000 electrons
 Dipole moment (field-independent basis, Debye):
    X=              3.0462    Y=             -3.2886    Z=             -1.0826  Tot=              4.6115
 Unable to Open any file for archive entry.
 1\1\GINC-SE054\Stability\RHF\Aug-CC-pVDZ\C5H12O2\OHZDE\09-Apr-2025\0\\
 #t hf aug-cc-pvdz symm=none int=(grid=ultrafine) guess=(read,tcheck) s
 table=(opt,rrhf)\\title\\0,1\C,0,2.52785118,0.29611785,-0.759893\O,0,1
 .1510364,0.56414183,-0.67226062\C,0,0.40184,-0.56750653,-0.28245688\C,
 0,-1.07296057,-0.26557905,-0.23283796\C,0,-1.88292846,-1.47889164,0.18
 258699\C,0,-1.02445098,1.57810026,0.98361637\O,0,-0.78676559,2.4899812
 9,0.02984482\H,0,2.73305109,-0.48732365,-1.49959734\H,0,3.02335635,1.2
 1436463,-1.0713111\H,0,2.93467209,-0.02144817,0.2083872\H,0,0.58177757
 ,-1.38104853,-1.00648689\H,0,0.75137908,-0.92919536,0.69642787\H,0,-1.
 41155985,0.1654108,-1.17713404\H,0,-2.95085727,-1.25772371,0.19309288\
 H,0,-1.60233861,-1.81481031,1.18398943\H,0,-1.72329784,-2.31597183,-0.
 50449221\H,0,-1.65510295,0.59779603,0.60822178\H,0,-0.10158086,1.21267
 093,1.450047\H,0,0.1156542,2.39451817,-0.3048343\\Version=ES64L-G16Rev
 C.01\HF=-345.9154511\RMSD=3.861e-09\Dipole=1.1984593,-1.2938437,-0.425
 9185\Quadrupole=2.7998066,-3.0117246,0.2119181,5.3266809,1.4619201,-1.
 3982596\PG=Unknown\\@
 The archive entry for this job was punched.


 DIATOMIC MOLECULES ARE PECULIAR BECAUSE THEY ONLY HAVE TWO ENDS,
 AND THESE ENDS ARE VERY CLOSE TOGETHER.
 KLAUS RUEDENBERG, REV.MOD.PHYS. PG 176, 32, (1960)
 Job cpu time:       0 days  0 hours 13 minutes 24.6 seconds.
 Elapsed time:       0 days  0 hours  0 minutes 57.1 seconds.
 File lengths (MBytes):  RWF=    300 Int=      0 D2E=      0 Chk=     10 Scr=      1
 Normal termination of Gaussian 16 at Wed Apr  9 19:19:28 2025.
 Initial command:
 /arc/software/Gaussian/g16.c01/l1.exe "/tmp/slurm/4883088/Gau-3697977.inp" -scrdir="/tmp/slurm/4883088/"
 Entering Link 1 = /arc/software/Gaussian/g16.c01/l1.exe PID=   3698259.
  
 Copyright (c) 1988-2019, Gaussian, Inc.  All Rights Reserved.
  
 This is part of the Gaussian(R) 16 program.  It is based on
 the Gaussian(R) 09 system (copyright 2009, Gaussian, Inc.),
 the Gaussian(R) 03 system (copyright 2003, Gaussian, Inc.),
 the Gaussian(R) 98 system (copyright 1998, Gaussian, Inc.),
 the Gaussian(R) 94 system (copyright 1995, Gaussian, Inc.),
 the Gaussian 92(TM) system (copyright 1992, Gaussian, Inc.),
 the Gaussian 90(TM) system (copyright 1990, Gaussian, Inc.),
 the Gaussian 88(TM) system (copyright 1988, Gaussian, Inc.),
 the Gaussian 86(TM) system (copyright 1986, Carnegie Mellon
 University), and the Gaussian 82(TM) system (copyright 1983,
 Carnegie Mellon University). Gaussian is a federally registered
 trademark of Gaussian, Inc.
  
 This software contains proprietary and confidential information,
 including trade secrets, belonging to Gaussian, Inc.
  
 This software is provided under written license and may be
 used, copied, transmitted, or stored only in accord with that
 written license.
  
 The following legend is applicable only to US Government
 contracts under FAR:
  
                    RESTRICTED RIGHTS LEGEND
  
 Use, reproduction and disclosure by the US Government is
 subject to restrictions as set forth in subparagraphs (a)
 and (c) of the Commercial Computer Software - Restricted
 Rights clause in FAR 52.227-19.
  
 Gaussian, Inc.
 340 Quinnipiac St., Bldg. 40, Wallingford CT 06492
  
  
 ---------------------------------------------------------------
 Warning -- This program may not be used in any manner that
 competes with the business of Gaussian, Inc. or will provide
 assistance to any competitor of Gaussian, Inc.  The licensee
 of this program is prohibited from giving any competitor of
 Gaussian, Inc. access to this program.  By using this program,
 the user acknowledges that Gaussian, Inc. is engaged in the
 business of creating and licensing software in the field of
 computational chemistry and represents and warrants to the
 licensee that it is not a competitor of Gaussian, Inc. and that
 it will not use this program in any manner prohibited above.
 ---------------------------------------------------------------
  

 Cite this work as:
 Gaussian 16, Revision C.01,
 M. J. Frisch, G. W. Trucks, H. B. Schlegel, G. E. Scuseria, 
 M. A. Robb, J. R. Cheeseman, G. Scalmani, V. Barone, 
 G. A. Petersson, H. Nakatsuji, X. Li, M. Caricato, A. V. Marenich, 
 J. Bloino, B. G. Janesko, R. Gomperts, B. Mennucci, H. P. Hratchian, 
 J. V. Ortiz, A. F. Izmaylov, J. L. Sonnenberg, D. Williams-Young, 
 F. Ding, F. Lipparini, F. Egidi, J. Goings, B. Peng, A. Petrone, 
 T. Henderson, D. Ranasinghe, V. G. Zakrzewski, J. Gao, N. Rega, 
 G. Zheng, W. Liang, M. Hada, M. Ehara, K. Toyota, R. Fukuda, 
 J. Hasegawa, M. Ishida, T. Nakajima, Y. Honda, O. Kitao, H. Nakai, 
 T. Vreven, K. Throssell, J. A. Montgomery, Jr., J. E. Peralta, 
 F. Ogliaro, M. J. Bearpark, J. J. Heyd, E. N. Brothers, K. N. Kudin, 
 V. N. Staroverov, T. A. Keith, R. Kobayashi, J. Normand, 
 K. Raghavachari, A. P. Rendell, J. C. Burant, S. S. Iyengar, 
 J. Tomasi, M. Cossi, J. M. Millam, M. Klene, C. Adamo, R. Cammi, 
 J. W. Ochterski, R. L. Martin, K. Morokuma, O. Farkas, 
 J. B. Foresman, and D. J. Fox, Gaussian, Inc., Wallingford CT, 2019.
 
 ******************************************
 Gaussian 16:  ES64L-G16RevC.01  3-Jul-2019
                 9-Apr-2025 
 ******************************************
 %nprocs=16
 Will use up to   16 processors via shared memory.
 %mem=30GB
 %chk=Grambow2020_wb97xd3_009273_forward_mol1.chk
 ----------------------------------------------------------------------
 #t hf aug-cc-pvdz iop(5/13=1,5/36=2,99/5=2) pseudo=read geom=check gue
 ss=(read,tcheck) scf=(maxcycle=1)
 ----------------------------------------------------------------------
 -----
 title
 -----
 Structure from the checkpoint file:  "Grambow2020_wb97xd3_009273_forward_mol1.chk"
 Charge =  0 Multiplicity = 1
 Z-Matrix found in chk file.
 C,0,2.52785118,0.29611785,-0.759893
 O,0,1.1510364,0.56414183,-0.67226062
 C,0,0.40184,-0.56750653,-0.28245688
 C,0,-1.07296057,-0.26557905,-0.23283796
 C,0,-1.88292846,-1.47889164,0.18258699
 C,0,-1.02445098,1.57810026,0.98361637
 O,0,-0.78676559,2.48998129,0.02984482
 H,0,2.73305109,-0.48732365,-1.49959734
 H,0,3.02335635,1.21436463,-1.0713111
 H,0,2.93467209,-0.02144817,0.2083872
 H,0,0.58177757,-1.38104853,-1.00648689
 H,0,0.75137908,-0.92919536,0.69642787
 H,0,-1.41155985,0.1654108,-1.17713404
 H,0,-2.95085727,-1.25772371,0.19309288
 H,0,-1.60233861,-1.81481031,1.18398943
 H,0,-1.72329784,-2.31597183,-0.50449221
 H,0,-1.65510295,0.59779603,0.60822178
 H,0,-0.10158086,1.21267093,1.450047
 H,0,0.1156542,2.39451817,-0.3048343
 Recover connectivity data from disk.
                    Distance matrix (angstroms):
                    1          2          3          4          5
     1  C    0.000000
     2  O    1.405395   0.000000
     3  C    2.343868   1.412045   0.000000
     4  C    3.682273   2.414061   1.506207   0.000000
     5  C    4.847051   3.756287   2.503409   1.516823   0.000000
     6  C    4.159586   2.915954   2.870693   2.209359   3.274726
     7  O    4.052580   2.820795   3.295231   2.782808   4.120298
     8  H    1.096836   2.071916   2.631046   4.017409   5.012007
     9  H    1.088891   2.021785   3.266451   4.435435   5.735636
    10  H    1.097232   2.073599   2.637109   4.039232   5.033297
    11  H    2.580872   2.054149   1.103833   2.140318   2.738292
    12  H    2.603482   2.064725   1.100551   2.152240   2.739667
    13  H    3.963601   2.642117   2.150822   1.091832   2.185122
    14  H    5.773981   4.570948   3.455883   2.166163   1.090641
    15  H    5.029231   4.084869   2.779022   2.165123   1.092876
    16  H    4.996049   4.072468   2.760913   2.168143   1.094652
    17  H    4.411332   3.084669   2.526312   1.338539   2.132065
    18  H    3.554971   2.548299   2.534568   2.441496   3.467588
    19  H    3.229405   2.134782   2.975902   2.914465   4.385797
                    6          7          8          9         10
     6  C    0.000000
     7  O    1.340784   0.000000
     8  H    4.954912   4.857226   0.000000
     9  H    4.554094   4.166146   1.778609   0.000000
    10  H    4.339838   4.493134   1.781826   1.781215   0.000000
    11  H    3.911143   4.234592   2.381151   3.563941   2.976667
    12  H    3.085868   3.808017   2.990786   3.589099   2.414323
    13  H    2.610438   2.692730   4.208069   4.558507   4.565558
    14  H    3.518219   4.330732   5.980429   6.587956   6.013989
    15  H    3.447600   4.530832   5.268725   5.971544   4.975180
    16  H    4.226896   4.925423   4.918662   5.942667   5.241156
    17  H    1.224598   2.160763   4.987613   5.008889   4.648588
    18  H    1.096716   2.029279   4.430070   4.015281   3.504797
    19  H    1.904333   0.967205   4.072252   3.230322   3.747953
                   11         12         13         14         15
    11  H    0.000000
    12  H    1.769987   0.000000
    13  H    2.528646   3.063772   0.000000
    14  H    3.732788   3.750711   2.504450   0.000000
    15  H    3.123572   2.561643   3.087487   1.763724   0.000000
    16  H    2.537608   3.080484   2.589766   1.764488   1.765436
    17  H    3.395106   2.851427   1.853042   2.300927   2.480920
    18  H    3.637158   2.425505   3.116870   3.975067   3.389499
    19  H    3.868396   3.528986   2.839403   4.794820   4.783988
                   16         17         18         19
    16  H    0.000000
    17  H    3.119748   0.000000
    18  H    4.347587   1.870875   0.000000
    19  H    5.060664   2.682809   2.126867   0.000000
 Framework group  C1[X(C5H12O2)]
 Deg. of freedom    51
                         Standard orientation:                         
 ---------------------------------------------------------------------
 Center     Atomic      Atomic             Coordinates (Angstroms)
 Number     Number       Type             X           Y           Z
 ---------------------------------------------------------------------
      1          6           0        2.583595   -0.592084    0.104637
      2          8           0        1.317436   -0.078800   -0.224779
      3          6           0        0.271561   -0.976421    0.082290
      4          6           0       -1.070689   -0.420095   -0.314604
      5          6           0       -2.197765   -1.381778    0.010386
      6          6           0       -0.929124    1.573614    0.626858
      7          8           0       -0.275613    2.246664   -0.331071
      8          1           0        2.791606   -1.517869   -0.445549
      9          1           0        3.324749    0.156570   -0.170847
     10          1           0        2.662990   -0.798222    1.179403
     11          1           0        0.445407   -1.924217   -0.456141
     12          1           0        0.284760   -1.213519    1.156917
     13          1           0       -1.067215   -0.111610   -1.361945
     14          1           0       -3.162935   -0.980988   -0.301562
     15          1           0       -2.249781   -1.577990    1.084245
     16          1           0       -2.057213   -2.342308   -0.495470
     17          1           0       -1.642917    0.666297    0.218306
     18          1           0       -0.248906    1.142798    1.371498
     19          1           0        0.639404    1.938736   -0.389454
 ---------------------------------------------------------------------
 Rotational constants (GHZ):           2.6508360           1.9447260           1.2152630
 ======================================================================================================
                                       Pseudopotential Parameters
 ======================================================================================================
  Center     Atomic      Valence      Angular      Power
  Number     Number     Electrons     Momentum     of R      Exponent        Coefficient   SO-Coeffient
 ======================================================================================================
    1          6            6
                                      G and up 
                                                     0        0.0000010       -0.00007288    0.00000000
                                                     2        0.1200000        0.10466671    0.00000000
                                                     2        0.1400000       -0.65716157    0.00000000
                                                     2        0.1600000        1.18890794    0.00000000
                                                     2        0.2000000       -1.25772850    0.00000000
                                                     2        0.2600000        1.01188378    0.00000000
                                                     2        0.4000000       -1.09380874    0.00000000
                                                     2        0.5000000        0.96944888    0.00000000
                                                     2        1.0000000       -0.79256938    0.00000000
                                                     2        3.0000000        1.06443276    0.00000000
                                      S - G
                                                     0        0.0000010       -0.00635295    0.00000000
                                                     2        0.1200000        0.16918955    0.00000000
                                                     2        0.1600000       -0.38862576    0.00000000
                                                     2        0.2800000        0.25638263    0.00000000
                                                     2        0.5000000        0.29628419    0.00000000
                                                     2        0.9000000       -0.28791512    0.00000000
                                      P - G
                                                     0        0.0000010       -0.04756931    0.00000000
                                                     2        0.1200000        0.28430375    0.00000000
                                                     2        0.1600000       -0.69640032    0.00000000
                                                     2        0.2600000        1.13005668    0.00000000
                                                     2        0.4000000       -1.31433324    0.00000000
                                                     2        0.7000000        0.91526469    0.00000000
                                      D - G
                                                     0        0.0000010       -0.11496411    0.00000000
                                                     2        0.1200000        0.16620776    0.00000000
                                                     2        0.1800000       -0.30959819    0.00000000
                                                     2        0.3000000        0.16621458    0.00000000
                                                     2        0.6000000        0.27350556    0.00000000
                                      F - G
                                                     0        0.0000010        0.12037550    0.00000000
                                                     2        0.1200000       -0.48737077    0.00000000
                                                     2        0.1400000        0.58315350    0.00000000
                                                     2        0.3000000        0.00005188    0.00000000
                                                     2        0.5000000       -1.16063549    0.00000000
                                                     2        0.8000000        2.09053308    0.00000000
    2          8            8
                                      G and up 
                                                     0        0.0000010        0.00049668    0.00000000
                                                     2        0.1200000       -0.01803391    0.00000000
                                                     2        0.1400000        0.04014195    0.00000000
                                                     2        0.2000000       -0.02692147    0.00000000
                                                     2        0.2800000       -0.04241843    0.00000000
                                                     2        0.4000000        0.15412145    0.00000000
                                                     2        0.7000000       -0.40587006    0.00000000
                                                     2        1.1000000        1.75666647    0.00000000
                                      S - G
                                                     0        0.0000010       -0.01088195    0.00000000
                                                     2        0.1200000        0.09867335    0.00000000
                                                     2        0.2400000       -0.08484177    0.00000000
                                                     2        0.6000000       -1.39011554    0.00000000
                                                     2        2.5000000        1.36225910    0.00000000
                                      P - G
                                                     0        0.0000010        0.05874028    0.00000000
                                                     2        0.1200000       -0.11700340    0.00000000
                                                     2        0.1600000        0.08847775    0.00000000
                                                     2        0.3000000        0.04709907    0.00000000
                                                     2        1.2000000       -1.80388338    0.00000000
                                      D - G
                                                     0        0.0000010       -0.00541262    0.00000000
                                                     2        0.1200000       -0.26547906    0.00000000
                                                     2        0.1600000        1.04289661    0.00000000
                                                     2        0.2400000       -1.92800913    0.00000000
                                                     2        0.4000000        2.26691633    0.00000000
                                                     2        0.7000000       -1.97391482    0.00000000
                                      F - G
                                                     0        0.0000010       -0.02604870    0.00000000
                                                     2        0.1200000        0.37362552    0.00000000
                                                     2        0.1600000       -1.43526367    0.00000000
                                                     2        0.2200000        1.76778079    0.00000000
                                                     2        0.5000000       -1.90846303    0.00000000
    3          6            6
                                      G and up 
                                                     0        0.0000010       -0.00007288    0.00000000
                                                     2        0.1200000        0.10466671    0.00000000
                                                     2        0.1400000       -0.65716157    0.00000000
                                                     2        0.1600000        1.18890794    0.00000000
                                                     2        0.2000000       -1.25772850    0.00000000
                                                     2        0.2600000        1.01188378    0.00000000
                                                     2        0.4000000       -1.09380874    0.00000000
                                                     2        0.5000000        0.96944888    0.00000000
                                                     2        1.0000000       -0.79256938    0.00000000
                                                     2        3.0000000        1.06443276    0.00000000
                                      S - G
                                                     0        0.0000010       -0.00635295    0.00000000
                                                     2        0.1200000        0.16918955    0.00000000
                                                     2        0.1600000       -0.38862576    0.00000000
                                                     2        0.2800000        0.25638263    0.00000000
                                                     2        0.5000000        0.29628419    0.00000000
                                                     2        0.9000000       -0.28791512    0.00000000
                                      P - G
                                                     0        0.0000010       -0.04756931    0.00000000
                                                     2        0.1200000        0.28430375    0.00000000
                                                     2        0.1600000       -0.69640032    0.00000000
                                                     2        0.2600000        1.13005668    0.00000000
                                                     2        0.4000000       -1.31433324    0.00000000
                                                     2        0.7000000        0.91526469    0.00000000
                                      D - G
                                                     0        0.0000010       -0.11496411    0.00000000
                                                     2        0.1200000        0.16620776    0.00000000
                                                     2        0.1800000       -0.30959819    0.00000000
                                                     2        0.3000000        0.16621458    0.00000000
                                                     2        0.6000000        0.27350556    0.00000000
                                      F - G
                                                     0        0.0000010        0.12037550    0.00000000
                                                     2        0.1200000       -0.48737077    0.00000000
                                                     2        0.1400000        0.58315350    0.00000000
                                                     2        0.3000000        0.00005188    0.00000000
                                                     2        0.5000000       -1.16063549    0.00000000
                                                     2        0.8000000        2.09053308    0.00000000
    4          6            6
                                      G and up 
                                                     0        0.0000010       -0.00007288    0.00000000
                                                     2        0.1200000        0.10466671    0.00000000
                                                     2        0.1400000       -0.65716157    0.00000000
                                                     2        0.1600000        1.18890794    0.00000000
                                                     2        0.2000000       -1.25772850    0.00000000
                                                     2        0.2600000        1.01188378    0.00000000
                                                     2        0.4000000       -1.09380874    0.00000000
                                                     2        0.5000000        0.96944888    0.00000000
                                                     2        1.0000000       -0.79256938    0.00000000
                                                     2        3.0000000        1.06443276    0.00000000
                                      S - G
                                                     0        0.0000010       -0.00635295    0.00000000
                                                     2        0.1200000        0.16918955    0.00000000
                                                     2        0.1600000       -0.38862576    0.00000000
                                                     2        0.2800000        0.25638263    0.00000000
                                                     2        0.5000000        0.29628419    0.00000000
                                                     2        0.9000000       -0.28791512    0.00000000
                                      P - G
                                                     0        0.0000010       -0.04756931    0.00000000
                                                     2        0.1200000        0.28430375    0.00000000
                                                     2        0.1600000       -0.69640032    0.00000000
                                                     2        0.2600000        1.13005668    0.00000000
                                                     2        0.4000000       -1.31433324    0.00000000
                                                     2        0.7000000        0.91526469    0.00000000
                                      D - G
                                                     0        0.0000010       -0.11496411    0.00000000
                                                     2        0.1200000        0.16620776    0.00000000
                                                     2        0.1800000       -0.30959819    0.00000000
                                                     2        0.3000000        0.16621458    0.00000000
                                                     2        0.6000000        0.27350556    0.00000000
                                      F - G
                                                     0        0.0000010        0.12037550    0.00000000
                                                     2        0.1200000       -0.48737077    0.00000000
                                                     2        0.1400000        0.58315350    0.00000000
                                                     2        0.3000000        0.00005188    0.00000000
                                                     2        0.5000000       -1.16063549    0.00000000
                                                     2        0.8000000        2.09053308    0.00000000
    5          6            6
                                      G and up 
                                                     0        0.0000010       -0.00007288    0.00000000
                                                     2        0.1200000        0.10466671    0.00000000
                                                     2        0.1400000       -0.65716157    0.00000000
                                                     2        0.1600000        1.18890794    0.00000000
                                                     2        0.2000000       -1.25772850    0.00000000
                                                     2        0.2600000        1.01188378    0.00000000
                                                     2        0.4000000       -1.09380874    0.00000000
                                                     2        0.5000000        0.96944888    0.00000000
                                                     2        1.0000000       -0.79256938    0.00000000
                                                     2        3.0000000        1.06443276    0.00000000
                                      S - G
                                                     0        0.0000010       -0.00635295    0.00000000
                                                     2        0.1200000        0.16918955    0.00000000
                                                     2        0.1600000       -0.38862576    0.00000000
                                                     2        0.2800000        0.25638263    0.00000000
                                                     2        0.5000000        0.29628419    0.00000000
                                                     2        0.9000000       -0.28791512    0.00000000
                                      P - G
                                                     0        0.0000010       -0.04756931    0.00000000
                                                     2        0.1200000        0.28430375    0.00000000
                                                     2        0.1600000       -0.69640032    0.00000000
                                                     2        0.2600000        1.13005668    0.00000000
                                                     2        0.4000000       -1.31433324    0.00000000
                                                     2        0.7000000        0.91526469    0.00000000
                                      D - G
                                                     0        0.0000010       -0.11496411    0.00000000
                                                     2        0.1200000        0.16620776    0.00000000
                                                     2        0.1800000       -0.30959819    0.00000000
                                                     2        0.3000000        0.16621458    0.00000000
                                                     2        0.6000000        0.27350556    0.00000000
                                      F - G
                                                     0        0.0000010        0.12037550    0.00000000
                                                     2        0.1200000       -0.48737077    0.00000000
                                                     2        0.1400000        0.58315350    0.00000000
                                                     2        0.3000000        0.00005188    0.00000000
                                                     2        0.5000000       -1.16063549    0.00000000
                                                     2        0.8000000        2.09053308    0.00000000
    6          6            6
                                      G and up 
                                                     0        0.0000010       -0.00007288    0.00000000
                                                     2        0.1200000        0.10466671    0.00000000
                                                     2        0.1400000       -0.65716157    0.00000000
                                                     2        0.1600000        1.18890794    0.00000000
                                                     2        0.2000000       -1.25772850    0.00000000
                                                     2        0.2600000        1.01188378    0.00000000
                                                     2        0.4000000       -1.09380874    0.00000000
                                                     2        0.5000000        0.96944888    0.00000000
                                                     2        1.0000000       -0.79256938    0.00000000
                                                     2        3.0000000        1.06443276    0.00000000
                                      S - G
                                                     0        0.0000010       -0.00635295    0.00000000
                                                     2        0.1200000        0.16918955    0.00000000
                                                     2        0.1600000       -0.38862576    0.00000000
                                                     2        0.2800000        0.25638263    0.00000000
                                                     2        0.5000000        0.29628419    0.00000000
                                                     2        0.9000000       -0.28791512    0.00000000
                                      P - G
                                                     0        0.0000010       -0.04756931    0.00000000
                                                     2        0.1200000        0.28430375    0.00000000
                                                     2        0.1600000       -0.69640032    0.00000000
                                                     2        0.2600000        1.13005668    0.00000000
                                                     2        0.4000000       -1.31433324    0.00000000
                                                     2        0.7000000        0.91526469    0.00000000
                                      D - G
                                                     0        0.0000010       -0.11496411    0.00000000
                                                     2        0.1200000        0.16620776    0.00000000
                                                     2        0.1800000       -0.30959819    0.00000000
                                                     2        0.3000000        0.16621458    0.00000000
                                                     2        0.6000000        0.27350556    0.00000000
                                      F - G
                                                     0        0.0000010        0.12037550    0.00000000
                                                     2        0.1200000       -0.48737077    0.00000000
                                                     2        0.1400000        0.58315350    0.00000000
                                                     2        0.3000000        0.00005188    0.00000000
                                                     2        0.5000000       -1.16063549    0.00000000
                                                     2        0.8000000        2.09053308    0.00000000
    7          8            8
                                      G and up 
                                                     0        0.0000010        0.00049668    0.00000000
                                                     2        0.1200000       -0.01803391    0.00000000
                                                     2        0.1400000        0.04014195    0.00000000
                                                     2        0.2000000       -0.02692147    0.00000000
                                                     2        0.2800000       -0.04241843    0.00000000
                                                     2        0.4000000        0.15412145    0.00000000
                                                     2        0.7000000       -0.40587006    0.00000000
                                                     2        1.1000000        1.75666647    0.00000000
                                      S - G
                                                     0        0.0000010       -0.01088195    0.00000000
                                                     2        0.1200000        0.09867335    0.00000000
                                                     2        0.2400000       -0.08484177    0.00000000
                                                     2        0.6000000       -1.39011554    0.00000000
                                                     2        2.5000000        1.36225910    0.00000000
                                      P - G
                                                     0        0.0000010        0.05874028    0.00000000
                                                     2        0.1200000       -0.11700340    0.00000000
                                                     2        0.1600000        0.08847775    0.00000000
                                                     2        0.3000000        0.04709907    0.00000000
                                                     2        1.2000000       -1.80388338    0.00000000
                                      D - G
                                                     0        0.0000010       -0.00541262    0.00000000
                                                     2        0.1200000       -0.26547906    0.00000000
                                                     2        0.1600000        1.04289661    0.00000000
                                                     2        0.2400000       -1.92800913    0.00000000
                                                     2        0.4000000        2.26691633    0.00000000
                                                     2        0.7000000       -1.97391482    0.00000000
                                      F - G
                                                     0        0.0000010       -0.02604870    0.00000000
                                                     2        0.1200000        0.37362552    0.00000000
                                                     2        0.1600000       -1.43526367    0.00000000
                                                     2        0.2200000        1.76778079    0.00000000
                                                     2        0.5000000       -1.90846303    0.00000000
    8          1            1
                                      F and up 
                                                     0        0.0000010       -0.00007675    0.00000000
                                                     2        0.1200000        0.05352699    0.00000000
                                                     2        0.1400000       -0.25123645    0.00000000
                                                     2        0.1600000        0.32188106    0.00000000
                                                     2        0.2200000       -0.25206857    0.00000000
                                                     2        0.3000000        0.19290477    0.00000000
                                                     2        0.5000000       -0.10129770    0.00000000
                                                     2        0.9000000        0.00314995    0.00000000
                                                     2        1.5000000        0.18401192    0.00000000
                                      S - F
                                                     0        0.0000010        0.08065976    0.00000000
                                                     2        0.1200000       -0.09231673    0.00000000
                                                     2        0.1600000       -0.03278082    0.00000000
                                                     2        0.2800000        0.38423402    0.00000000
                                                     2        0.6000000       -1.09357590    0.00000000
                                                     2        1.1000000        1.53099489    0.00000000
                                                     2        3.0000000       -2.63300202    0.00000000
                                      P - F
                                                     0        0.0000010       -0.11638665    0.00000000
                                                     2        0.1200000        0.35468655    0.00000000
                                                     2        0.1600000       -0.59160923    0.00000000
                                                     2        0.3000000        0.49390547    0.00000000
                                                     2        0.6000000       -0.37949835    0.00000000
                                                     2        1.6000000        0.89304688    0.00000000
                                      D - F
                                                     0        0.0000010        0.05443663    0.00000000
                                                     2        0.1200000       -0.29679479    0.00000000
                                                     2        0.1400000        0.36849872    0.00000000
                                                     2        0.2400000        0.02793449    0.00000000
                                                     2        0.4000000       -0.46312857    0.00000000
                                                     2        0.7000000        0.97587598    0.00000000
                                                     2        1.5000000       -2.43431102    0.00000000
    9          1            1
                                      F and up 
                                                     0        0.0000010       -0.00007675    0.00000000
                                                     2        0.1200000        0.05352699    0.00000000
                                                     2        0.1400000       -0.25123645    0.00000000
                                                     2        0.1600000        0.32188106    0.00000000
                                                     2        0.2200000       -0.25206857    0.00000000
                                                     2        0.3000000        0.19290477    0.00000000
                                                     2        0.5000000       -0.10129770    0.00000000
                                                     2        0.9000000        0.00314995    0.00000000
                                                     2        1.5000000        0.18401192    0.00000000
                                      S - F
                                                     0        0.0000010        0.08065976    0.00000000
                                                     2        0.1200000       -0.09231673    0.00000000
                                                     2        0.1600000       -0.03278082    0.00000000
                                                     2        0.2800000        0.38423402    0.00000000
                                                     2        0.6000000       -1.09357590    0.00000000
                                                     2        1.1000000        1.53099489    0.00000000
                                                     2        3.0000000       -2.63300202    0.00000000
                                      P - F
                                                     0        0.0000010       -0.11638665    0.00000000
                                                     2        0.1200000        0.35468655    0.00000000
                                                     2        0.1600000       -0.59160923    0.00000000
                                                     2        0.3000000        0.49390547    0.00000000
                                                     2        0.6000000       -0.37949835    0.00000000
                                                     2        1.6000000        0.89304688    0.00000000
                                      D - F
                                                     0        0.0000010        0.05443663    0.00000000
                                                     2        0.1200000       -0.29679479    0.00000000
                                                     2        0.1400000        0.36849872    0.00000000
                                                     2        0.2400000        0.02793449    0.00000000
                                                     2        0.4000000       -0.46312857    0.00000000
                                                     2        0.7000000        0.97587598    0.00000000
                                                     2        1.5000000       -2.43431102    0.00000000
   10          1            1
                                      F and up 
                                                     0        0.0000010       -0.00007675    0.00000000
                                                     2        0.1200000        0.05352699    0.00000000
                                                     2        0.1400000       -0.25123645    0.00000000
                                                     2        0.1600000        0.32188106    0.00000000
                                                     2        0.2200000       -0.25206857    0.00000000
                                                     2        0.3000000        0.19290477    0.00000000
                                                     2        0.5000000       -0.10129770    0.00000000
                                                     2        0.9000000        0.00314995    0.00000000
                                                     2        1.5000000        0.18401192    0.00000000
                                      S - F
                                                     0        0.0000010        0.08065976    0.00000000
                                                     2        0.1200000       -0.09231673    0.00000000
                                                     2        0.1600000       -0.03278082    0.00000000
                                                     2        0.2800000        0.38423402    0.00000000
                                                     2        0.6000000       -1.09357590    0.00000000
                                                     2        1.1000000        1.53099489    0.00000000
                                                     2        3.0000000       -2.63300202    0.00000000
                                      P - F
                                                     0        0.0000010       -0.11638665    0.00000000
                                                     2        0.1200000        0.35468655    0.00000000
                                                     2        0.1600000       -0.59160923    0.00000000
                                                     2        0.3000000        0.49390547    0.00000000
                                                     2        0.6000000       -0.37949835    0.00000000
                                                     2        1.6000000        0.89304688    0.00000000
                                      D - F
                                                     0        0.0000010        0.05443663    0.00000000
                                                     2        0.1200000       -0.29679479    0.00000000
                                                     2        0.1400000        0.36849872    0.00000000
                                                     2        0.2400000        0.02793449    0.00000000
                                                     2        0.4000000       -0.46312857    0.00000000
                                                     2        0.7000000        0.97587598    0.00000000
                                                     2        1.5000000       -2.43431102    0.00000000
   11          1            1
                                      F and up 
                                                     0        0.0000010       -0.00007675    0.00000000
                                                     2        0.1200000        0.05352699    0.00000000
                                                     2        0.1400000       -0.25123645    0.00000000
                                                     2        0.1600000        0.32188106    0.00000000
                                                     2        0.2200000       -0.25206857    0.00000000
                                                     2        0.3000000        0.19290477    0.00000000
                                                     2        0.5000000       -0.10129770    0.00000000
                                                     2        0.9000000        0.00314995    0.00000000
                                                     2        1.5000000        0.18401192    0.00000000
                                      S - F
                                                     0        0.0000010        0.08065976    0.00000000
                                                     2        0.1200000       -0.09231673    0.00000000
                                                     2        0.1600000       -0.03278082    0.00000000
                                                     2        0.2800000        0.38423402    0.00000000
                                                     2        0.6000000       -1.09357590    0.00000000
                                                     2        1.1000000        1.53099489    0.00000000
                                                     2        3.0000000       -2.63300202    0.00000000
                                      P - F
                                                     0        0.0000010       -0.11638665    0.00000000
                                                     2        0.1200000        0.35468655    0.00000000
                                                     2        0.1600000       -0.59160923    0.00000000
                                                     2        0.3000000        0.49390547    0.00000000
                                                     2        0.6000000       -0.37949835    0.00000000
                                                     2        1.6000000        0.89304688    0.00000000
                                      D - F
                                                     0        0.0000010        0.05443663    0.00000000
                                                     2        0.1200000       -0.29679479    0.00000000
                                                     2        0.1400000        0.36849872    0.00000000
                                                     2        0.2400000        0.02793449    0.00000000
                                                     2        0.4000000       -0.46312857    0.00000000
                                                     2        0.7000000        0.97587598    0.00000000
                                                     2        1.5000000       -2.43431102    0.00000000
   12          1            1
                                      F and up 
                                                     0        0.0000010       -0.00007675    0.00000000
                                                     2        0.1200000        0.05352699    0.00000000
                                                     2        0.1400000       -0.25123645    0.00000000
                                                     2        0.1600000        0.32188106    0.00000000
                                                     2        0.2200000       -0.25206857    0.00000000
                                                     2        0.3000000        0.19290477    0.00000000
                                                     2        0.5000000       -0.10129770    0.00000000
                                                     2        0.9000000        0.00314995    0.00000000
                                                     2        1.5000000        0.18401192    0.00000000
                                      S - F
                                                     0        0.0000010        0.08065976    0.00000000
                                                     2        0.1200000       -0.09231673    0.00000000
                                                     2        0.1600000       -0.03278082    0.00000000
                                                     2        0.2800000        0.38423402    0.00000000
                                                     2        0.6000000       -1.09357590    0.00000000
                                                     2        1.1000000        1.53099489    0.00000000
                                                     2        3.0000000       -2.63300202    0.00000000
                                      P - F
                                                     0        0.0000010       -0.11638665    0.00000000
                                                     2        0.1200000        0.35468655    0.00000000
                                                     2        0.1600000       -0.59160923    0.00000000
                                                     2        0.3000000        0.49390547    0.00000000
                                                     2        0.6000000       -0.37949835    0.00000000
                                                     2        1.6000000        0.89304688    0.00000000
                                      D - F
                                                     0        0.0000010        0.05443663    0.00000000
                                                     2        0.1200000       -0.29679479    0.00000000
                                                     2        0.1400000        0.36849872    0.00000000
                                                     2        0.2400000        0.02793449    0.00000000
                                                     2        0.4000000       -0.46312857    0.00000000
                                                     2        0.7000000        0.97587598    0.00000000
                                                     2        1.5000000       -2.43431102    0.00000000
   13          1            1
                                      F and up 
                                                     0        0.0000010       -0.00007675    0.00000000
                                                     2        0.1200000        0.05352699    0.00000000
                                                     2        0.1400000       -0.25123645    0.00000000
                                                     2        0.1600000        0.32188106    0.00000000
                                                     2        0.2200000       -0.25206857    0.00000000
                                                     2        0.3000000        0.19290477    0.00000000
                                                     2        0.5000000       -0.10129770    0.00000000
                                                     2        0.9000000        0.00314995    0.00000000
                                                     2        1.5000000        0.18401192    0.00000000
                                      S - F
                                                     0        0.0000010        0.08065976    0.00000000
                                                     2        0.1200000       -0.09231673    0.00000000
                                                     2        0.1600000       -0.03278082    0.00000000
                                                     2        0.2800000        0.38423402    0.00000000
                                                     2        0.6000000       -1.09357590    0.00000000
                                                     2        1.1000000        1.53099489    0.00000000
                                                     2        3.0000000       -2.63300202    0.00000000
                                      P - F
                                                     0        0.0000010       -0.11638665    0.00000000
                                                     2        0.1200000        0.35468655    0.00000000
                                                     2        0.1600000       -0.59160923    0.00000000
                                                     2        0.3000000        0.49390547    0.00000000
                                                     2        0.6000000       -0.37949835    0.00000000
                                                     2        1.6000000        0.89304688    0.00000000
                                      D - F
                                                     0        0.0000010        0.05443663    0.00000000
                                                     2        0.1200000       -0.29679479    0.00000000
                                                     2        0.1400000        0.36849872    0.00000000
                                                     2        0.2400000        0.02793449    0.00000000
                                                     2        0.4000000       -0.46312857    0.00000000
                                                     2        0.7000000        0.97587598    0.00000000
                                                     2        1.5000000       -2.43431102    0.00000000
   14          1            1
                                      F and up 
                                                     0        0.0000010       -0.00007675    0.00000000
                                                     2        0.1200000        0.05352699    0.00000000
                                                     2        0.1400000       -0.25123645    0.00000000
                                                     2        0.1600000        0.32188106    0.00000000
                                                     2        0.2200000       -0.25206857    0.00000000
                                                     2        0.3000000        0.19290477    0.00000000
                                                     2        0.5000000       -0.10129770    0.00000000
                                                     2        0.9000000        0.00314995    0.00000000
                                                     2        1.5000000        0.18401192    0.00000000
                                      S - F
                                                     0        0.0000010        0.08065976    0.00000000
                                                     2        0.1200000       -0.09231673    0.00000000
                                                     2        0.1600000       -0.03278082    0.00000000
                                                     2        0.2800000        0.38423402    0.00000000
                                                     2        0.6000000       -1.09357590    0.00000000
                                                     2        1.1000000        1.53099489    0.00000000
                                                     2        3.0000000       -2.63300202    0.00000000
                                      P - F
                                                     0        0.0000010       -0.11638665    0.00000000
[...]
                                                     2        1.6000000        0.89304688    0.00000000
                                      D - F
                                                     0        0.0000010        0.05443663    0.00000000
                                                     2        0.1200000       -0.29679479    0.00000000
                                                     2        0.1400000        0.36849872    0.00000000
                                                     2        0.2400000        0.02793449    0.00000000
                                                     2        0.4000000       -0.46312857    0.00000000
                                                     2        0.7000000        0.97587598    0.00000000
                                                     2        1.5000000       -2.43431102    0.00000000
   17          1            1
                                      F and up 
                                                     0        0.0000010       -0.00007675    0.00000000
                                                     2        0.1200000        0.05352699    0.00000000
                                                     2        0.1400000       -0.25123645    0.00000000
                                                     2        0.1600000        0.32188106    0.00000000
                                                     2        0.2200000       -0.25206857    0.00000000
                                                     2        0.3000000        0.19290477    0.00000000
                                                     2        0.5000000       -0.10129770    0.00000000
                                                     2        0.9000000        0.00314995    0.00000000
                                                     2        1.5000000        0.18401192    0.00000000
                                      S - F
                                                     0        0.0000010        0.08065976    0.00000000
                                                     2        0.1200000       -0.09231673    0.00000000
                                                     2        0.1600000       -0.03278082    0.00000000
                                                     2        0.2800000        0.38423402    0.00000000
                                                     2        0.6000000       -1.09357590    0.00000000
                                                     2        1.1000000        1.53099489    0.00000000
                                                     2        3.0000000       -2.63300202    0.00000000
                                      P - F
                                                     0        0.0000010       -0.11638665    0.00000000
                                                     2        0.1200000        0.35468655    0.00000000
                                                     2        0.1600000       -0.59160923    0.00000000
                                                     2        0.3000000        0.49390547    0.00000000
                                                     2        0.6000000       -0.37949835    0.00000000
                                                     2        1.6000000        0.89304688    0.00000000
                                      D - F
                                                     0        0.0000010        0.05443663    0.00000000
                                                     2        0.1200000       -0.29679479    0.00000000
                                                     2        0.1400000        0.36849872    0.00000000
                                                     2        0.2400000        0.02793449    0.00000000
                                                     2        0.4000000       -0.46312857    0.00000000
                                                     2        0.7000000        0.97587598    0.00000000
                                                     2        1.5000000       -2.43431102    0.00000000
   18          1            1
                                      F and up 
                                                     0        0.0000010       -0.00007675    0.00000000
                                                     2        0.1200000        0.05352699    0.00000000
                                                     2        0.1400000       -0.25123645    0.00000000
                                                     2        0.1600000        0.32188106    0.00000000
                                                     2        0.2200000       -0.25206857    0.00000000
                                                     2        0.3000000        0.19290477    0.00000000
                                                     2        0.5000000       -0.10129770    0.00000000
                                                     2        0.9000000        0.00314995    0.00000000
                                                     2        1.5000000        0.18401192    0.00000000
                                      S - F
                                                     0        0.0000010        0.08065976    0.00000000
                                                     2        0.1200000       -0.09231673    0.00000000
                                                     2        0.1600000       -0.03278082    0.00000000
                                                     2        0.2800000        0.38423402    0.00000000
                                                     2        0.6000000       -1.09357590    0.00000000
                                                     2        1.1000000        1.53099489    0.00000000
                                                     2        3.0000000       -2.63300202    0.00000000
                                      P - F
                                                     0        0.0000010       -0.11638665    0.00000000
                                                     2        0.1200000        0.35468655    0.00000000
                                                     2        0.1600000       -0.59160923    0.00000000
                                                     2        0.3000000        0.49390547    0.00000000
                                                     2        0.6000000       -0.37949835    0.00000000
                                                     2        1.6000000        0.89304688    0.00000000
                                      D - F
                                                     0        0.0000010        0.05443663    0.00000000
                                                     2        0.1200000       -0.29679479    0.00000000
                                                     2        0.1400000        0.36849872    0.00000000
                                                     2        0.2400000        0.02793449    0.00000000
                                                     2        0.4000000       -0.46312857    0.00000000
                                                     2        0.7000000        0.97587598    0.00000000
                                                     2        1.5000000       -2.43431102    0.00000000
   19          1            1
                                      F and up 
                                                     0        0.0000010       -0.00007675    0.00000000
                                                     2        0.1200000        0.05352699    0.00000000
                                                     2        0.1400000       -0.25123645    0.00000000
                                                     2        0.1600000        0.32188106    0.00000000
                                                     2        0.2200000       -0.25206857    0.00000000
                                                     2        0.3000000        0.19290477    0.00000000
                                                     2        0.5000000       -0.10129770    0.00000000
                                                     2        0.9000000        0.00314995    0.00000000
                                                     2        1.5000000        0.18401192    0.00000000
                                      S - F
                                                     0        0.0000010        0.08065976    0.00000000
                                                     2        0.1200000       -0.09231673    0.00000000
                                                     2        0.1600000       -0.03278082    0.00000000
                                                     2        0.2800000        0.38423402    0.00000000
                                                     2        0.6000000       -1.09357590    0.00000000
                                                     2        1.1000000        1.53099489    0.00000000
                                                     2        3.0000000       -2.63300202    0.00000000
                                      P - F
                                                     0        0.0000010       -0.11638665    0.00000000
                                                     2        0.1200000        0.35468655    0.00000000
                                                     2        0.1600000       -0.59160923    0.00000000
                                                     2        0.3000000        0.49390547    0.00000000
                                                     2        0.6000000       -0.37949835    0.00000000
                                                     2        1.6000000        0.89304688    0.00000000
                                      D - F
                                                     0        0.0000010        0.05443663    0.00000000
                                                     2        0.1200000       -0.29679479    0.00000000
                                                     2        0.1400000        0.36849872    0.00000000
                                                     2        0.2400000        0.02793449    0.00000000
                                                     2        0.4000000       -0.46312857    0.00000000
                                                     2        0.7000000        0.97587598    0.00000000
                                                     2        1.5000000       -2.43431102    0.00000000
 ======================================================================================================
   269 basis functions,   433 primitive gaussians,   283 cartesian basis functions
    29 alpha electrons       29 beta electrons
       nuclear repulsion energy       330.2566058072 Hartrees.
 NAtoms=   19 NActive=   19 NUniq=   19 SFac= 1.00D+00 NAtFMM=   60 NAOKFM=F Big=F
   1 Symmetry operations used in ECPInt.
 ECPInt:  NShTT=    7626 NPrTT=   30486 LenC2=    7617 LenP2D=   24339.
 LDataN:  DoStor=T MaxTD1= 6 Len=  172
 Initial guess from the checkpoint file:  "Grambow2020_wb97xd3_009273_forward_mol1.chk"
 B after Tr=    -0.106611   -0.580139    0.320489
         Rot=    0.983300    0.077022    0.132391    0.098294 Ang=  20.97 deg.
 >>>>>>>>>> Convergence criterion not met.
 SCF Done:  E(RHF) =  -346.281706513     A.U. after    2 cycles
            NFock=  1  Conv=0.88D-02     -V/T= 2.0043

 **********************************************************************

            Population analysis using the SCF Density.

 **********************************************************************

 Orbital symmetries:
       Occupied  (A) (A) (A) (A) (A) (A) (A) (A) (A) (A) (A) (A)
                 (A) (A) (A) (A) (A) (A) (A) (A) (A) (A) (A) (A)
                 (A) (A) (A) (A) (A)
       Virtual   (A) (A) (A) (A) (A) (A) (A) (A) (A) (A) (A) (A)
                 (A) (A) (A) (A) (A) (A) (A) (A) (A) (A) (A) (A)
                 (A) (A) (A) (A) (A) (A) (A) (A) (A) (A) (A) (A)
                 (A) (A) (A) (A) (A) (A) (A) (A) (A) (A) (A) (A)
                 (A) (A) (A) (A) (A) (A) (A) (A) (A) (A) (A) (A)
                 (A) (A) (A) (A) (A) (A) (A) (A) (A) (A) (A) (A)
                 (A) (A) (A) (A) (A) (A) (A) (A) (A) (A) (A) (A)
                 (A) (A) (A) (A) (A) (A) (A) (A) (A) (A) (A) (A)
                 (A) (A) (A) (A) (A) (A) (A) (A) (A) (A) (A) (A)
                 (A) (A) (A) (A) (A) (A) (A) (A) (A) (A) (A) (A)
                 (A) (A) (A) (A) (A) (A) (A) (A) (A) (A) (A) (A)
                 (A) (A) (A) (A) (A) (A) (A) (A) (A) (A) (A) (A)
                 (A) (A) (A) (A) (A) (A) (A) (A) (A) (A) (A) (A)
                 (A) (A) (A) (A) (A) (A) (A) (A) (A) (A) (A) (A)
                 (A) (A) (A) (A) (A) (A) (A) (A) (A) (A) (A) (A)
                 (A) (A) (A) (A) (A) (A) (A) (A) (A) (A) (A) (A)
                 (A) (A) (A) (A) (A) (A) (A) (A) (A) (A) (A) (A)
                 (A) (A) (A) (A) (A) (A) (A) (A) (A) (A) (A) (A)
                 (A) (A) (A) (A) (A) (A) (A) (A) (A) (A) (A) (A)
                 (A) (A) (A) (A) (A) (A) (A) (A) (A) (A) (A) (A)
 The electronic state is 1-A.
 Alpha  occ. eigenvalues --  -20.56408 -20.55810 -11.30177 -11.29651 -11.28309
 Alpha  occ. eigenvalues --  -11.26006 -11.24111  -1.48894  -1.47281  -1.08509
 Alpha  occ. eigenvalues --   -0.97496  -0.90605  -0.88918  -0.80736  -0.72141
 Alpha  occ. eigenvalues --   -0.68210  -0.67877  -0.66308  -0.63143  -0.59702
 Alpha  occ. eigenvalues --   -0.57274  -0.56306  -0.55789  -0.53188  -0.51560
 Alpha  occ. eigenvalues --   -0.49447  -0.45771  -0.43740  -0.30153
 Alpha virt. eigenvalues --    0.02994   0.03410   0.03620   0.04571   0.05872
 Alpha virt. eigenvalues --    0.06037   0.06609   0.07189   0.08068   0.09041
 Alpha virt. eigenvalues --    0.09263   0.09824   0.12493   0.12772   0.13636
 Alpha virt. eigenvalues --    0.14773   0.14920   0.15077   0.15697   0.16167
 Alpha virt. eigenvalues --    0.16649   0.17584   0.17964   0.18331   0.18692
 Alpha virt. eigenvalues --    0.19281   0.19967   0.20834   0.21417   0.22490
 Alpha virt. eigenvalues --    0.23403   0.24571   0.25759   0.25912   0.27287
 Alpha virt. eigenvalues --    0.28050   0.29282   0.29924   0.30910   0.31781
 Alpha virt. eigenvalues --    0.32582   0.33078   0.34144   0.35497   0.36436
 Alpha virt. eigenvalues --    0.36993   0.37723   0.38179   0.38993   0.40272
 Alpha virt. eigenvalues --    0.41513   0.41891   0.43081   0.43378   0.43935
 Alpha virt. eigenvalues --    0.44903   0.45537   0.46521   0.46801   0.47174
 Alpha virt. eigenvalues --    0.48631   0.49761   0.49908   0.50670   0.51982
 Alpha virt. eigenvalues --    0.52647   0.53202   0.54255   0.54768   0.55776
 Alpha virt. eigenvalues --    0.56108   0.56761   0.57776   0.58592   0.58970
 Alpha virt. eigenvalues --    0.60106   0.61527   0.63008   0.63128   0.63750
 Alpha virt. eigenvalues --    0.64992   0.65956   0.66193   0.66309   0.66667
 Alpha virt. eigenvalues --    0.68288   0.68954   0.69531   0.71096   0.71659
 Alpha virt. eigenvalues --    0.72122   0.73010   0.74963   0.75540   0.76067
 Alpha virt. eigenvalues --    0.76386   0.77726   0.78581   0.79185   0.79516
 Alpha virt. eigenvalues --    0.81199   0.81946   0.82109   0.83556   0.84795
 Alpha virt. eigenvalues --    0.85839   0.86551   0.87573   0.88672   0.89728
 Alpha virt. eigenvalues --    0.91028   0.92050   0.93386   0.94870   0.95697
 Alpha virt. eigenvalues --    0.97675   0.99018   1.00932   1.02340   1.05603
 Alpha virt. eigenvalues --    1.06702   1.09351   1.11362   1.14509   1.15601
 Alpha virt. eigenvalues --    1.17541   1.18313   1.20064   1.20835   1.22218
 Alpha virt. eigenvalues --    1.25099   1.26564   1.27106   1.31207   1.32066
 Alpha virt. eigenvalues --    1.33361   1.36121   1.37266   1.41075   1.43597
 Alpha virt. eigenvalues --    1.45360   1.49227   1.51400   1.52301   1.54644
 Alpha virt. eigenvalues --    1.55168   1.58393   1.61453   1.62864   1.65109
 Alpha virt. eigenvalues --    1.68294   1.70179   1.73065   1.74037   1.75885
 Alpha virt. eigenvalues --    1.76861   1.78167   1.80975   1.82031   1.84474
 Alpha virt. eigenvalues --    1.86375   1.88467   1.89346   1.91817   1.92393
 Alpha virt. eigenvalues --    1.94829   1.96482   1.97005   1.98705   2.01399
 Alpha virt. eigenvalues --    2.04329   2.06314   2.07527   2.09605   2.11680
 Alpha virt. eigenvalues --    2.12790   2.16656   2.17368   2.20557   2.21263
 Alpha virt. eigenvalues --    2.22036   2.24398   2.27733   2.28355   2.28991
 Alpha virt. eigenvalues --    2.32372   2.32863   2.35320   2.37711   2.39620
 Alpha virt. eigenvalues --    2.41129   2.42152   2.44059   2.45114   2.45516
 Alpha virt. eigenvalues --    2.47353   2.47680   2.52458   2.55362   2.57572
 Alpha virt. eigenvalues --    2.59153   2.59390   2.62273   2.63903   2.68359
 Alpha virt. eigenvalues --    2.69579   2.70548   2.73678   2.76485   2.78333
 Alpha virt. eigenvalues --    2.80041   2.82148   2.88190   2.90402   2.93829
 Alpha virt. eigenvalues --    2.95440   2.98462   3.04440   3.05941   3.08323
 Alpha virt. eigenvalues --    3.13726   3.16226   3.20419   3.21741   3.24914
 Alpha virt. eigenvalues --    3.25599   3.39541   3.42796   3.51426   3.61029
 Alpha virt. eigenvalues --    3.87758   3.92398   3.95833   3.98523   4.08236
 Alpha virt. eigenvalues --    4.11872   4.14822   4.25065   4.28771   4.46799
          Condensed to atoms (all electrons):
 Mulliken charges:
               1
     1  C    0.088915
     2  O   -1.307825
     3  C    0.800453
     4  C   -0.894150
     5  C   -0.360383
     6  C    0.282433
     7  O   -1.069314
     8  H    0.180861
     9  H   -0.045820
    10  H    0.189458
    11  H    0.092262
    12  H    0.192427
    13  H    0.089185
    14  H    0.079662
    15  H    0.183380
    16  H    0.145521
    17  H    0.781182
    18  H    0.121210
    19  H    0.450544
 Sum of Mulliken charges =   0.00000
 Mulliken charges with hydrogens summed into heavy atoms:
               1
     1  C    0.413413
     2  O   -1.307825
     3  C    1.085141
     4  C   -0.804965
     5  C    0.048180
     6  C    1.184825
     7  O   -0.618770
 Electronic spatial extent (au):  <R**2>=           1023.3569
 Charge=              0.0000 electrons
 Dipole moment (field-independent basis, Debye):
    X=              2.4501    Y=             -3.7580    Z=              0.1448  Tot=              4.4885

 Test job not archived.
 1\1\GINC-SE054\SP\RHF\Aug-CC-pVDZ\C5H12O2\OHZDE\09-Apr-2025\0\\#t hf a
 ug-cc-pvdz iop(5/13=1,5/36=2,99/5=2) pseudo=read geom=check guess=(rea
 d,tcheck) scf=(maxcycle=1)\\title\\0,1\C,0,2.52785118,0.29611785,-0.75
 9893\O,0,1.1510364,0.56414183,-0.67226062\C,0,0.40184,-0.56750653,-0.2
 8245688\C,0,-1.07296057,-0.26557905,-0.23283796\C,0,-1.88292846,-1.478
 89164,0.18258699\C,0,-1.02445098,1.57810026,0.98361637\O,0,-0.78676559
 ,2.48998129,0.02984482\H,0,2.73305109,-0.48732365,-1.49959734\H,0,3.02
 335635,1.21436463,-1.0713111\H,0,2.93467209,-0.02144817,0.2083872\H,0,
 0.58177757,-1.38104853,-1.00648689\H,0,0.75137908,-0.92919536,0.696427
 87\H,0,-1.41155985,0.1654108,-1.17713404\H,0,-2.95085727,-1.25772371,0
 .19309288\H,0,-1.60233861,-1.81481031,1.18398943\H,0,-1.72329784,-2.31
 597183,-0.50449221\H,0,-1.65510295,0.59779603,0.60822178\H,0,-0.101580
 86,1.21267093,1.450047\H,0,0.1156542,2.39451817,-0.3048343\\Version=ES
 64L-G16RevC.01\State=1-A\HF=-346.2817065\RMSD=8.845e-03\Dipole=1.18287
 93,-1.2335391,-0.4445322\Quadrupole=2.3978754,-1.8059882,-0.5918872,4.
 4514486,1.7035984,-1.4871681\PG=C01 [X(C5H12O2)]\\@


 AN AIRPLANE IS A COLLECTION OF SPARE PARTS
 FLYING IN CLOSE FORMATION.
 Job cpu time:       0 days  0 hours  1 minutes 42.5 seconds.
 Elapsed time:       0 days  0 hours  0 minutes  7.6 seconds.
 File lengths (MBytes):  RWF=     14 Int=      0 D2E=      0 Chk=     10 Scr=      1
 Normal termination of Gaussian 16 at Wed Apr  9 19:19:35 2025.
