 Entering Gaussian System, Link 0=g16
 Input=Grambow2020_wb97xd3_008023_forward_mol2.gjf
 Output=Grambow2020_wb97xd3_008023_forward_mol2.log
 Initial command:
 /arc/software/Gaussian/g16.c01/l1.exe "/tmp/slurm/4881742/Gau-563563.inp" -scrdir="/tmp/slurm/4881742/"
 Entering Link 1 = /arc/software/Gaussian/g16.c01/l1.exe PID=    563564.
  
 Copyright (c) 1988-2019, Gaussian, Inc.  All Rights Reserved.
  
 This is part of the Gaussian(R) 16 program.  It is based on
 the Gaussian(R) 09 system (copyright 2009, Gaussian, Inc.),
 the Gaussian(R) 03 system (copyright 2003, Gaussian, Inc.),
 the Gaussian(R) 98 system (copyright 1998, Gaussian, Inc.),
 the Gaussian(R) 94 system (copyright 1995, Gaussian, Inc.),
 the Gaussian 92(TM) system (copyright 1992, Gaussian, Inc.),
 the Gaussian 90(TM) system (copyright 1990, Gaussian, Inc.),
 the Gaussian 88(TM) system (copyright 1988, Gaussian, Inc.),
 the Gaussian 86(TM) system (copyright 1986, Carnegie Mellon
 University), and the Gaussian 82(TM) system (copyright 1983,
 Carnegie Mellon University). Gaussian is a federally registered
 trademark of Gaussian, Inc.
  
 This software contains proprietary and confidential information,
 including trade secrets, belonging to Gaussian, Inc.
  
 This software is provided under written license and may be
 used, copied, transmitted, or stored only in accord with that
 written license.
  
 The following legend is applicable only to US Government
 contracts under FAR:
  
                    RESTRICTED RIGHTS LEGEND
  
 Use, reproduction and disclosure by the US Government is
 subject to restrictions as set forth in subparagraphs (a)
 and (c) of the Commercial Computer Software - Restricted
 Rights clause in FAR 52.227-19.
  
 Gaussian, Inc.
 340 Quinnipiac St., Bldg. 40, Wallingford CT 06492
  
  
 ---------------------------------------------------------------
 Warning -- This program may not be used in any manner that
 competes with the business of Gaussian, Inc. or will provide
 assistance to any competitor of Gaussian, Inc.  The licensee
 of this program is prohibited from giving any competitor of
 Gaussian, Inc. access to this program.  By using this program,
 the user acknowledges that Gaussian, Inc. is engaged in the
 business of creating and licensing software in the field of
 computational chemistry and represents and warrants to the
 licensee that it is not a competitor of Gaussian, Inc. and that
 it will not use this program in any manner prohibited above.
 ---------------------------------------------------------------
  

 Cite this work as:
 Gaussian 16, Revision C.01,
 M. J. Frisch, G. W. Trucks, H. B. Schlegel, G. E. Scuseria, 
 M. A. Robb, J. R. Cheeseman, G. Scalmani, V. Barone, 
 G. A. Petersson, H. Nakatsuji, X. Li, M. Caricato, A. V. Marenich, 
 J. Bloino, B. G. Janesko, R. Gomperts, B. Mennucci, H. P. Hratchian, 
 J. V. Ortiz, A. F. Izmaylov, J. L. Sonnenberg, D. Williams-Young, 
 F. Ding, F. Lipparini, F. Egidi, J. Goings, B. Peng, A. Petrone, 
 T. Henderson, D. Ranasinghe, V. G. Zakrzewski, J. Gao, N. Rega, 
 G. Zheng, W. Liang, M. Hada, M. Ehara, K. Toyota, R. Fukuda, 
 J. Hasegawa, M. Ishida, T. Nakajima, Y. Honda, O. Kitao, H. Nakai, 
 T. Vreven, K. Throssell, J. A. Montgomery, Jr., J. E. Peralta, 
 F. Ogliaro, M. J. Bearpark, J. J. Heyd, E. N. Brothers, K. N. Kudin, 
 V. N. Staroverov, T. A. Keith, R. Kobayashi, J. Normand, 
 K. Raghavachari, A. P. Rendell, J. C. Burant, S. S. Iyengar, 
 J. Tomasi, M. Cossi, J. M. Millam, M. Klene, C. Adamo, R. Cammi, 
 J. W. Ochterski, R. L. Martin, K. Morokuma, O. Farkas, 
 J. B. Foresman, and D. J. Fox, Gaussian, Inc., Wallingford CT, 2019.
 
 ******************************************
 Gaussian 16:  ES64L-G16RevC.01  3-Jul-2019
                 9-Apr-2025 
 ******************************************
 %nprocs=16
 Will use up to   16 processors via shared memory.
 %mem=30GB
 %chk=Grambow2020_wb97xd3_008023_forward_mol2.chk
 ----------------------------------------------------------------------
 #t hf aug-cc-pvdz symm=none int=(grid=ultrafine) guess=(read,tcheck) s
 table=(opt,rrhf)
 ----------------------------------------------------------------------
 -----
 title
 -----
 Symbolic Z-matrix:
 Charge =  0 Multiplicity = 1
 O                     2.03451  -1.02468  -0.0976 
 C                     1.30782   0.02375   0.48145 
 C                    -0.03062   0.27102  -0.25243 
 C                    -0.85785  -0.93994  -0.2078 
 C                    -1.4778   -1.96248  -0.15789 
 C                    -0.71948   1.43312   0.31363 
 C                    -1.24134   2.39567   0.79481 
 H                     1.52365  -1.83407  -0.00749 
 H                     1.09902  -0.15546   1.54229 
 H                     1.91938   0.92212   0.399 
 H                     0.20642   0.47985  -1.30072 
 H                    -2.04951  -2.85977  -0.12055 
 H                    -1.71422   3.25088   1.21664 
 
                    Distance matrix (angstroms):
                    1          2          3          4          5
     1  O    0.000000
     2  C    1.400924   0.000000
     3  C    2.442862   1.546335   0.000000
     4  C    2.895697   2.468580   1.467212   0.000000
     5  C    3.635850   3.480451   2.663036   1.196835   0.000000
     6  C    3.714071   2.474755   1.464727   2.433611   3.511053
     7  C    4.819375   3.496057   2.660205   3.504081   4.467327
     8  H    0.961362   1.933173   2.628149   2.551692   3.007956
     9  H    2.078440   1.095941   2.163097   2.739990   3.577137
    10  H    2.012436   1.089897   2.156578   3.398309   4.491313
    11  H    2.655750   2.144117   1.094861   2.083979   3.179254
    12  H    4.477424   4.466407   3.727618   2.261288   1.064605
    13  H    5.836144   4.481915   3.724543   4.508367   5.396698
                    6          7          8          9         10
     6  C    0.000000
     7  C    1.195982   0.000000
     8  H    3.976090   5.116599   0.000000
     9  H    2.709266   3.541793   2.323757   0.000000
    10  H    2.689235   3.509729   2.813973   1.772365   0.000000
    11  H    2.090967   3.187102   2.960032   3.046810   2.453344
    12  H    4.515136   5.395432   3.719184   4.471196   5.506794
    13  H    2.260348   1.064394   6.151343   4.429846   4.392573
                   11         12         13
    11  H    0.000000
    12  H    4.199420   0.000000
    13  H    4.207676   6.264230   0.000000
 Symmetry turned off by external request.
 Rotational constants (GHZ):           3.4359434           2.1807485           1.4005146
   215 basis functions,   367 primitive gaussians,   229 cartesian basis functions
    25 alpha electrons       25 beta electrons
       nuclear repulsion energy       251.3309506428 Hartrees.
 NAtoms=   13 NActive=   13 NUniq=   13 SFac= 1.00D+00 NAtFMM=   60 NAOKFM=F Big=F
 ExpMin= 2.97D-02 ExpMax= 1.17D+04 ExpMxC= 4.01D+02 IAcc=3 IRadAn=         5 AccDes= 0.00D+00
 Harris functional with IExCor=  205 and IRadAn=       5 diagonalized for initial guess.
 HarFok:  IExCor=  205 AccDes= 0.00D+00 IRadAn=         5 IDoV= 1 UseB2=F ITyADJ=14
 ICtDFT=  3500011 ScaDFX=  1.000000  1.000000  1.000000  1.000000
 FoFCou: FMM=F IPFlag=           0 FMFlag=      100000 FMFlg1=           0
         NFxFlg=           0 DoJE=T BraDBF=F KetDBF=T FulRan=T
         wScrn=  0.000000 ICntrl=       500 IOpCl=  0 I1Cent=   200000004 NGrid=           0
         NMat0=    1 NMatS0=      1 NMatT0=    0 NMatD0=    1 NMtDS0=    0 NMtDT0=    0
 Symmetry not used in FoFCou.
 SCF Done:  E(RHF) =  -305.459339121     A.U. after   14 cycles
            NFock= 14  Conv=0.76D-08     -V/T= 2.0009

 **********************************************************************

            Population analysis using the SCF Density.

 **********************************************************************

 Alpha  occ. eigenvalues --  -20.57826 -11.30269 -11.30006 -11.25892 -11.25509
 Alpha  occ. eigenvalues --  -11.24803 -11.24446  -1.38273  -1.12684  -1.03887
 Alpha  occ. eigenvalues --   -0.99949  -0.89431  -0.75818  -0.72684  -0.71594
 Alpha  occ. eigenvalues --   -0.67763  -0.66345  -0.60267  -0.59532  -0.51601
 Alpha  occ. eigenvalues --   -0.47091  -0.41828  -0.41647  -0.39890  -0.39042
 Alpha virt. eigenvalues --    0.03271   0.03580   0.04754   0.05240   0.06216
 Alpha virt. eigenvalues --    0.06758   0.09752   0.10125   0.10829   0.11260
 Alpha virt. eigenvalues --    0.11729   0.11989   0.12960   0.13764   0.14432
 Alpha virt. eigenvalues --    0.14978   0.16275   0.16437   0.16761   0.18380
 Alpha virt. eigenvalues --    0.18652   0.19105   0.19592   0.21332   0.21467
 Alpha virt. eigenvalues --    0.22197   0.22565   0.23021   0.24172   0.24757
 Alpha virt. eigenvalues --    0.26521   0.27281   0.27962   0.29455   0.32278
 Alpha virt. eigenvalues --    0.33044   0.33213   0.33966   0.34760   0.35934
 Alpha virt. eigenvalues --    0.36604   0.37916   0.38706   0.40445   0.42419
 Alpha virt. eigenvalues --    0.42897   0.43987   0.45372   0.45890   0.46782
 Alpha virt. eigenvalues --    0.47091   0.48177   0.49315   0.49527   0.50200
 Alpha virt. eigenvalues --    0.50918   0.51147   0.52842   0.54434   0.54864
 Alpha virt. eigenvalues --    0.56345   0.57110   0.59398   0.60626   0.61117
 Alpha virt. eigenvalues --    0.62463   0.63308   0.64122   0.65313   0.66336
 Alpha virt. eigenvalues --    0.67723   0.67969   0.69339   0.70975   0.72312
 Alpha virt. eigenvalues --    0.73010   0.75452   0.77039   0.77934   0.78749
 Alpha virt. eigenvalues --    0.79015   0.81129   0.81551   0.82696   0.84006
 Alpha virt. eigenvalues --    0.85470   0.86521   0.86845   0.88617   0.89480
 Alpha virt. eigenvalues --    0.90932   0.92283   0.93242   0.95487   0.96290
 Alpha virt. eigenvalues --    0.99723   1.01324   1.02098   1.05293   1.06203
 Alpha virt. eigenvalues --    1.07170   1.12043   1.14764   1.17116   1.23558
 Alpha virt. eigenvalues --    1.25027   1.25394   1.26446   1.28062   1.29396
 Alpha virt. eigenvalues --    1.30614   1.33130   1.34361   1.35968   1.37508
 Alpha virt. eigenvalues --    1.39016   1.43918   1.46806   1.54378   1.58036
 Alpha virt. eigenvalues --    1.59080   1.61495   1.62674   1.63396   1.65465
 Alpha virt. eigenvalues --    1.67628   1.69235   1.69383   1.70317   1.72338
 Alpha virt. eigenvalues --    1.73938   1.74660   1.76100   1.77802   1.81683
 Alpha virt. eigenvalues --    1.83300   1.83991   1.86696   1.91155   1.94073
 Alpha virt. eigenvalues --    1.94764   1.97386   1.97840   2.00424   2.02694
 Alpha virt. eigenvalues --    2.04574   2.08558   2.11636   2.13596   2.16586
 Alpha virt. eigenvalues --    2.20761   2.22612   2.24182   2.28729   2.32743
 Alpha virt. eigenvalues --    2.35861   2.37862   2.42683   2.43383   2.49704
 Alpha virt. eigenvalues --    2.51130   2.52683   2.56027   2.58437   2.62427
 Alpha virt. eigenvalues --    2.64207   2.67991   2.70707   2.73351   2.77441
 Alpha virt. eigenvalues --    2.82125   2.83734   2.88514   2.90262   2.93937
 Alpha virt. eigenvalues --    3.02974   3.06302   3.09434   3.16994   3.24834
 Alpha virt. eigenvalues --    3.43708   3.73049   3.74127   3.80468   3.82768
 Alpha virt. eigenvalues --    3.88024   3.97832   4.14938   4.28491   4.34906
          Condensed to atoms (all electrons):
 Mulliken charges:
               1
     1  O   -0.716310
     2  C    1.271859
     3  C   -0.731050
     4  C   -0.318564
     5  C    0.868448
     6  C   -0.164582
     7  C    0.863032
     8  H    0.157002
     9  H   -0.126780
    10  H   -0.174215
    11  H    0.114629
    12  H   -0.522079
    13  H   -0.521391
 Sum of Mulliken charges =  -0.00000
 Mulliken charges with hydrogens summed into heavy atoms:
               1
     1  O   -0.559308
     2  C    0.970864
     3  C   -0.616420
     4  C   -0.318564
     5  C    0.346369
     6  C   -0.164582
     7  C    0.341641
 Electronic spatial extent (au):  <R**2>=            830.3208
 Charge=              0.0000 electrons
 Dipole moment (field-independent basis, Debye):
    X=             -1.1062    Y=             -0.1185    Z=              0.5827  Tot=              1.2559
 NROrb=    215 NOA=    25 NOB=    25 NVA=   190 NVB=   190

 **** Warning!!: The largest alpha MO coefficient is  0.78096637D+02

    12 initial guesses have been made.
 Iteration     1 Dimension    12 NMult     0 NNew     12
 Iteration     2 Dimension    24 NMult    12 NNew     12
 New state      1 was old state      4
 Iteration     3 Dimension    27 NMult    24 NNew      3
 New state      1 was old state      2
 Iteration     4 Dimension    30 NMult    27 NNew      3
 Iteration     5 Dimension    33 NMult    30 NNew      3
 Iteration     6 Dimension    36 NMult    33 NNew      3
 Iteration     7 Dimension    39 NMult    36 NNew      3
 Iteration     8 Dimension    42 NMult    39 NNew      3
 Iteration     9 Dimension    45 NMult    42 NNew      3
 Iteration    10 Dimension    48 NMult    45 NNew      3
 Iteration    11 Dimension    51 NMult    48 NNew      3
 Iteration    12 Dimension    54 NMult    51 NNew      3
 ***********************************************************************
 Stability analysis using <AA,BB:AA,BB> singles matrix:
 ***********************************************************************
 Ground to excited state transition densities written to RWF  633

 Eigenvectors of the stability matrix:
 
 Excited state symmetry could not be determined.
 Eigenvector   1:      Singlet-?Sym  Eigenvalue= 0.1993849  <S**2>=0.000
      22 -> 37        -0.11783
      22 -> 51        -0.11188
      23 -> 35        -0.13626
      23 -> 38        -0.11474
      23 -> 50        -0.17321
      24 -> 32        -0.16974
      24 -> 40         0.10403
      24 -> 43         0.10335
      24 -> 47        -0.13017
      24 -> 48         0.11396
      24 -> 49        -0.17610
      24 -> 51        -0.10464
      25 -> 33        -0.11756
      25 -> 52        -0.18488
      25 -> 53         0.16572
 The wavefunction is stable under the perturbations considered.
 The wavefunction is already stable.

 **********************************************************************

            Population analysis using the SCF Density.

 **********************************************************************

 Alpha  occ. eigenvalues --  -20.57826 -11.30269 -11.30006 -11.25892 -11.25509
 Alpha  occ. eigenvalues --  -11.24803 -11.24446  -1.38273  -1.12684  -1.03887
 Alpha  occ. eigenvalues --   -0.99949  -0.89431  -0.75818  -0.72684  -0.71594
 Alpha  occ. eigenvalues --   -0.67763  -0.66345  -0.60267  -0.59532  -0.51601
 Alpha  occ. eigenvalues --   -0.47091  -0.41828  -0.41647  -0.39890  -0.39042
 Alpha virt. eigenvalues --    0.03271   0.03580   0.04754   0.05240   0.06216
 Alpha virt. eigenvalues --    0.06758   0.09752   0.10125   0.10829   0.11260
 Alpha virt. eigenvalues --    0.11729   0.11989   0.12960   0.13764   0.14432
 Alpha virt. eigenvalues --    0.14978   0.16275   0.16437   0.16761   0.18380
 Alpha virt. eigenvalues --    0.18652   0.19105   0.19592   0.21332   0.21467
 Alpha virt. eigenvalues --    0.22197   0.22565   0.23021   0.24172   0.24757
 Alpha virt. eigenvalues --    0.26521   0.27281   0.27962   0.29455   0.32278
 Alpha virt. eigenvalues --    0.33044   0.33213   0.33966   0.34760   0.35934
 Alpha virt. eigenvalues --    0.36604   0.37916   0.38706   0.40445   0.42419
 Alpha virt. eigenvalues --    0.42897   0.43987   0.45372   0.45890   0.46782
 Alpha virt. eigenvalues --    0.47091   0.48177   0.49315   0.49527   0.50200
 Alpha virt. eigenvalues --    0.50918   0.51147   0.52842   0.54434   0.54864
 Alpha virt. eigenvalues --    0.56345   0.57110   0.59398   0.60626   0.61117
 Alpha virt. eigenvalues --    0.62463   0.63308   0.64122   0.65313   0.66336
 Alpha virt. eigenvalues --    0.67723   0.67969   0.69339   0.70975   0.72312
 Alpha virt. eigenvalues --    0.73010   0.75452   0.77039   0.77934   0.78749
 Alpha virt. eigenvalues --    0.79015   0.81129   0.81551   0.82696   0.84006
 Alpha virt. eigenvalues --    0.85470   0.86521   0.86845   0.88617   0.89480
 Alpha virt. eigenvalues --    0.90932   0.92283   0.93242   0.95487   0.96290
 Alpha virt. eigenvalues --    0.99723   1.01324   1.02098   1.05293   1.06203
 Alpha virt. eigenvalues --    1.07170   1.12043   1.14764   1.17116   1.23558
 Alpha virt. eigenvalues --    1.25027   1.25394   1.26446   1.28062   1.29396
 Alpha virt. eigenvalues --    1.30614   1.33130   1.34361   1.35968   1.37508
 Alpha virt. eigenvalues --    1.39016   1.43918   1.46806   1.54378   1.58036
 Alpha virt. eigenvalues --    1.59080   1.61495   1.62674   1.63396   1.65465
 Alpha virt. eigenvalues --    1.67628   1.69235   1.69383   1.70317   1.72338
 Alpha virt. eigenvalues --    1.73938   1.74660   1.76100   1.77802   1.81683
 Alpha virt. eigenvalues --    1.83300   1.83991   1.86696   1.91155   1.94073
 Alpha virt. eigenvalues --    1.94764   1.97386   1.97840   2.00424   2.02694
 Alpha virt. eigenvalues --    2.04574   2.08558   2.11636   2.13596   2.16586
 Alpha virt. eigenvalues --    2.20761   2.22612   2.24182   2.28729   2.32743
 Alpha virt. eigenvalues --    2.35861   2.37862   2.42683   2.43383   2.49704
 Alpha virt. eigenvalues --    2.51130   2.52683   2.56027   2.58437   2.62427
 Alpha virt. eigenvalues --    2.64207   2.67991   2.70707   2.73351   2.77441
 Alpha virt. eigenvalues --    2.82125   2.83734   2.88514   2.90262   2.93937
 Alpha virt. eigenvalues --    3.02974   3.06302   3.09434   3.16994   3.24834
 Alpha virt. eigenvalues --    3.43708   3.73049   3.74127   3.80468   3.82768
 Alpha virt. eigenvalues --    3.88024   3.97832   4.14938   4.28491   4.34906
          Condensed to atoms (all electrons):
 Mulliken charges:
               1
     1  O   -0.716310
     2  C    1.271859
     3  C   -0.731050
     4  C   -0.318564
     5  C    0.868448
     6  C   -0.164582
     7  C    0.863032
     8  H    0.157002
     9  H   -0.126780
    10  H   -0.174215
    11  H    0.114629
    12  H   -0.522079
    13  H   -0.521391
 Sum of Mulliken charges =  -0.00000
 Mulliken charges with hydrogens summed into heavy atoms:
               1
     1  O   -0.559308
     2  C    0.970864
     3  C   -0.616420
     4  C   -0.318564
     5  C    0.346369
     6  C   -0.164582
     7  C    0.341641
 Electronic spatial extent (au):  <R**2>=            830.3208
 Charge=              0.0000 electrons
 Dipole moment (field-independent basis, Debye):
    X=             -1.1062    Y=             -0.1185    Z=              0.5827  Tot=              1.2559
 Unable to Open any file for archive entry.
 1\1\GINC-SE219\Stability\RHF\Aug-CC-pVDZ\C6H6O1\OHZDE\09-Apr-2025\0\\#
 t hf aug-cc-pvdz symm=none int=(grid=ultrafine) guess=(read,tcheck) st
 able=(opt,rrhf)\\title\\0,1\O,0,2.03451098,-1.02467701,-0.09760119\C,0
 ,1.30782034,0.02375234,0.48145283\C,0,-0.03062403,0.27101633,-0.252426
 53\C,0,-0.85784737,-0.93994273,-0.20779657\C,0,-1.47779527,-1.96248226
 ,-0.15788649\C,0,-0.71947593,1.4331203,0.31363333\C,0,-1.24134355,2.39
 566775,0.79480948\H,0,1.52365287,-1.83407189,-0.00748681\H,0,1.0990224
 6,-0.15546166,1.5422885\H,0,1.91938363,0.92212183,0.39900444\H,0,0.206
 42315,0.47985202,-1.30071919\H,0,-2.04950849,-2.85977445,-0.12055296\H
 ,0,-1.71421879,3.25087942,1.21663578\\Version=ES64L-G16RevC.01\HF=-305
 .4593391\RMSD=7.600e-09\Dipole=-0.4352143,-0.04663,0.2292518\Quadrupol
 e=-4.2023712,5.5757571,-1.3733859,1.735083,0.0880231,0.770845\PG=Unkno
 wn\\@
 The archive entry for this job was punched.


 "PERFECTION IS NOT AN ACCIDENT"
         --  EAGLE ELECTRIC MANUFACTURING CO.,INC. NY
 Job cpu time:       0 days  0 hours  6 minutes 25.4 seconds.
 Elapsed time:       0 days  0 hours  0 minutes 28.3 seconds.
 File lengths (MBytes):  RWF=    221 Int=      0 D2E=      0 Chk=      7 Scr=      1
 Normal termination of Gaussian 16 at Wed Apr  9 18:44:34 2025.
 Initial command:
 /arc/software/Gaussian/g16.c01/l1.exe "/tmp/slurm/4881742/Gau-563563.inp" -scrdir="/tmp/slurm/4881742/"
 Entering Link 1 = /arc/software/Gaussian/g16.c01/l1.exe PID=    563779.
  
 Copyright (c) 1988-2019, Gaussian, Inc.  All Rights Reserved.
  
 This is part of the Gaussian(R) 16 program.  It is based on
 the Gaussian(R) 09 system (copyright 2009, Gaussian, Inc.),
 the Gaussian(R) 03 system (copyright 2003, Gaussian, Inc.),
 the Gaussian(R) 98 system (copyright 1998, Gaussian, Inc.),
 the Gaussian(R) 94 system (copyright 1995, Gaussian, Inc.),
 the Gaussian 92(TM) system (copyright 1992, Gaussian, Inc.),
 the Gaussian 90(TM) system (copyright 1990, Gaussian, Inc.),
 the Gaussian 88(TM) system (copyright 1988, Gaussian, Inc.),
 the Gaussian 86(TM) system (copyright 1986, Carnegie Mellon
 University), and the Gaussian 82(TM) system (copyright 1983,
 Carnegie Mellon University). Gaussian is a federally registered
 trademark of Gaussian, Inc.
  
 This software contains proprietary and confidential information,
 including trade secrets, belonging to Gaussian, Inc.
  
 This software is provided under written license and may be
 used, copied, transmitted, or stored only in accord with that
 written license.
  
 The following legend is applicable only to US Government
 contracts under FAR:
  
                    RESTRICTED RIGHTS LEGEND
  
 Use, reproduction and disclosure by the US Government is
 subject to restrictions as set forth in subparagraphs (a)
 and (c) of the Commercial Computer Software - Restricted
 Rights clause in FAR 52.227-19.
  
 Gaussian, Inc.
 340 Quinnipiac St., Bldg. 40, Wallingford CT 06492
  
  
 ---------------------------------------------------------------
 Warning -- This program may not be used in any manner that
 competes with the business of Gaussian, Inc. or will provide
 assistance to any competitor of Gaussian, Inc.  The licensee
 of this program is prohibited from giving any competitor of
 Gaussian, Inc. access to this program.  By using this program,
 the user acknowledges that Gaussian, Inc. is engaged in the
 business of creating and licensing software in the field of
 computational chemistry and represents and warrants to the
 licensee that it is not a competitor of Gaussian, Inc. and that
 it will not use this program in any manner prohibited above.
 ---------------------------------------------------------------
  

 Cite this work as:
 Gaussian 16, Revision C.01,
 M. J. Frisch, G. W. Trucks, H. B. Schlegel, G. E. Scuseria, 
 M. A. Robb, J. R. Cheeseman, G. Scalmani, V. Barone, 
 G. A. Petersson, H. Nakatsuji, X. Li, M. Caricato, A. V. Marenich, 
 J. Bloino, B. G. Janesko, R. Gomperts, B. Mennucci, H. P. Hratchian, 
 J. V. Ortiz, A. F. Izmaylov, J. L. Sonnenberg, D. Williams-Young, 
 F. Ding, F. Lipparini, F. Egidi, J. Goings, B. Peng, A. Petrone, 
 T. Henderson, D. Ranasinghe, V. G. Zakrzewski, J. Gao, N. Rega, 
 G. Zheng, W. Liang, M. Hada, M. Ehara, K. Toyota, R. Fukuda, 
 J. Hasegawa, M. Ishida, T. Nakajima, Y. Honda, O. Kitao, H. Nakai, 
 T. Vreven, K. Throssell, J. A. Montgomery, Jr., J. E. Peralta, 
 F. Ogliaro, M. J. Bearpark, J. J. Heyd, E. N. Brothers, K. N. Kudin, 
 V. N. Staroverov, T. A. Keith, R. Kobayashi, J. Normand, 
 K. Raghavachari, A. P. Rendell, J. C. Burant, S. S. Iyengar, 
 J. Tomasi, M. Cossi, J. M. Millam, M. Klene, C. Adamo, R. Cammi, 
 J. W. Ochterski, R. L. Martin, K. Morokuma, O. Farkas, 
 J. B. Foresman, and D. J. Fox, Gaussian, Inc., Wallingford CT, 2019.
 
 ******************************************
 Gaussian 16:  ES64L-G16RevC.01  3-Jul-2019
                 9-Apr-2025 
 ******************************************
 %nprocs=16
 Will use up to   16 processors via shared memory.
 %mem=30GB
 %chk=Grambow2020_wb97xd3_008023_forward_mol2.chk
 ----------------------------------------------------------------------
 #t hf aug-cc-pvdz iop(5/13=1,5/36=2,99/5=2) pseudo=read geom=check gue
 ss=(read,tcheck) scf=(maxcycle=1)
 ----------------------------------------------------------------------
 -----
 title
 -----
 Structure from the checkpoint file:  "Grambow2020_wb97xd3_008023_forward_mol2.chk"
 Charge =  0 Multiplicity = 1
 Z-Matrix found in chk file.
 O,0,2.03451098,-1.02467701,-0.09760119
 C,0,1.30782034,0.02375234,0.48145283
 C,0,-0.03062403,0.27101633,-0.25242653
 C,0,-0.85784737,-0.93994273,-0.20779657
 C,0,-1.47779527,-1.96248226,-0.15788649
 C,0,-0.71947593,1.4331203,0.31363333
 C,0,-1.24134355,2.39566775,0.79480948
 H,0,1.52365287,-1.83407189,-0.00748681
 H,0,1.09902246,-0.15546166,1.5422885
 H,0,1.91938363,0.92212183,0.39900444
 H,0,0.20642315,0.47985202,-1.30071919
 H,0,-2.04950849,-2.85977445,-0.12055296
 H,0,-1.71421879,3.25087942,1.21663578
 Recover connectivity data from disk.
                    Distance matrix (angstroms):
                    1          2          3          4          5
     1  O    0.000000
     2  C    1.400924   0.000000
     3  C    2.442862   1.546335   0.000000
     4  C    2.895697   2.468580   1.467212   0.000000
     5  C    3.635850   3.480451   2.663036   1.196835   0.000000
     6  C    3.714071   2.474755   1.464727   2.433611   3.511053
     7  C    4.819375   3.496057   2.660205   3.504081   4.467327
     8  H    0.961362   1.933173   2.628149   2.551692   3.007956
     9  H    2.078440   1.095941   2.163097   2.739990   3.577137
    10  H    2.012436   1.089897   2.156578   3.398309   4.491313
    11  H    2.655750   2.144117   1.094861   2.083979   3.179254
    12  H    4.477424   4.466407   3.727618   2.261288   1.064605
    13  H    5.836144   4.481915   3.724543   4.508367   5.396698
                    6          7          8          9         10
     6  C    0.000000
     7  C    1.195982   0.000000
     8  H    3.976090   5.116599   0.000000
     9  H    2.709266   3.541793   2.323757   0.000000
    10  H    2.689235   3.509729   2.813973   1.772365   0.000000
    11  H    2.090967   3.187102   2.960032   3.046810   2.453344
    12  H    4.515136   5.395432   3.719184   4.471196   5.506794
    13  H    2.260348   1.064394   6.151343   4.429846   4.392573
                   11         12         13
    11  H    0.000000
    12  H    4.199420   0.000000
    13  H    4.207676   6.264230   0.000000
 Framework group  C1[X(C6H6O)]
 Deg. of freedom    33
                         Standard orientation:                         
 ---------------------------------------------------------------------
 Center     Atomic      Atomic             Coordinates (Angstroms)
 Number     Number       Type             X           Y           Z
 ---------------------------------------------------------------------
      1          8           0        1.892675   -1.297604    0.064424
      2          6           0        0.540498   -1.224019   -0.294449
      3          6           0       -0.189039   -0.076103    0.441225
      4          6           0        0.442178    1.208063    0.116886
      5          6           0        1.010982    2.222126   -0.166931
      6          6           0       -1.618153   -0.087115    0.120386
      7          6           0       -2.780504   -0.140399   -0.156153
      8          1           0        2.324283   -0.483640   -0.210156
      9          1           0        0.406724   -1.090550   -1.373975
     10          1           0        0.079872   -2.168652   -0.005713
     11          1           0       -0.069233   -0.249708    1.515575
     12          1           0        1.497870    3.137035   -0.410376
     13          1           0       -3.816683   -0.178974   -0.396530
 ---------------------------------------------------------------------
 Rotational constants (GHZ):           3.4359434           2.1807485           1.4005146
 ======================================================================================================
                                       Pseudopotential Parameters
 ======================================================================================================
  Center     Atomic      Valence      Angular      Power
  Number     Number     Electrons     Momentum     of R      Exponent        Coefficient   SO-Coeffient
 ======================================================================================================
    1          8            8
                                      G and up 
                                                     0        0.0000010        0.00049668    0.00000000
                                                     2        0.1200000       -0.01803391    0.00000000
                                                     2        0.1400000        0.04014195    0.00000000
                                                     2        0.2000000       -0.02692147    0.00000000
                                                     2        0.2800000       -0.04241843    0.00000000
                                                     2        0.4000000        0.15412145    0.00000000
                                                     2        0.7000000       -0.40587006    0.00000000
                                                     2        1.1000000        1.75666647    0.00000000
                                      S - G
                                                     0        0.0000010       -0.01088195    0.00000000
                                                     2        0.1200000        0.09867335    0.00000000
                                                     2        0.2400000       -0.08484177    0.00000000
                                                     2        0.6000000       -1.39011554    0.00000000
                                                     2        2.5000000        1.36225910    0.00000000
                                      P - G
                                                     0        0.0000010        0.05874028    0.00000000
                                                     2        0.1200000       -0.11700340    0.00000000
                                                     2        0.1600000        0.08847775    0.00000000
                                                     2        0.3000000        0.04709907    0.00000000
                                                     2        1.2000000       -1.80388338    0.00000000
                                      D - G
                                                     0        0.0000010       -0.00541262    0.00000000
                                                     2        0.1200000       -0.26547906    0.00000000
                                                     2        0.1600000        1.04289661    0.00000000
                                                     2        0.2400000       -1.92800913    0.00000000
                                                     2        0.4000000        2.26691633    0.00000000
                                                     2        0.7000000       -1.97391482    0.00000000
                                      F - G
                                                     0        0.0000010       -0.02604870    0.00000000
                                                     2        0.1200000        0.37362552    0.00000000
                                                     2        0.1600000       -1.43526367    0.00000000
                                                     2        0.2200000        1.76778079    0.00000000
                                                     2        0.5000000       -1.90846303    0.00000000
    2          6            6
                                      G and up 
                                                     0        0.0000010       -0.00007288    0.00000000
                                                     2        0.1200000        0.10466671    0.00000000
                                                     2        0.1400000       -0.65716157    0.00000000
                                                     2        0.1600000        1.18890794    0.00000000
                                                     2        0.2000000       -1.25772850    0.00000000
                                                     2        0.2600000        1.01188378    0.00000000
                                                     2        0.4000000       -1.09380874    0.00000000
                                                     2        0.5000000        0.96944888    0.00000000
                                                     2        1.0000000       -0.79256938    0.00000000
                                                     2        3.0000000        1.06443276    0.00000000
                                      S - G
                                                     0        0.0000010       -0.00635295    0.00000000
                                                     2        0.1200000        0.16918955    0.00000000
                                                     2        0.1600000       -0.38862576    0.00000000
                                                     2        0.2800000        0.25638263    0.00000000
                                                     2        0.5000000        0.29628419    0.00000000
                                                     2        0.9000000       -0.28791512    0.00000000
                                      P - G
                                                     0        0.0000010       -0.04756931    0.00000000
                                                     2        0.1200000        0.28430375    0.00000000
                                                     2        0.1600000       -0.69640032    0.00000000
                                                     2        0.2600000        1.13005668    0.00000000
                                                     2        0.4000000       -1.31433324    0.00000000
                                                     2        0.7000000        0.91526469    0.00000000
                                      D - G
                                                     0        0.0000010       -0.11496411    0.00000000
                                                     2        0.1200000        0.16620776    0.00000000
                                                     2        0.1800000       -0.30959819    0.00000000
                                                     2        0.3000000        0.16621458    0.00000000
                                                     2        0.6000000        0.27350556    0.00000000
                                      F - G
                                                     0        0.0000010        0.12037550    0.00000000
                                                     2        0.1200000       -0.48737077    0.00000000
                                                     2        0.1400000        0.58315350    0.00000000
                                                     2        0.3000000        0.00005188    0.00000000
                                                     2        0.5000000       -1.16063549    0.00000000
                                                     2        0.8000000        2.09053308    0.00000000
    3          6            6
                                      G and up 
                                                     0        0.0000010       -0.00007288    0.00000000
                                                     2        0.1200000        0.10466671    0.00000000
                                                     2        0.1400000       -0.65716157    0.00000000
                                                     2        0.1600000        1.18890794    0.00000000
                                                     2        0.2000000       -1.25772850    0.00000000
                                                     2        0.2600000        1.01188378    0.00000000
                                                     2        0.4000000       -1.09380874    0.00000000
                                                     2        0.5000000        0.96944888    0.00000000
                                                     2        1.0000000       -0.79256938    0.00000000
                                                     2        3.0000000        1.06443276    0.00000000
                                      S - G
                                                     0        0.0000010       -0.00635295    0.00000000
                                                     2        0.1200000        0.16918955    0.00000000
                                                     2        0.1600000       -0.38862576    0.00000000
                                                     2        0.2800000        0.25638263    0.00000000
                                                     2        0.5000000        0.29628419    0.00000000
                                                     2        0.9000000       -0.28791512    0.00000000
                                      P - G
                                                     0        0.0000010       -0.04756931    0.00000000
                                                     2        0.1200000        0.28430375    0.00000000
                                                     2        0.1600000       -0.69640032    0.00000000
                                                     2        0.2600000        1.13005668    0.00000000
                                                     2        0.4000000       -1.31433324    0.00000000
                                                     2        0.7000000        0.91526469    0.00000000
                                      D - G
                                                     0        0.0000010       -0.11496411    0.00000000
                                                     2        0.1200000        0.16620776    0.00000000
                                                     2        0.1800000       -0.30959819    0.00000000
                                                     2        0.3000000        0.16621458    0.00000000
                                                     2        0.6000000        0.27350556    0.00000000
                                      F - G
                                                     0        0.0000010        0.12037550    0.00000000
                                                     2        0.1200000       -0.48737077    0.00000000
                                                     2        0.1400000        0.58315350    0.00000000
                                                     2        0.3000000        0.00005188    0.00000000
                                                     2        0.5000000       -1.16063549    0.00000000
                                                     2        0.8000000        2.09053308    0.00000000
    4          6            6
                                      G and up 
                                                     0        0.0000010       -0.00007288    0.00000000
                                                     2        0.1200000        0.10466671    0.00000000
                                                     2        0.1400000       -0.65716157    0.00000000
                                                     2        0.1600000        1.18890794    0.00000000
                                                     2        0.2000000       -1.25772850    0.00000000
                                                     2        0.2600000        1.01188378    0.00000000
                                                     2        0.4000000       -1.09380874    0.00000000
                                                     2        0.5000000        0.96944888    0.00000000
                                                     2        1.0000000       -0.79256938    0.00000000
                                                     2        3.0000000        1.06443276    0.00000000
                                      S - G
                                                     0        0.0000010       -0.00635295    0.00000000
                                                     2        0.1200000        0.16918955    0.00000000
                                                     2        0.1600000       -0.38862576    0.00000000
                                                     2        0.2800000        0.25638263    0.00000000
                                                     2        0.5000000        0.29628419    0.00000000
                                                     2        0.9000000       -0.28791512    0.00000000
                                      P - G
                                                     0        0.0000010       -0.04756931    0.00000000
                                                     2        0.1200000        0.28430375    0.00000000
                                                     2        0.1600000       -0.69640032    0.00000000
                                                     2        0.2600000        1.13005668    0.00000000
                                                     2        0.4000000       -1.31433324    0.00000000
                                                     2        0.7000000        0.91526469    0.00000000
                                      D - G
                                                     0        0.0000010       -0.11496411    0.00000000
                                                     2        0.1200000        0.16620776    0.00000000
                                                     2        0.1800000       -0.30959819    0.00000000
                                                     2        0.3000000        0.16621458    0.00000000
                                                     2        0.6000000        0.27350556    0.00000000
                                      F - G
                                                     0        0.0000010        0.12037550    0.00000000
                                                     2        0.1200000       -0.48737077    0.00000000
                                                     2        0.1400000        0.58315350    0.00000000
                                                     2        0.3000000        0.00005188    0.00000000
                                                     2        0.5000000       -1.16063549    0.00000000
                                                     2        0.8000000        2.09053308    0.00000000
    5          6            6
                                      G and up 
                                                     0        0.0000010       -0.00007288    0.00000000
                                                     2        0.1200000        0.10466671    0.00000000
                                                     2        0.1400000       -0.65716157    0.00000000
                                                     2        0.1600000        1.18890794    0.00000000
                                                     2        0.2000000       -1.25772850    0.00000000
                                                     2        0.2600000        1.01188378    0.00000000
                                                     2        0.4000000       -1.09380874    0.00000000
                                                     2        0.5000000        0.96944888    0.00000000
                                                     2        1.0000000       -0.79256938    0.00000000
                                                     2        3.0000000        1.06443276    0.00000000
                                      S - G
                                                     0        0.0000010       -0.00635295    0.00000000
                                                     2        0.1200000        0.16918955    0.00000000
                                                     2        0.1600000       -0.38862576    0.00000000
                                                     2        0.2800000        0.25638263    0.00000000
                                                     2        0.5000000        0.29628419    0.00000000
                                                     2        0.9000000       -0.28791512    0.00000000
                                      P - G
                                                     0        0.0000010       -0.04756931    0.00000000
                                                     2        0.1200000        0.28430375    0.00000000
                                                     2        0.1600000       -0.69640032    0.00000000
                                                     2        0.2600000        1.13005668    0.00000000
                                                     2        0.4000000       -1.31433324    0.00000000
                                                     2        0.7000000        0.91526469    0.00000000
                                      D - G
                                                     0        0.0000010       -0.11496411    0.00000000
                                                     2        0.1200000        0.16620776    0.00000000
                                                     2        0.1800000       -0.30959819    0.00000000
                                                     2        0.3000000        0.16621458    0.00000000
                                                     2        0.6000000        0.27350556    0.00000000
                                      F - G
                                                     0        0.0000010        0.12037550    0.00000000
                                                     2        0.1200000       -0.48737077    0.00000000
                                                     2        0.1400000        0.58315350    0.00000000
                                                     2        0.3000000        0.00005188    0.00000000
                                                     2        0.5000000       -1.16063549    0.00000000
                                                     2        0.8000000        2.09053308    0.00000000
    6          6            6
                                      G and up 
                                                     0        0.0000010       -0.00007288    0.00000000
                                                     2        0.1200000        0.10466671    0.00000000
                                                     2        0.1400000       -0.65716157    0.00000000
                                                     2        0.1600000        1.18890794    0.00000000
                                                     2        0.2000000       -1.25772850    0.00000000
                                                     2        0.2600000        1.01188378    0.00000000
                                                     2        0.4000000       -1.09380874    0.00000000
                                                     2        0.5000000        0.96944888    0.00000000
                                                     2        1.0000000       -0.79256938    0.00000000
                                                     2        3.0000000        1.06443276    0.00000000
                                      S - G
                                                     0        0.0000010       -0.00635295    0.00000000
                                                     2        0.1200000        0.16918955    0.00000000
                                                     2        0.1600000       -0.38862576    0.00000000
                                                     2        0.2800000        0.25638263    0.00000000
                                                     2        0.5000000        0.29628419    0.00000000
                                                     2        0.9000000       -0.28791512    0.00000000
                                      P - G
                                                     0        0.0000010       -0.04756931    0.00000000
                                                     2        0.1200000        0.28430375    0.00000000
                                                     2        0.1600000       -0.69640032    0.00000000
                                                     2        0.2600000        1.13005668    0.00000000
                                                     2        0.4000000       -1.31433324    0.00000000
                                                     2        0.7000000        0.91526469    0.00000000
                                      D - G
                                                     0        0.0000010       -0.11496411    0.00000000
                                                     2        0.1200000        0.16620776    0.00000000
                                                     2        0.1800000       -0.30959819    0.00000000
                                                     2        0.3000000        0.16621458    0.00000000
                                                     2        0.6000000        0.27350556    0.00000000
                                      F - G
                                                     0        0.0000010        0.12037550    0.00000000
                                                     2        0.1200000       -0.48737077    0.00000000
                                                     2        0.1400000        0.58315350    0.00000000
                                                     2        0.3000000        0.00005188    0.00000000
                                                     2        0.5000000       -1.16063549    0.00000000
                                                     2        0.8000000        2.09053308    0.00000000
    7          6            6
                                      G and up 
                                                     0        0.0000010       -0.00007288    0.00000000
                                                     2        0.1200000        0.10466671    0.00000000
                                                     2        0.1400000       -0.65716157    0.00000000
                                                     2        0.1600000        1.18890794    0.00000000
                                                     2        0.2000000       -1.25772850    0.00000000
                                                     2        0.2600000        1.01188378    0.00000000
                                                     2        0.4000000       -1.09380874    0.00000000
                                                     2        0.5000000        0.96944888    0.00000000
                                                     2        1.0000000       -0.79256938    0.00000000
                                                     2        3.0000000        1.06443276    0.00000000
                                      S - G
                                                     0        0.0000010       -0.00635295    0.00000000
                                                     2        0.1200000        0.16918955    0.00000000
                                                     2        0.1600000       -0.38862576    0.00000000
                                                     2        0.2800000        0.25638263    0.00000000
                                                     2        0.5000000        0.29628419    0.00000000
                                                     2        0.9000000       -0.28791512    0.00000000
                                      P - G
                                                     0        0.0000010       -0.04756931    0.00000000
                                                     2        0.1200000        0.28430375    0.00000000
                                                     2        0.1600000       -0.69640032    0.00000000
                                                     2        0.2600000        1.13005668    0.00000000
                                                     2        0.4000000       -1.31433324    0.00000000
                                                     2        0.7000000        0.91526469    0.00000000
                                      D - G
                                                     0        0.0000010       -0.11496411    0.00000000
                                                     2        0.1200000        0.16620776    0.00000000
                                                     2        0.1800000       -0.30959819    0.00000000
                                                     2        0.3000000        0.16621458    0.00000000
                                                     2        0.6000000        0.27350556    0.00000000
                                      F - G
                                                     0        0.0000010        0.12037550    0.00000000
                                                     2        0.1200000       -0.48737077    0.00000000
                                                     2        0.1400000        0.58315350    0.00000000
                                                     2        0.3000000        0.00005188    0.00000000
                                                     2        0.5000000       -1.16063549    0.00000000
                                                     2        0.8000000        2.09053308    0.00000000
    8          1            1
                                      F and up 
                                                     0        0.0000010       -0.00007675    0.00000000
                                                     2        0.1200000        0.05352699    0.00000000
                                                     2        0.1400000       -0.25123645    0.00000000
                                                     2        0.1600000        0.32188106    0.00000000
                                                     2        0.2200000       -0.25206857    0.00000000
                                                     2        0.3000000        0.19290477    0.00000000
                                                     2        0.5000000       -0.10129770    0.00000000
                                                     2        0.9000000        0.00314995    0.00000000
                                                     2        1.5000000        0.18401192    0.00000000
                                      S - F
                                                     0        0.0000010        0.08065976    0.00000000
                                                     2        0.1200000       -0.09231673    0.00000000
                                                     2        0.1600000       -0.03278082    0.00000000
                                                     2        0.2800000        0.38423402    0.00000000
                                                     2        0.6000000       -1.09357590    0.00000000
                                                     2        1.1000000        1.53099489    0.00000000
                                                     2        3.0000000       -2.63300202    0.00000000
                                      P - F
                                                     0        0.0000010       -0.11638665    0.00000000
                                                     2        0.1200000        0.35468655    0.00000000
                                                     2        0.1600000       -0.59160923    0.00000000
                                                     2        0.3000000        0.49390547    0.00000000
                                                     2        0.6000000       -0.37949835    0.00000000
                                                     2        1.6000000        0.89304688    0.00000000
                                      D - F
                                                     0        0.0000010        0.05443663    0.00000000
                                                     2        0.1200000       -0.29679479    0.00000000
                                                     2        0.1400000        0.36849872    0.00000000
                                                     2        0.2400000        0.02793449    0.00000000
                                                     2        0.4000000       -0.46312857    0.00000000
                                                     2        0.7000000        0.97587598    0.00000000
                                                     2        1.5000000       -2.43431102    0.00000000
    9          1            1
                                      F and up 
                                                     0        0.0000010       -0.00007675    0.00000000
                                                     2        0.1200000        0.05352699    0.00000000
                                                     2        0.1400000       -0.25123645    0.00000000
                                                     2        0.1600000        0.32188106    0.00000000
                                                     2        0.2200000       -0.25206857    0.00000000
                                                     2        0.3000000        0.19290477    0.00000000
                                                     2        0.5000000       -0.10129770    0.00000000
                                                     2        0.9000000        0.00314995    0.00000000
                                                     2        1.5000000        0.18401192    0.00000000
                                      S - F
                                                     0        0.0000010        0.08065976    0.00000000
                                                     2        0.1200000       -0.09231673    0.00000000
                                                     2        0.1600000       -0.03278082    0.00000000
                                                     2        0.2800000        0.38423402    0.00000000
                                                     2        0.6000000       -1.09357590    0.00000000
                                                     2        1.1000000        1.53099489    0.00000000
                                                     2        3.0000000       -2.63300202    0.00000000
                                      P - F
                                                     0        0.0000010       -0.11638665    0.00000000
                                                     2        0.1200000        0.35468655    0.00000000
                                                     2        0.1600000       -0.59160923    0.00000000
                                                     2        0.3000000        0.49390547    0.00000000
                                                     2        0.6000000       -0.37949835    0.00000000
                                                     2        1.6000000        0.89304688    0.00000000
                                      D - F
                                                     0        0.0000010        0.05443663    0.00000000
                                                     2        0.1200000       -0.29679479    0.00000000
                                                     2        0.1400000        0.36849872    0.00000000
                                                     2        0.2400000        0.02793449    0.00000000
                                                     2        0.4000000       -0.46312857    0.00000000
                                                     2        0.7000000        0.97587598    0.00000000
                                                     2        1.5000000       -2.43431102    0.00000000
   10          1            1
                                      F and up 
                                                     0        0.0000010       -0.00007675    0.00000000
                                                     2        0.1200000        0.05352699    0.00000000
                                                     2        0.1400000       -0.25123645    0.00000000
                                                     2        0.1600000        0.32188106    0.00000000
                                                     2        0.2200000       -0.25206857    0.00000000
                                                     2        0.3000000        0.19290477    0.00000000
                                                     2        0.5000000       -0.10129770    0.00000000
                                                     2        0.9000000        0.00314995    0.00000000
                                                     2        1.5000000        0.18401192    0.00000000
                                      S - F
                                                     0        0.0000010        0.08065976    0.00000000
                                                     2        0.1200000       -0.09231673    0.00000000
                                                     2        0.1600000       -0.03278082    0.00000000
                                                     2        0.2800000        0.38423402    0.00000000
                                                     2        0.6000000       -1.09357590    0.00000000
                                                     2        1.1000000        1.53099489    0.00000000
                                                     2        3.0000000       -2.63300202    0.00000000
                                      P - F
                                                     0        0.0000010       -0.11638665    0.00000000
                                                     2        0.1200000        0.35468655    0.00000000
                                                     2        0.1600000       -0.59160923    0.00000000
                                                     2        0.3000000        0.49390547    0.00000000
                                                     2        0.6000000       -0.37949835    0.00000000
                                                     2        1.6000000        0.89304688    0.00000000
                                      D - F
                                                     0        0.0000010        0.05443663    0.00000000
                                                     2        0.1200000       -0.29679479    0.00000000
                                                     2        0.1400000        0.36849872    0.00000000
                                                     2        0.2400000        0.02793449    0.00000000
                                                     2        0.4000000       -0.46312857    0.00000000
                                                     2        0.7000000        0.97587598    0.00000000
                                                     2        1.5000000       -2.43431102    0.00000000
   11          1            1
                                      F and up 
                                                     0        0.0000010       -0.00007675    0.00000000
                                                     2        0.1200000        0.05352699    0.00000000
                                                     2        0.1400000       -0.25123645    0.00000000
                                                     2        0.1600000        0.32188106    0.00000000
                                                     2        0.2200000       -0.25206857    0.00000000
                                                     2        0.3000000        0.19290477    0.00000000
                                                     2        0.5000000       -0.10129770    0.00000000
                                                     2        0.9000000        0.00314995    0.00000000
                                                     2        1.5000000        0.18401192    0.00000000
                                      S - F
                                                     0        0.0000010        0.08065976    0.00000000
                                                     2        0.1200000       -0.09231673    0.00000000
                                                     2        0.1600000       -0.03278082    0.00000000
                                                     2        0.2800000        0.38423402    0.00000000
                                                     2        0.6000000       -1.09357590    0.00000000
                                                     2        1.1000000        1.53099489    0.00000000
                                                     2        3.0000000       -2.63300202    0.00000000
                                      P - F
                                                     0        0.0000010       -0.11638665    0.00000000
                                                     2        0.1200000        0.35468655    0.00000000
                                                     2        0.1600000       -0.59160923    0.00000000
                                                     2        0.3000000        0.49390547    0.00000000
                                                     2        0.6000000       -0.37949835    0.00000000
                                                     2        1.6000000        0.89304688    0.00000000
                                      D - F
                                                     0        0.0000010        0.05443663    0.00000000
                                                     2        0.1200000       -0.29679479    0.00000000
                                                     2        0.1400000        0.36849872    0.00000000
                                                     2        0.2400000        0.02793449    0.00000000
                                                     2        0.4000000       -0.46312857    0.00000000
                                                     2        0.7000000        0.97587598    0.00000000
                                                     2        1.5000000       -2.43431102    0.00000000
   12          1            1
                                      F and up 
                                                     0        0.0000010       -0.00007675    0.00000000
                                                     2        0.1200000        0.05352699    0.00000000
                                                     2        0.1400000       -0.25123645    0.00000000
                                                     2        0.1600000        0.32188106    0.00000000
                                                     2        0.2200000       -0.25206857    0.00000000
                                                     2        0.3000000        0.19290477    0.00000000
                                                     2        0.5000000       -0.10129770    0.00000000
                                                     2        0.9000000        0.00314995    0.00000000
                                                     2        1.5000000        0.18401192    0.00000000
                                      S - F
                                                     0        0.0000010        0.08065976    0.00000000
                                                     2        0.1200000       -0.09231673    0.00000000
                                                     2        0.1600000       -0.03278082    0.00000000
                                                     2        0.2800000        0.38423402    0.00000000
                                                     2        0.6000000       -1.09357590    0.00000000
                                                     2        1.1000000        1.53099489    0.00000000
                                                     2        3.0000000       -2.63300202    0.00000000
                                      P - F
                                                     0        0.0000010       -0.11638665    0.00000000
                                                     2        0.1200000        0.35468655    0.00000000
                                                     2        0.1600000       -0.59160923    0.00000000
                                                     2        0.3000000        0.49390547    0.00000000
                                                     2        0.6000000       -0.37949835    0.00000000
                                                     2        1.6000000        0.89304688    0.00000000
                                      D - F
                                                     0        0.0000010        0.05443663    0.00000000
                                                     2        0.1200000       -0.29679479    0.00000000
                                                     2        0.1400000        0.36849872    0.00000000
                                                     2        0.2400000        0.02793449    0.00000000
                                                     2        0.4000000       -0.46312857    0.00000000
                                                     2        0.7000000        0.97587598    0.00000000
                                                     2        1.5000000       -2.43431102    0.00000000
   13          1            1
                                      F and up 
                                                     0        0.0000010       -0.00007675    0.00000000
                                                     2        0.1200000        0.05352699    0.00000000
                                                     2        0.1400000       -0.25123645    0.00000000
                                                     2        0.1600000        0.32188106    0.00000000
                                                     2        0.2200000       -0.25206857    0.00000000
                                                     2        0.3000000        0.19290477    0.00000000
                                                     2        0.5000000       -0.10129770    0.00000000
                                                     2        0.9000000        0.00314995    0.00000000
                                                     2        1.5000000        0.18401192    0.00000000
                                      S - F
                                                     0        0.0000010        0.08065976    0.00000000
                                                     2        0.1200000       -0.09231673    0.00000000
                                                     2        0.1600000       -0.03278082    0.00000000
                                                     2        0.2800000        0.38423402    0.00000000
                                                     2        0.6000000       -1.09357590    0.00000000
                                                     2        1.1000000        1.53099489    0.00000000
                                                     2        3.0000000       -2.63300202    0.00000000
                                      P - F
                                                     0        0.0000010       -0.11638665    0.00000000
                                                     2        0.1200000        0.35468655    0.00000000
                                                     2        0.1600000       -0.59160923    0.00000000
                                                     2        0.3000000        0.49390547    0.00000000
                                                     2        0.6000000       -0.37949835    0.00000000
                                                     2        1.6000000        0.89304688    0.00000000
                                      D - F
                                                     0        0.0000010        0.05443663    0.00000000
                                                     2        0.1200000       -0.29679479    0.00000000
                                                     2        0.1400000        0.36849872    0.00000000
                                                     2        0.2400000        0.02793449    0.00000000
                                                     2        0.4000000       -0.46312857    0.00000000
                                                     2        0.7000000        0.97587598    0.00000000
                                                     2        1.5000000       -2.43431102    0.00000000
 ======================================================================================================
   215 basis functions,   367 primitive gaussians,   229 cartesian basis functions
    25 alpha electrons       25 beta electrons
       nuclear repulsion energy       251.3309506428 Hartrees.
 NAtoms=   13 NActive=   13 NUniq=   13 SFac= 1.00D+00 NAtFMM=   60 NAOKFM=F Big=F
   1 Symmetry operations used in ECPInt.
 ECPInt:  NShTT=    4371 NPrTT=   21039 LenC2=    4358 LenP2D=   16232.
 LDataN:  DoStor=T MaxTD1= 6 Len=  172
 Initial guess from the checkpoint file:  "Grambow2020_wb97xd3_008023_forward_mol2.chk"
 B after Tr=     0.026087   -0.014993    0.259633
         Rot=   -0.099346    0.855374   -0.506487   -0.044010 Ang= 191.40 deg.
 >>>>>>>>>> Convergence criterion not met.
 SCF Done:  E(RHF) =  -305.773705457     A.U. after    2 cycles
            NFock=  1  Conv=0.28D-01     -V/T= 2.0022

 **********************************************************************

            Population analysis using the SCF Density.

 **********************************************************************

 Orbital symmetries:
       Occupied  (A) (A) (A) (A) (A) (A) (A) (A) (A) (A) (A) (A)
                 (A) (A) (A) (A) (A) (A) (A) (A) (A) (A) (A) (A)
                 (A)
       Virtual   (A) (A) (A) (A) (A) (A) (A) (A) (A) (A) (A) (A)
                 (A) (A) (A) (A) (A) (A) (A) (A) (A) (A) (A) (A)
                 (A) (A) (A) (A) (A) (A) (A) (A) (A) (A) (A) (A)
                 (A) (A) (A) (A) (A) (A) (A) (A) (A) (A) (A) (A)
                 (A) (A) (A) (A) (A) (A) (A) (A) (A) (A) (A) (A)
                 (A) (A) (A) (A) (A) (A) (A) (A) (A) (A) (A) (A)
                 (A) (A) (A) (A) (A) (A) (A) (A) (A) (A) (A) (A)
                 (A) (A) (A) (A) (A) (A) (A) (A) (A) (A) (A) (A)
                 (A) (A) (A) (A) (A) (A) (A) (A) (A) (A) (A) (A)
                 (A) (A) (A) (A) (A) (A) (A) (A) (A) (A) (A) (A)
                 (A) (A) (A) (A) (A) (A) (A) (A) (A) (A) (A) (A)
                 (A) (A) (A) (A) (A) (A) (A) (A) (A) (A) (A) (A)
                 (A) (A) (A) (A) (A) (A) (A) (A) (A) (A) (A) (A)
                 (A) (A) (A) (A) (A) (A) (A) (A) (A) (A) (A) (A)
                 (A) (A) (A) (A) (A) (A) (A) (A) (A) (A) (A) (A)
                 (A) (A) (A) (A) (A) (A) (A) (A) (A) (A)
 The electronic state is 1-A.
 Alpha  occ. eigenvalues --  -20.55781 -11.30449 -11.30115 -11.25989 -11.25610
 Alpha  occ. eigenvalues --  -11.25050 -11.24692  -1.46583  -1.12697  -1.03929
 Alpha  occ. eigenvalues --   -1.00321  -0.89819  -0.76508  -0.73465  -0.71958
 Alpha  occ. eigenvalues --   -0.69204  -0.67263  -0.60893  -0.59858  -0.51777
 Alpha  occ. eigenvalues --   -0.46778  -0.42789  -0.42638  -0.40887  -0.39902
 Alpha virt. eigenvalues --    0.03167   0.03395   0.04469   0.04820   0.05846
 Alpha virt. eigenvalues --    0.06380   0.09560   0.09923   0.10694   0.11178
 Alpha virt. eigenvalues --    0.11606   0.12049   0.12839   0.13646   0.14342
 Alpha virt. eigenvalues --    0.14941   0.16014   0.16441   0.16753   0.18373
 Alpha virt. eigenvalues --    0.18684   0.19048   0.19496   0.21048   0.21157
 Alpha virt. eigenvalues --    0.22066   0.22255   0.22812   0.24037   0.24842
 Alpha virt. eigenvalues --    0.26431   0.27191   0.27787   0.29213   0.32198
 Alpha virt. eigenvalues --    0.32855   0.33007   0.33812   0.34544   0.35830
 Alpha virt. eigenvalues --    0.36485   0.37756   0.38570   0.40249   0.42297
 Alpha virt. eigenvalues --    0.42816   0.43864   0.45311   0.45765   0.46780
 Alpha virt. eigenvalues --    0.47072   0.48119   0.49245   0.49391   0.50149
 Alpha virt. eigenvalues --    0.50835   0.51140   0.52792   0.54455   0.54875
 Alpha virt. eigenvalues --    0.56388   0.57078   0.59249   0.60620   0.61000
 Alpha virt. eigenvalues --    0.62283   0.63313   0.63939   0.65248   0.66420
 Alpha virt. eigenvalues --    0.67733   0.67941   0.69343   0.70982   0.72285
 Alpha virt. eigenvalues --    0.72980   0.75482   0.77156   0.77841   0.78823
 Alpha virt. eigenvalues --    0.79130   0.81207   0.81558   0.82868   0.84119
 Alpha virt. eigenvalues --    0.85607   0.86674   0.86847   0.88783   0.89658
 Alpha virt. eigenvalues --    0.91244   0.92626   0.93611   0.95845   0.96888
 Alpha virt. eigenvalues --    1.00333   1.01892   1.02624   1.05909   1.06779
 Alpha virt. eigenvalues --    1.08001   1.12795   1.15557   1.17931   1.24185
 Alpha virt. eigenvalues --    1.25820   1.26105   1.27385   1.28989   1.30421
 Alpha virt. eigenvalues --    1.31600   1.34199   1.35147   1.37012   1.38527
 Alpha virt. eigenvalues --    1.40242   1.45005   1.48447   1.55238   1.59063
 Alpha virt. eigenvalues --    1.59885   1.62856   1.63332   1.64042   1.66272
 Alpha virt. eigenvalues --    1.68169   1.70855   1.71111   1.71914   1.73812
 Alpha virt. eigenvalues --    1.74876   1.75436   1.77210   1.78761   1.83285
 Alpha virt. eigenvalues --    1.84386   1.85958   1.88492   1.91993   1.94411
 Alpha virt. eigenvalues --    1.95666   1.98218   1.98754   2.01139   2.03899
 Alpha virt. eigenvalues --    2.06573   2.10806   2.13718   2.15965   2.19230
 Alpha virt. eigenvalues --    2.23261   2.25314   2.27398   2.30841   2.35634
 Alpha virt. eigenvalues --    2.39989   2.41110   2.45656   2.45873   2.52001
 Alpha virt. eigenvalues --    2.54436   2.55508   2.58996   2.60961   2.66168
 Alpha virt. eigenvalues --    2.67745   2.70353   2.73387   2.74438   2.79056
 Alpha virt. eigenvalues --    2.84130   2.86780   2.89930   2.94912   2.97096
 Alpha virt. eigenvalues --    3.06100   3.10980   3.15425   3.23909   3.26588
 Alpha virt. eigenvalues --    3.46450   3.75035   3.77560   3.90004   3.92328
 Alpha virt. eigenvalues --    3.97782   4.07355   4.21093   4.33696   4.45346
          Condensed to atoms (all electrons):
 Mulliken charges:
               1
     1  O   -1.201763
     2  C    1.029583
     3  C   -1.352733
     4  C    0.512733
     5  C    0.230458
     6  C    0.588842
     7  C    0.236983
     8  H    0.326193
     9  H    0.147451
    10  H    0.062469
    11  H    0.288968
    12  H   -0.436324
    13  H   -0.432860
 Sum of Mulliken charges =   0.00000
 Mulliken charges with hydrogens summed into heavy atoms:
               1
     1  O   -0.875570
     2  C    1.239503
     3  C   -1.063765
     4  C    0.512733
     5  C   -0.205866
     6  C    0.588842
     7  C   -0.195877
 Electronic spatial extent (au):  <R**2>=            826.5330
 Charge=             -0.0000 electrons
 Dipole moment (field-independent basis, Debye):
    X=             -0.4899    Y=              0.9284    Z=             -0.6041  Tot=              1.2112

 Test job not archived.
 1\1\GINC-SE219\SP\RHF\Aug-CC-pVDZ\C6H6O1\OHZDE\09-Apr-2025\0\\#t hf au
 g-cc-pvdz iop(5/13=1,5/36=2,99/5=2) pseudo=read geom=check guess=(read
 ,tcheck) scf=(maxcycle=1)\\title\\0,1\O,0,2.03451098,-1.02467701,-0.09
 760119\C,0,1.30782034,0.02375234,0.48145283\C,0,-0.03062403,0.27101633
 ,-0.25242653\C,0,-0.85784737,-0.93994273,-0.20779657\C,0,-1.47779527,-
 1.96248226,-0.15788649\C,0,-0.71947593,1.4331203,0.31363333\C,0,-1.241
 34355,2.39566775,0.79480948\H,0,1.52365287,-1.83407189,-0.00748681\H,0
 ,1.09902246,-0.15546166,1.5422885\H,0,1.91938363,0.92212183,0.39900444
 \H,0,0.20642315,0.47985202,-1.30071919\H,0,-2.04950849,-2.85977445,-0.
 12055296\H,0,-1.71421879,3.25087942,1.21663578\\Version=ES64L-G16RevC.
 01\State=1-A\HF=-305.7737055\RMSD=2.752e-02\Dipole=-0.4188062,-0.05631
 53,0.2201936\Quadrupole=-4.1075062,5.7097464,-1.6022402,1.6856576,0.13
 42798,0.8578599\PG=C01 [X(C6H6O1)]\\@


 THE MEEK SHALL INHERIT THE EARTH.
 (THE REST OF US WILL ESCAPE TO THE STARS)
 Job cpu time:       0 days  0 hours  0 minutes 48.0 seconds.
 Elapsed time:       0 days  0 hours  0 minutes  3.9 seconds.
 File lengths (MBytes):  RWF=     10 Int=      0 D2E=      0 Chk=      7 Scr=      1
 Normal termination of Gaussian 16 at Wed Apr  9 18:44:38 2025.
