 Entering Gaussian System, Link 0=g16
 Input=Grambow2020_wb97xd3_009181_reverse_mol2.gjf
 Output=Grambow2020_wb97xd3_009181_reverse_mol2.log
 Initial command:
 /arc/software/Gaussian/g16.c01/l1.exe "/tmp/slurm/4870404/Gau-2273321.inp" -scrdir="/tmp/slurm/4870404/"
 Entering Link 1 = /arc/software/Gaussian/g16.c01/l1.exe PID=   2273322.
  
 Copyright (c) 1988-2019, Gaussian, Inc.  All Rights Reserved.
  
 This is part of the Gaussian(R) 16 program.  It is based on
 the Gaussian(R) 09 system (copyright 2009, Gaussian, Inc.),
 the Gaussian(R) 03 system (copyright 2003, Gaussian, Inc.),
 the Gaussian(R) 98 system (copyright 1998, Gaussian, Inc.),
 the Gaussian(R) 94 system (copyright 1995, Gaussian, Inc.),
 the Gaussian 92(TM) system (copyright 1992, Gaussian, Inc.),
 the Gaussian 90(TM) system (copyright 1990, Gaussian, Inc.),
 the Gaussian 88(TM) system (copyright 1988, Gaussian, Inc.),
 the Gaussian 86(TM) system (copyright 1986, Carnegie Mellon
 University), and the Gaussian 82(TM) system (copyright 1983,
 Carnegie Mellon University). Gaussian is a federally registered
 trademark of Gaussian, Inc.
  
 This software contains proprietary and confidential information,
 including trade secrets, belonging to Gaussian, Inc.
  
 This software is provided under written license and may be
 used, copied, transmitted, or stored only in accord with that
 written license.
  
 The following legend is applicable only to US Government
 contracts under FAR:
  
                    RESTRICTED RIGHTS LEGEND
  
 Use, reproduction and disclosure by the US Government is
 subject to restrictions as set forth in subparagraphs (a)
 and (c) of the Commercial Computer Software - Restricted
 Rights clause in FAR 52.227-19.
  
 Gaussian, Inc.
 340 Quinnipiac St., Bldg. 40, Wallingford CT 06492
  
  
 ---------------------------------------------------------------
 Warning -- This program may not be used in any manner that
 competes with the business of Gaussian, Inc. or will provide
 assistance to any competitor of Gaussian, Inc.  The licensee
 of this program is prohibited from giving any competitor of
 Gaussian, Inc. access to this program.  By using this program,
 the user acknowledges that Gaussian, Inc. is engaged in the
 business of creating and licensing software in the field of
 computational chemistry and represents and warrants to the
 licensee that it is not a competitor of Gaussian, Inc. and that
 it will not use this program in any manner prohibited above.
 ---------------------------------------------------------------
  

 Cite this work as:
 Gaussian 16, Revision C.01,
 M. J. Frisch, G. W. Trucks, H. B. Schlegel, G. E. Scuseria, 
 M. A. Robb, J. R. Cheeseman, G. Scalmani, V. Barone, 
 G. A. Petersson, H. Nakatsuji, X. Li, M. Caricato, A. V. Marenich, 
 J. Bloino, B. G. Janesko, R. Gomperts, B. Mennucci, H. P. Hratchian, 
 J. V. Ortiz, A. F. Izmaylov, J. L. Sonnenberg, D. Williams-Young, 
 F. Ding, F. Lipparini, F. Egidi, J. Goings, B. Peng, A. Petrone, 
 T. Henderson, D. Ranasinghe, V. G. Zakrzewski, J. Gao, N. Rega, 
 G. Zheng, W. Liang, M. Hada, M. Ehara, K. Toyota, R. Fukuda, 
 J. Hasegawa, M. Ishida, T. Nakajima, Y. Honda, O. Kitao, H. Nakai, 
 T. Vreven, K. Throssell, J. A. Montgomery, Jr., J. E. Peralta, 
 F. Ogliaro, M. J. Bearpark, J. J. Heyd, E. N. Brothers, K. N. Kudin, 
 V. N. Staroverov, T. A. Keith, R. Kobayashi, J. Normand, 
 K. Raghavachari, A. P. Rendell, J. C. Burant, S. S. Iyengar, 
 J. Tomasi, M. Cossi, J. M. Millam, M. Klene, C. Adamo, R. Cammi, 
 J. W. Ochterski, R. L. Martin, K. Morokuma, O. Farkas, 
 J. B. Foresman, and D. J. Fox, Gaussian, Inc., Wallingford CT, 2019.
 
 ******************************************
 Gaussian 16:  ES64L-G16RevC.01  3-Jul-2019
                 9-Apr-2025 
 ******************************************
 %nprocs=16
 Will use up to   16 processors via shared memory.
 %mem=30GB
 %chk=Grambow2020_wb97xd3_009181_reverse_mol2.chk
 ----------------------------------------------------------------------
 #t hf aug-cc-pvdz symm=none int=(grid=ultrafine) guess=(read,tcheck) s
 table=(opt,rrhf)
 ----------------------------------------------------------------------
 -----
 title
 -----
 Symbolic Z-matrix:
 Charge =  0 Multiplicity = 1
 O                     2.05924  -0.96531   1.16064 
 C                     1.17889  -0.61794   0.42695 
 C                     0.98156   0.79084  -0.06341 
 C                    -0.43087   1.29723  -0.05423 
 N                    -1.29009   0.28868  -0.09819 
 C                    -0.95277  -1.07521  -0.22141 
 N                     0.20048  -1.54639  -0.01833 
 H                     1.26238   0.8412   -1.12741 
 H                     1.65407   1.47446   0.45211 
 H                    -2.27463   0.5101   -0.13859 
 H                    -1.76853  -1.7234   -0.53961 
 
                    Distance matrix (angstroms):
                    1          2          3          4          5
     1  O    0.000000
     2  C    1.197495   0.000000
     3  C    2.396616   1.504676   0.000000
     4  C    3.577103   2.547692   1.500490   0.000000
     5  N    3.791460   2.682086   2.326753   1.325664   0.000000
     6  C    3.315778   2.274521   2.692347   2.434913   1.410370
     7  N    2.276538   1.420414   2.464701   2.913086   2.365511
     8  H    3.022191   2.133560   1.101589   2.055918   2.807084
     9  H    2.572677   2.145826   1.088746   2.152851   3.221338
    10  H    4.758912   3.676829   3.269131   2.006524   1.009936
    11  H    4.256452   3.292953   3.756479   3.339031   2.114755
                    6          7          8          9         10
     6  C    0.000000
     7  N    1.262238   0.000000
     8  H    3.065999   2.838706   0.000000
     9  H    3.708109   3.385228   1.746229   0.000000
    10  H    2.065758   3.220212   3.687527   4.088226   0.000000
    11  H    1.089430   2.044520   4.013611   4.787900   2.324965
                   11
    11  H    0.000000
 Symmetry turned off by external request.
 Rotational constants (GHZ):           5.4359463           2.9473457           2.0340132
   197 basis functions,   345 primitive gaussians,   211 cartesian basis functions
    25 alpha electrons       25 beta electrons
       nuclear repulsion energy       278.2731514713 Hartrees.
 NAtoms=   11 NActive=   11 NUniq=   11 SFac= 1.00D+00 NAtFMM=   60 NAOKFM=F Big=F
 ExpMin= 2.97D-02 ExpMax= 1.17D+04 ExpMxC= 4.01D+02 IAcc=3 IRadAn=         5 AccDes= 0.00D+00
 Harris functional with IExCor=  205 and IRadAn=       5 diagonalized for initial guess.
 HarFok:  IExCor=  205 AccDes= 0.00D+00 IRadAn=         5 IDoV= 1 UseB2=F ITyADJ=14
 ICtDFT=  3500011 ScaDFX=  1.000000  1.000000  1.000000  1.000000
 FoFCou: FMM=F IPFlag=           0 FMFlag=      100000 FMFlg1=           0
         NFxFlg=           0 DoJE=T BraDBF=F KetDBF=T FulRan=T
         wScrn=  0.000000 ICntrl=       500 IOpCl=  0 I1Cent=   200000004 NGrid=           0
         NMat0=    1 NMatS0=      1 NMatT0=    0 NMatD0=    1 NMtDS0=    0 NMtDT0=    0
 Symmetry not used in FoFCou.
 SCF Done:  E(RHF) =  -337.533117582     A.U. after   15 cycles
            NFock= 15  Conv=0.93D-08     -V/T= 2.0010

 **********************************************************************

            Population analysis using the SCF Density.

 **********************************************************************

 Alpha  occ. eigenvalues --  -20.56620 -15.66108 -15.59759 -11.37576 -11.37347
 Alpha  occ. eigenvalues --  -11.30185 -11.26465  -1.42169  -1.35091  -1.23965
 Alpha  occ. eigenvalues --   -1.07312  -0.92877  -0.87367  -0.79000  -0.71792
 Alpha  occ. eigenvalues --   -0.70586  -0.65873  -0.63167  -0.58258  -0.56702
 Alpha  occ. eigenvalues --   -0.54094  -0.49008  -0.45696  -0.43431  -0.36437
 Alpha virt. eigenvalues --    0.02008   0.04144   0.04583   0.05440   0.05811
 Alpha virt. eigenvalues --    0.08041   0.09457   0.09871   0.10844   0.11752
 Alpha virt. eigenvalues --    0.12504   0.13174   0.13931   0.14514   0.15698
 Alpha virt. eigenvalues --    0.15954   0.16051   0.17252   0.18368   0.18850
 Alpha virt. eigenvalues --    0.19397   0.21014   0.22321   0.23641   0.23980
 Alpha virt. eigenvalues --    0.26420   0.27059   0.28247   0.29249   0.30917
 Alpha virt. eigenvalues --    0.31107   0.33296   0.34324   0.34787   0.35226
 Alpha virt. eigenvalues --    0.35941   0.37606   0.38045   0.40122   0.40811
 Alpha virt. eigenvalues --    0.41787   0.43946   0.44936   0.45398   0.46299
 Alpha virt. eigenvalues --    0.47414   0.50296   0.51817   0.53047   0.54292
 Alpha virt. eigenvalues --    0.55093   0.56629   0.57547   0.58995   0.60170
 Alpha virt. eigenvalues --    0.60825   0.62170   0.62879   0.63549   0.65348
 Alpha virt. eigenvalues --    0.66350   0.66952   0.68360   0.69709   0.72025
 Alpha virt. eigenvalues --    0.73509   0.75839   0.76479   0.77423   0.78854
 Alpha virt. eigenvalues --    0.79226   0.80607   0.81730   0.82619   0.85695
 Alpha virt. eigenvalues --    0.87097   0.88636   0.88782   0.91485   0.92450
 Alpha virt. eigenvalues --    0.94405   0.95519   0.97373   1.00290   1.00873
 Alpha virt. eigenvalues --    1.02357   1.04181   1.04554   1.06636   1.09724
 Alpha virt. eigenvalues --    1.14093   1.15336   1.18447   1.20628   1.21532
 Alpha virt. eigenvalues --    1.24223   1.29887   1.30394   1.34678   1.36320
 Alpha virt. eigenvalues --    1.38523   1.40380   1.44804   1.46523   1.48309
 Alpha virt. eigenvalues --    1.50032   1.55370   1.56922   1.60364   1.61862
 Alpha virt. eigenvalues --    1.67266   1.69653   1.70502   1.72675   1.76759
 Alpha virt. eigenvalues --    1.80427   1.81639   1.83873   1.86193   1.87357
 Alpha virt. eigenvalues --    1.90063   1.92325   1.94328   1.95584   1.99061
 Alpha virt. eigenvalues --    2.01578   2.04751   2.08379   2.12643   2.14205
 Alpha virt. eigenvalues --    2.17551   2.19050   2.23484   2.24323   2.26421
 Alpha virt. eigenvalues --    2.30843   2.31988   2.34927   2.37887   2.40652
 Alpha virt. eigenvalues --    2.45342   2.46733   2.51930   2.52348   2.57302
 Alpha virt. eigenvalues --    2.58779   2.60856   2.64372   2.68111   2.74333
 Alpha virt. eigenvalues --    2.77816   2.78945   2.79697   2.84215   2.86368
 Alpha virt. eigenvalues --    2.91854   2.95079   2.98218   2.99547   3.16334
 Alpha virt. eigenvalues --    3.20696   3.27584   3.30508   3.37360   3.46429
 Alpha virt. eigenvalues --    3.56883   3.68732   3.78256   3.80595   3.83113
 Alpha virt. eigenvalues --    3.98792   4.17105
          Condensed to atoms (all electrons):
 Mulliken charges:
               1
     1  O   -0.696234
     2  C    0.764857
     3  C    0.258730
     4  C   -0.202359
     5  N   -0.365826
     6  C    0.881502
     7  N   -0.587197
     8  H    0.167468
     9  H   -0.029516
    10  H   -0.034262
    11  H   -0.157163
 Sum of Mulliken charges =  -0.00000
 Mulliken charges with hydrogens summed into heavy atoms:
               1
     1  O   -0.696234
     2  C    0.764857
     3  C    0.396682
     4  C   -0.202359
     5  N   -0.400088
     6  C    0.724340
     7  N   -0.587197
 Electronic spatial extent (au):  <R**2>=            622.7704
 Charge=             -0.0000 electrons
 Dipole moment (field-independent basis, Debye):
    X=             -4.2514    Y=              0.6590    Z=             -2.3359  Tot=              4.8954
 NROrb=    197 NOA=    25 NOB=    25 NVA=   172 NVB=   172

 **** Warning!!: The largest alpha MO coefficient is  0.29593743D+02

    12 initial guesses have been made.
 Iteration     1 Dimension    12 NMult     0 NNew     12
 Iteration     2 Dimension    24 NMult    12 NNew     12
 Iteration     3 Dimension    27 NMult    24 NNew      3
 Iteration     4 Dimension    30 NMult    27 NNew      3
 Iteration     5 Dimension    33 NMult    30 NNew      3
 Iteration     6 Dimension    36 NMult    33 NNew      3
 ***********************************************************************
 Stability analysis using <AA,BB:AA,BB> singles matrix:
 ***********************************************************************
 Ground to excited state transition densities written to RWF  633

 Eigenvectors of the stability matrix:
 
 Excited state symmetry could not be determined.
 Eigenvector   1:      Singlet-?Sym  Eigenvalue= 0.1433886  <S**2>=0.000
      25 -> 27         0.24238
      25 -> 29         0.44726
      25 -> 30         0.27689
      25 -> 31        -0.10971
      25 -> 33        -0.10235
      25 -> 41         0.16405
 The wavefunction is stable under the perturbations considered.
 The wavefunction is already stable.

 **********************************************************************

            Population analysis using the SCF Density.

 **********************************************************************

 Alpha  occ. eigenvalues --  -20.56620 -15.66108 -15.59759 -11.37576 -11.37347
 Alpha  occ. eigenvalues --  -11.30185 -11.26465  -1.42169  -1.35091  -1.23965
 Alpha  occ. eigenvalues --   -1.07312  -0.92877  -0.87367  -0.79000  -0.71792
 Alpha  occ. eigenvalues --   -0.70586  -0.65873  -0.63167  -0.58258  -0.56702
 Alpha  occ. eigenvalues --   -0.54094  -0.49008  -0.45696  -0.43431  -0.36437
 Alpha virt. eigenvalues --    0.02008   0.04144   0.04583   0.05440   0.05811
 Alpha virt. eigenvalues --    0.08041   0.09457   0.09871   0.10844   0.11752
 Alpha virt. eigenvalues --    0.12504   0.13174   0.13931   0.14514   0.15698
 Alpha virt. eigenvalues --    0.15954   0.16051   0.17252   0.18368   0.18850
 Alpha virt. eigenvalues --    0.19397   0.21014   0.22321   0.23641   0.23980
 Alpha virt. eigenvalues --    0.26420   0.27059   0.28247   0.29249   0.30917
 Alpha virt. eigenvalues --    0.31107   0.33296   0.34324   0.34787   0.35226
 Alpha virt. eigenvalues --    0.35941   0.37606   0.38045   0.40122   0.40811
 Alpha virt. eigenvalues --    0.41787   0.43946   0.44936   0.45398   0.46299
 Alpha virt. eigenvalues --    0.47414   0.50296   0.51817   0.53047   0.54292
 Alpha virt. eigenvalues --    0.55093   0.56629   0.57547   0.58995   0.60170
 Alpha virt. eigenvalues --    0.60825   0.62170   0.62879   0.63549   0.65348
 Alpha virt. eigenvalues --    0.66350   0.66952   0.68360   0.69709   0.72025
 Alpha virt. eigenvalues --    0.73509   0.75839   0.76479   0.77423   0.78854
 Alpha virt. eigenvalues --    0.79226   0.80607   0.81730   0.82619   0.85695
 Alpha virt. eigenvalues --    0.87097   0.88636   0.88782   0.91485   0.92450
 Alpha virt. eigenvalues --    0.94405   0.95519   0.97373   1.00290   1.00873
 Alpha virt. eigenvalues --    1.02357   1.04181   1.04554   1.06636   1.09724
 Alpha virt. eigenvalues --    1.14093   1.15336   1.18447   1.20628   1.21532
 Alpha virt. eigenvalues --    1.24223   1.29887   1.30394   1.34678   1.36320
 Alpha virt. eigenvalues --    1.38523   1.40380   1.44804   1.46523   1.48309
 Alpha virt. eigenvalues --    1.50032   1.55370   1.56922   1.60364   1.61862
 Alpha virt. eigenvalues --    1.67266   1.69653   1.70502   1.72675   1.76759
 Alpha virt. eigenvalues --    1.80427   1.81639   1.83873   1.86193   1.87357
 Alpha virt. eigenvalues --    1.90063   1.92325   1.94328   1.95584   1.99061
 Alpha virt. eigenvalues --    2.01578   2.04751   2.08379   2.12643   2.14205
 Alpha virt. eigenvalues --    2.17551   2.19050   2.23484   2.24323   2.26421
 Alpha virt. eigenvalues --    2.30843   2.31988   2.34927   2.37887   2.40652
 Alpha virt. eigenvalues --    2.45342   2.46733   2.51930   2.52348   2.57302
 Alpha virt. eigenvalues --    2.58779   2.60856   2.64372   2.68111   2.74333
 Alpha virt. eigenvalues --    2.77816   2.78945   2.79697   2.84215   2.86368
 Alpha virt. eigenvalues --    2.91854   2.95079   2.98218   2.99547   3.16334
 Alpha virt. eigenvalues --    3.20696   3.27584   3.30508   3.37360   3.46429
 Alpha virt. eigenvalues --    3.56883   3.68732   3.78256   3.80595   3.83113
 Alpha virt. eigenvalues --    3.98792   4.17105
          Condensed to atoms (all electrons):
 Mulliken charges:
               1
     1  O   -0.696234
     2  C    0.764857
     3  C    0.258730
     4  C   -0.202359
     5  N   -0.365826
     6  C    0.881502
     7  N   -0.587197
     8  H    0.167468
     9  H   -0.029516
    10  H   -0.034262
    11  H   -0.157163
 Sum of Mulliken charges =  -0.00000
 Mulliken charges with hydrogens summed into heavy atoms:
               1
     1  O   -0.696234
     2  C    0.764857
     3  C    0.396682
     4  C   -0.202359
     5  N   -0.400088
     6  C    0.724340
     7  N   -0.587197
 Electronic spatial extent (au):  <R**2>=            622.7704
 Charge=             -0.0000 electrons
 Dipole moment (field-independent basis, Debye):
    X=             -4.2514    Y=              0.6590    Z=             -2.3359  Tot=              4.8954
 Unable to Open any file for archive entry.
 1\1\GINC-SE097\Stability\RHF\Aug-CC-pVDZ\C4H4N2O1\OHZDE\09-Apr-2025\0\
 \#t hf aug-cc-pvdz symm=none int=(grid=ultrafine) guess=(read,tcheck) 
 stable=(opt,rrhf)\\title\\0,1\O,0,2.0592415,-0.9653092,1.16064273\C,0,
 1.17888899,-0.61793781,0.42694794\C,0,0.98155838,0.79084202,-0.0634089
 8\C,0,-0.43086994,1.29723343,-0.05422889\N,0,-1.29009231,0.28867567,-0
 .09818708\C,0,-0.95277151,-1.07520589,-0.22141407\N,0,0.20048161,-1.54
 638708,-0.01833458\H,0,1.26238499,0.84119759,-1.12741078\H,0,1.6540721
 6,1.47446182,0.45210645\H,0,-2.27462757,0.51009978,-0.13858594\H,0,-1.
 7685273,-1.72339534,-0.53961481\\Version=ES64L-G16RevC.01\HF=-337.5331
 176\RMSD=9.342e-09\Dipole=-1.6726184,0.259282,-0.9190107\Quadrupole=3.
 9391652,-5.081989,1.1428238,6.455633,-2.866735,1.9629137\PG=Unknown\\@
 The archive entry for this job was punched.


 WE'RE IN THE POSITION OF A VISITOR FROM ANOTHER
 DIMENSION WHO COMES TO EARTH AND SEES A CHESS MATCH.
 ASSUMING HE KNOWS IT'S A GAME, HE'S GOT TWO PROBLEMS:
 FIRST, FIGURE OUT THE RULES, AND SECOND, FIGURE OUT HOW TO WIN.
 NINETY PERCENT OF SCIENCE (INCLUDING VIRTUALLY ALL OF CHEMISRY)
 IS IN THAT SECOND CATEGORY.  THEY'RE TRYING TO APPLY
 THE LAWS THAT ARE ALREADY KNOWN.

                     -- SHELDON GLASHOW, 1979
 Job cpu time:       0 days  0 hours  1 minutes 42.8 seconds.
 Elapsed time:       0 days  0 hours  0 minutes 13.8 seconds.
 File lengths (MBytes):  RWF=    198 Int=      0 D2E=      0 Chk=      6 Scr=      1
 Normal termination of Gaussian 16 at Wed Apr  9 04:05:00 2025.
 Initial command:
 /arc/software/Gaussian/g16.c01/l1.exe "/tmp/slurm/4870404/Gau-2273321.inp" -scrdir="/tmp/slurm/4870404/"
 Entering Link 1 = /arc/software/Gaussian/g16.c01/l1.exe PID=   2273537.
  
 Copyright (c) 1988-2019, Gaussian, Inc.  All Rights Reserved.
  
 This is part of the Gaussian(R) 16 program.  It is based on
 the Gaussian(R) 09 system (copyright 2009, Gaussian, Inc.),
 the Gaussian(R) 03 system (copyright 2003, Gaussian, Inc.),
 the Gaussian(R) 98 system (copyright 1998, Gaussian, Inc.),
 the Gaussian(R) 94 system (copyright 1995, Gaussian, Inc.),
 the Gaussian 92(TM) system (copyright 1992, Gaussian, Inc.),
 the Gaussian 90(TM) system (copyright 1990, Gaussian, Inc.),
 the Gaussian 88(TM) system (copyright 1988, Gaussian, Inc.),
 the Gaussian 86(TM) system (copyright 1986, Carnegie Mellon
 University), and the Gaussian 82(TM) system (copyright 1983,
 Carnegie Mellon University). Gaussian is a federally registered
 trademark of Gaussian, Inc.
  
 This software contains proprietary and confidential information,
 including trade secrets, belonging to Gaussian, Inc.
  
 This software is provided under written license and may be
 used, copied, transmitted, or stored only in accord with that
 written license.
  
 The following legend is applicable only to US Government
 contracts under FAR:
  
                    RESTRICTED RIGHTS LEGEND
  
 Use, reproduction and disclosure by the US Government is
 subject to restrictions as set forth in subparagraphs (a)
 and (c) of the Commercial Computer Software - Restricted
 Rights clause in FAR 52.227-19.
  
 Gaussian, Inc.
 340 Quinnipiac St., Bldg. 40, Wallingford CT 06492
  
  
 ---------------------------------------------------------------
 Warning -- This program may not be used in any manner that
 competes with the business of Gaussian, Inc. or will provide
 assistance to any competitor of Gaussian, Inc.  The licensee
 of this program is prohibited from giving any competitor of
 Gaussian, Inc. access to this program.  By using this program,
 the user acknowledges that Gaussian, Inc. is engaged in the
 business of creating and licensing software in the field of
 computational chemistry and represents and warrants to the
 licensee that it is not a competitor of Gaussian, Inc. and that
 it will not use this program in any manner prohibited above.
 ---------------------------------------------------------------
  

 Cite this work as:
 Gaussian 16, Revision C.01,
 M. J. Frisch, G. W. Trucks, H. B. Schlegel, G. E. Scuseria, 
 M. A. Robb, J. R. Cheeseman, G. Scalmani, V. Barone, 
 G. A. Petersson, H. Nakatsuji, X. Li, M. Caricato, A. V. Marenich, 
 J. Bloino, B. G. Janesko, R. Gomperts, B. Mennucci, H. P. Hratchian, 
 J. V. Ortiz, A. F. Izmaylov, J. L. Sonnenberg, D. Williams-Young, 
 F. Ding, F. Lipparini, F. Egidi, J. Goings, B. Peng, A. Petrone, 
 T. Henderson, D. Ranasinghe, V. G. Zakrzewski, J. Gao, N. Rega, 
 G. Zheng, W. Liang, M. Hada, M. Ehara, K. Toyota, R. Fukuda, 
 J. Hasegawa, M. Ishida, T. Nakajima, Y. Honda, O. Kitao, H. Nakai, 
 T. Vreven, K. Throssell, J. A. Montgomery, Jr., J. E. Peralta, 
 F. Ogliaro, M. J. Bearpark, J. J. Heyd, E. N. Brothers, K. N. Kudin, 
 V. N. Staroverov, T. A. Keith, R. Kobayashi, J. Normand, 
 K. Raghavachari, A. P. Rendell, J. C. Burant, S. S. Iyengar, 
 J. Tomasi, M. Cossi, J. M. Millam, M. Klene, C. Adamo, R. Cammi, 
 J. W. Ochterski, R. L. Martin, K. Morokuma, O. Farkas, 
 J. B. Foresman, and D. J. Fox, Gaussian, Inc., Wallingford CT, 2019.
 
 ******************************************
 Gaussian 16:  ES64L-G16RevC.01  3-Jul-2019
                 9-Apr-2025 
 ******************************************
 %nprocs=16
 Will use up to   16 processors via shared memory.
 %mem=30GB
 %chk=Grambow2020_wb97xd3_009181_reverse_mol2.chk
 ----------------------------------------------------------------------
 #t hf aug-cc-pvdz iop(5/13=1,5/36=2,99/5=2) pseudo=read geom=check gue
 ss=(read,tcheck) scf=(maxcycle=1)
 ----------------------------------------------------------------------
 -----
 title
 -----
 Structure from the checkpoint file:  "Grambow2020_wb97xd3_009181_reverse_mol2.chk"
 Charge =  0 Multiplicity = 1
 Z-Matrix found in chk file.
 O,0,2.0592415,-0.9653092,1.16064273
 C,0,1.17888899,-0.61793781,0.42694794
 C,0,0.98155838,0.79084202,-0.06340898
 C,0,-0.43086994,1.29723343,-0.05422889
 N,0,-1.29009231,0.28867567,-0.09818708
 C,0,-0.95277151,-1.07520589,-0.22141407
 N,0,0.20048161,-1.54638708,-0.01833458
 H,0,1.26238499,0.84119759,-1.12741078
 H,0,1.65407216,1.47446182,0.45210645
 H,0,-2.27462757,0.51009978,-0.13858594
 H,0,-1.7685273,-1.72339534,-0.53961481
 Recover connectivity data from disk.
                    Distance matrix (angstroms):
                    1          2          3          4          5
     1  O    0.000000
     2  C    1.197495   0.000000
     3  C    2.396616   1.504676   0.000000
     4  C    3.577103   2.547692   1.500490   0.000000
     5  N    3.791460   2.682086   2.326753   1.325664   0.000000
     6  C    3.315778   2.274521   2.692347   2.434913   1.410370
     7  N    2.276538   1.420414   2.464701   2.913086   2.365511
     8  H    3.022191   2.133560   1.101589   2.055918   2.807084
     9  H    2.572677   2.145826   1.088746   2.152851   3.221338
    10  H    4.758912   3.676829   3.269131   2.006524   1.009936
    11  H    4.256452   3.292953   3.756479   3.339031   2.114755
                    6          7          8          9         10
     6  C    0.000000
     7  N    1.262238   0.000000
     8  H    3.065999   2.838706   0.000000
     9  H    3.708109   3.385228   1.746229   0.000000
    10  H    2.065758   3.220212   3.687527   4.088226   0.000000
    11  H    1.089430   2.044520   4.013611   4.787900   2.324965
                   11
    11  H    0.000000
 Framework group  C1[X(C4H4N2O)]
 Deg. of freedom    27
                         Standard orientation:                         
 ---------------------------------------------------------------------
 Center     Atomic      Atomic             Coordinates (Angstroms)
 Number     Number       Type             X           Y           Z
 ---------------------------------------------------------------------
      1          8           0       -2.155771   -0.124374   -0.361535
      2          6           0       -1.031596   -0.058688    0.045787
      3          6           0       -0.296641    1.224996    0.321554
      4          6           0        1.127139    1.280238   -0.148838
      5          7           0        1.629984    0.059025   -0.263598
      6          6           0        0.969858   -1.138676    0.081204
      7          7           0       -0.274079   -1.239071    0.270378
      8          1           0       -0.209321    1.359406    1.411420
      9          1           0       -0.868735    2.079370   -0.036386
     10          1           0        2.599015   -0.027794   -0.534545
     11          1           0        1.621312   -2.002892    0.206095
 ---------------------------------------------------------------------
 Rotational constants (GHZ):           5.4359463           2.9473457           2.0340132
 ======================================================================================================
                                       Pseudopotential Parameters
 ======================================================================================================
  Center     Atomic      Valence      Angular      Power
  Number     Number     Electrons     Momentum     of R      Exponent        Coefficient   SO-Coeffient
 ======================================================================================================
    1          8            8
                                      G and up 
                                                     0        0.0000010        0.00049668    0.00000000
                                                     2        0.1200000       -0.01803391    0.00000000
                                                     2        0.1400000        0.04014195    0.00000000
                                                     2        0.2000000       -0.02692147    0.00000000
                                                     2        0.2800000       -0.04241843    0.00000000
                                                     2        0.4000000        0.15412145    0.00000000
                                                     2        0.7000000       -0.40587006    0.00000000
                                                     2        1.1000000        1.75666647    0.00000000
                                      S - G
                                                     0        0.0000010       -0.01088195    0.00000000
                                                     2        0.1200000        0.09867335    0.00000000
                                                     2        0.2400000       -0.08484177    0.00000000
                                                     2        0.6000000       -1.39011554    0.00000000
                                                     2        2.5000000        1.36225910    0.00000000
                                      P - G
                                                     0        0.0000010        0.05874028    0.00000000
                                                     2        0.1200000       -0.11700340    0.00000000
                                                     2        0.1600000        0.08847775    0.00000000
                                                     2        0.3000000        0.04709907    0.00000000
                                                     2        1.2000000       -1.80388338    0.00000000
                                      D - G
                                                     0        0.0000010       -0.00541262    0.00000000
                                                     2        0.1200000       -0.26547906    0.00000000
                                                     2        0.1600000        1.04289661    0.00000000
                                                     2        0.2400000       -1.92800913    0.00000000
                                                     2        0.4000000        2.26691633    0.00000000
                                                     2        0.7000000       -1.97391482    0.00000000
                                      F - G
                                                     0        0.0000010       -0.02604870    0.00000000
                                                     2        0.1200000        0.37362552    0.00000000
                                                     2        0.1600000       -1.43526367    0.00000000
                                                     2        0.2200000        1.76778079    0.00000000
                                                     2        0.5000000       -1.90846303    0.00000000
    2          6            6
                                      G and up 
                                                     0        0.0000010       -0.00007288    0.00000000
                                                     2        0.1200000        0.10466671    0.00000000
                                                     2        0.1400000       -0.65716157    0.00000000
                                                     2        0.1600000        1.18890794    0.00000000
                                                     2        0.2000000       -1.25772850    0.00000000
                                                     2        0.2600000        1.01188378    0.00000000
                                                     2        0.4000000       -1.09380874    0.00000000
                                                     2        0.5000000        0.96944888    0.00000000
                                                     2        1.0000000       -0.79256938    0.00000000
                                                     2        3.0000000        1.06443276    0.00000000
                                      S - G
                                                     0        0.0000010       -0.00635295    0.00000000
                                                     2        0.1200000        0.16918955    0.00000000
                                                     2        0.1600000       -0.38862576    0.00000000
                                                     2        0.2800000        0.25638263    0.00000000
                                                     2        0.5000000        0.29628419    0.00000000
                                                     2        0.9000000       -0.28791512    0.00000000
                                      P - G
                                                     0        0.0000010       -0.04756931    0.00000000
                                                     2        0.1200000        0.28430375    0.00000000
                                                     2        0.1600000       -0.69640032    0.00000000
                                                     2        0.2600000        1.13005668    0.00000000
                                                     2        0.4000000       -1.31433324    0.00000000
                                                     2        0.7000000        0.91526469    0.00000000
                                      D - G
                                                     0        0.0000010       -0.11496411    0.00000000
                                                     2        0.1200000        0.16620776    0.00000000
                                                     2        0.1800000       -0.30959819    0.00000000
                                                     2        0.3000000        0.16621458    0.00000000
                                                     2        0.6000000        0.27350556    0.00000000
                                      F - G
                                                     0        0.0000010        0.12037550    0.00000000
                                                     2        0.1200000       -0.48737077    0.00000000
                                                     2        0.1400000        0.58315350    0.00000000
                                                     2        0.3000000        0.00005188    0.00000000
                                                     2        0.5000000       -1.16063549    0.00000000
                                                     2        0.8000000        2.09053308    0.00000000
    3          6            6
                                      G and up 
                                                     0        0.0000010       -0.00007288    0.00000000
                                                     2        0.1200000        0.10466671    0.00000000
                                                     2        0.1400000       -0.65716157    0.00000000
                                                     2        0.1600000        1.18890794    0.00000000
                                                     2        0.2000000       -1.25772850    0.00000000
                                                     2        0.2600000        1.01188378    0.00000000
                                                     2        0.4000000       -1.09380874    0.00000000
                                                     2        0.5000000        0.96944888    0.00000000
                                                     2        1.0000000       -0.79256938    0.00000000
                                                     2        3.0000000        1.06443276    0.00000000
                                      S - G
                                                     0        0.0000010       -0.00635295    0.00000000
                                                     2        0.1200000        0.16918955    0.00000000
                                                     2        0.1600000       -0.38862576    0.00000000
                                                     2        0.2800000        0.25638263    0.00000000
                                                     2        0.5000000        0.29628419    0.00000000
                                                     2        0.9000000       -0.28791512    0.00000000
                                      P - G
                                                     0        0.0000010       -0.04756931    0.00000000
                                                     2        0.1200000        0.28430375    0.00000000
                                                     2        0.1600000       -0.69640032    0.00000000
                                                     2        0.2600000        1.13005668    0.00000000
                                                     2        0.4000000       -1.31433324    0.00000000
                                                     2        0.7000000        0.91526469    0.00000000
                                      D - G
                                                     0        0.0000010       -0.11496411    0.00000000
                                                     2        0.1200000        0.16620776    0.00000000
                                                     2        0.1800000       -0.30959819    0.00000000
                                                     2        0.3000000        0.16621458    0.00000000
                                                     2        0.6000000        0.27350556    0.00000000
                                      F - G
                                                     0        0.0000010        0.12037550    0.00000000
                                                     2        0.1200000       -0.48737077    0.00000000
                                                     2        0.1400000        0.58315350    0.00000000
                                                     2        0.3000000        0.00005188    0.00000000
                                                     2        0.5000000       -1.16063549    0.00000000
                                                     2        0.8000000        2.09053308    0.00000000
    4          6            6
                                      G and up 
                                                     0        0.0000010       -0.00007288    0.00000000
                                                     2        0.1200000        0.10466671    0.00000000
                                                     2        0.1400000       -0.65716157    0.00000000
                                                     2        0.1600000        1.18890794    0.00000000
                                                     2        0.2000000       -1.25772850    0.00000000
                                                     2        0.2600000        1.01188378    0.00000000
                                                     2        0.4000000       -1.09380874    0.00000000
                                                     2        0.5000000        0.96944888    0.00000000
                                                     2        1.0000000       -0.79256938    0.00000000
                                                     2        3.0000000        1.06443276    0.00000000
                                      S - G
                                                     0        0.0000010       -0.00635295    0.00000000
                                                     2        0.1200000        0.16918955    0.00000000
                                                     2        0.1600000       -0.38862576    0.00000000
                                                     2        0.2800000        0.25638263    0.00000000
                                                     2        0.5000000        0.29628419    0.00000000
                                                     2        0.9000000       -0.28791512    0.00000000
                                      P - G
                                                     0        0.0000010       -0.04756931    0.00000000
                                                     2        0.1200000        0.28430375    0.00000000
                                                     2        0.1600000       -0.69640032    0.00000000
                                                     2        0.2600000        1.13005668    0.00000000
                                                     2        0.4000000       -1.31433324    0.00000000
                                                     2        0.7000000        0.91526469    0.00000000
                                      D - G
                                                     0        0.0000010       -0.11496411    0.00000000
                                                     2        0.1200000        0.16620776    0.00000000
                                                     2        0.1800000       -0.30959819    0.00000000
                                                     2        0.3000000        0.16621458    0.00000000
                                                     2        0.6000000        0.27350556    0.00000000
                                      F - G
                                                     0        0.0000010        0.12037550    0.00000000
                                                     2        0.1200000       -0.48737077    0.00000000
                                                     2        0.1400000        0.58315350    0.00000000
                                                     2        0.3000000        0.00005188    0.00000000
                                                     2        0.5000000       -1.16063549    0.00000000
                                                     2        0.8000000        2.09053308    0.00000000
    5          7            7
                                      G and up 
                                                     0        0.0000010       -0.00039818    0.00000000
                                                     2        0.1200000       -0.37616123    0.00000000
                                                     2        0.1400000        2.13837358    0.00000000
                                                     2        0.1600000       -3.36562035    0.00000000
                                                     2        0.2000000        2.53463289    0.00000000
                                                     2        0.3000000       -1.98118833    0.00000000
                                                     2        0.5000000        4.06642919    0.00000000
                                                     2        0.7000000       -6.15327959    0.00000000
                                                     2        1.2000000       10.22492851    0.00000000
                                                     2        2.0000000      -14.94707511    0.00000000
                                      S - G
                                                     0        0.0000010        0.02721443    0.00000000
                                                     2        0.1200000       -0.60186009    0.00000000
                                                     2        0.1600000        1.10088134    0.00000000
                                                     2        0.2600000       -0.59857981    0.00000000
                                                     2        0.6000000        0.21288222    0.00000000
                                                     2        3.0000000        5.09059205    0.00000000
                                      P - G
                                                     0        0.0000010        0.40558062    0.00000000
                                                     2        0.1200000        0.81809854    0.00000000
                                                     2        0.1600000       -2.44952728    0.00000000
                                                     2        0.2800000        4.16638749    0.00000000
                                                     2        0.5000000       -6.02944147    0.00000000
                                                     2        1.1000000        5.78262914    0.00000000
                                      D - G
                                                     0        0.0000010       -0.62770267    0.00000000
                                                     2        0.1600000        0.91438653    0.00000000
                                                     2        0.2600000       -2.00568466    0.00000000
                                                     2        0.5000000        3.30798839    0.00000000
                                                     2        1.1000000       -3.91526108    0.00000000
                                      F - G
                                                     0        0.0000010        0.29726344    0.00000000
                                                     2        0.1200000       -0.41591527    0.00000000
                                                     2        0.1600000        0.51444439    0.00000000
                                                     2        0.4000000       -0.69401726    0.00000000
                                                     2        0.7000000        0.51478123    0.00000000
    6          6            6
                                      G and up 
                                                     0        0.0000010       -0.00007288    0.00000000
                                                     2        0.1200000        0.10466671    0.00000000
                                                     2        0.1400000       -0.65716157    0.00000000
                                                     2        0.1600000        1.18890794    0.00000000
                                                     2        0.2000000       -1.25772850    0.00000000
                                                     2        0.2600000        1.01188378    0.00000000
                                                     2        0.4000000       -1.09380874    0.00000000
                                                     2        0.5000000        0.96944888    0.00000000
                                                     2        1.0000000       -0.79256938    0.00000000
                                                     2        3.0000000        1.06443276    0.00000000
                                      S - G
                                                     0        0.0000010       -0.00635295    0.00000000
                                                     2        0.1200000        0.16918955    0.00000000
                                                     2        0.1600000       -0.38862576    0.00000000
                                                     2        0.2800000        0.25638263    0.00000000
                                                     2        0.5000000        0.29628419    0.00000000
                                                     2        0.9000000       -0.28791512    0.00000000
                                      P - G
                                                     0        0.0000010       -0.04756931    0.00000000
                                                     2        0.1200000        0.28430375    0.00000000
                                                     2        0.1600000       -0.69640032    0.00000000
                                                     2        0.2600000        1.13005668    0.00000000
                                                     2        0.4000000       -1.31433324    0.00000000
                                                     2        0.7000000        0.91526469    0.00000000
                                      D - G
                                                     0        0.0000010       -0.11496411    0.00000000
                                                     2        0.1200000        0.16620776    0.00000000
                                                     2        0.1800000       -0.30959819    0.00000000
                                                     2        0.3000000        0.16621458    0.00000000
                                                     2        0.6000000        0.27350556    0.00000000
                                      F - G
                                                     0        0.0000010        0.12037550    0.00000000
                                                     2        0.1200000       -0.48737077    0.00000000
                                                     2        0.1400000        0.58315350    0.00000000
                                                     2        0.3000000        0.00005188    0.00000000
                                                     2        0.5000000       -1.16063549    0.00000000
                                                     2        0.8000000        2.09053308    0.00000000
    7          7            7
                                      G and up 
                                                     0        0.0000010       -0.00039818    0.00000000
                                                     2        0.1200000       -0.37616123    0.00000000
                                                     2        0.1400000        2.13837358    0.00000000
                                                     2        0.1600000       -3.36562035    0.00000000
                                                     2        0.2000000        2.53463289    0.00000000
                                                     2        0.3000000       -1.98118833    0.00000000
                                                     2        0.5000000        4.06642919    0.00000000
                                                     2        0.7000000       -6.15327959    0.00000000
                                                     2        1.2000000       10.22492851    0.00000000
                                                     2        2.0000000      -14.94707511    0.00000000
                                      S - G
                                                     0        0.0000010        0.02721443    0.00000000
                                                     2        0.1200000       -0.60186009    0.00000000
                                                     2        0.1600000        1.10088134    0.00000000
                                                     2        0.2600000       -0.59857981    0.00000000
                                                     2        0.6000000        0.21288222    0.00000000
                                                     2        3.0000000        5.09059205    0.00000000
                                      P - G
                                                     0        0.0000010        0.40558062    0.00000000
                                                     2        0.1200000        0.81809854    0.00000000
                                                     2        0.1600000       -2.44952728    0.00000000
                                                     2        0.2800000        4.16638749    0.00000000
                                                     2        0.5000000       -6.02944147    0.00000000
                                                     2        1.1000000        5.78262914    0.00000000
                                      D - G
                                                     0        0.0000010       -0.62770267    0.00000000
                                                     2        0.1600000        0.91438653    0.00000000
                                                     2        0.2600000       -2.00568466    0.00000000
                                                     2        0.5000000        3.30798839    0.00000000
                                                     2        1.1000000       -3.91526108    0.00000000
                                      F - G
                                                     0        0.0000010        0.29726344    0.00000000
                                                     2        0.1200000       -0.41591527    0.00000000
                                                     2        0.1600000        0.51444439    0.00000000
                                                     2        0.4000000       -0.69401726    0.00000000
                                                     2        0.7000000        0.51478123    0.00000000
    8          1            1
                                      F and up 
                                                     0        0.0000010       -0.00007675    0.00000000
                                                     2        0.1200000        0.05352699    0.00000000
                                                     2        0.1400000       -0.25123645    0.00000000
                                                     2        0.1600000        0.32188106    0.00000000
                                                     2        0.2200000       -0.25206857    0.00000000
                                                     2        0.3000000        0.19290477    0.00000000
                                                     2        0.5000000       -0.10129770    0.00000000
                                                     2        0.9000000        0.00314995    0.00000000
                                                     2        1.5000000        0.18401192    0.00000000
                                      S - F
                                                     0        0.0000010        0.08065976    0.00000000
                                                     2        0.1200000       -0.09231673    0.00000000
                                                     2        0.1600000       -0.03278082    0.00000000
                                                     2        0.2800000        0.38423402    0.00000000
                                                     2        0.6000000       -1.09357590    0.00000000
                                                     2        1.1000000        1.53099489    0.00000000
                                                     2        3.0000000       -2.63300202    0.00000000
                                      P - F
                                                     0        0.0000010       -0.11638665    0.00000000
                                                     2        0.1200000        0.35468655    0.00000000
                                                     2        0.1600000       -0.59160923    0.00000000
                                                     2        0.3000000        0.49390547    0.00000000
                                                     2        0.6000000       -0.37949835    0.00000000
                                                     2        1.6000000        0.89304688    0.00000000
                                      D - F
                                                     0        0.0000010        0.05443663    0.00000000
                                                     2        0.1200000       -0.29679479    0.00000000
                                                     2        0.1400000        0.36849872    0.00000000
                                                     2        0.2400000        0.02793449    0.00000000
                                                     2        0.4000000       -0.46312857    0.00000000
                                                     2        0.7000000        0.97587598    0.00000000
                                                     2        1.5000000       -2.43431102    0.00000000
    9          1            1
                                      F and up 
                                                     0        0.0000010       -0.00007675    0.00000000
                                                     2        0.1200000        0.05352699    0.00000000
                                                     2        0.1400000       -0.25123645    0.00000000
                                                     2        0.1600000        0.32188106    0.00000000
                                                     2        0.2200000       -0.25206857    0.00000000
                                                     2        0.3000000        0.19290477    0.00000000
                                                     2        0.5000000       -0.10129770    0.00000000
                                                     2        0.9000000        0.00314995    0.00000000
                                                     2        1.5000000        0.18401192    0.00000000
                                      S - F
                                                     0        0.0000010        0.08065976    0.00000000
                                                     2        0.1200000       -0.09231673    0.00000000
                                                     2        0.1600000       -0.03278082    0.00000000
                                                     2        0.2800000        0.38423402    0.00000000
                                                     2        0.6000000       -1.09357590    0.00000000
                                                     2        1.1000000        1.53099489    0.00000000
                                                     2        3.0000000       -2.63300202    0.00000000
                                      P - F
                                                     0        0.0000010       -0.11638665    0.00000000
                                                     2        0.1200000        0.35468655    0.00000000
                                                     2        0.1600000       -0.59160923    0.00000000
                                                     2        0.3000000        0.49390547    0.00000000
                                                     2        0.6000000       -0.37949835    0.00000000
                                                     2        1.6000000        0.89304688    0.00000000
                                      D - F
                                                     0        0.0000010        0.05443663    0.00000000
                                                     2        0.1200000       -0.29679479    0.00000000
                                                     2        0.1400000        0.36849872    0.00000000
                                                     2        0.2400000        0.02793449    0.00000000
                                                     2        0.4000000       -0.46312857    0.00000000
                                                     2        0.7000000        0.97587598    0.00000000
                                                     2        1.5000000       -2.43431102    0.00000000
   10          1            1
                                      F and up 
                                                     0        0.0000010       -0.00007675    0.00000000
                                                     2        0.1200000        0.05352699    0.00000000
                                                     2        0.1400000       -0.25123645    0.00000000
                                                     2        0.1600000        0.32188106    0.00000000
                                                     2        0.2200000       -0.25206857    0.00000000
                                                     2        0.3000000        0.19290477    0.00000000
                                                     2        0.5000000       -0.10129770    0.00000000
                                                     2        0.9000000        0.00314995    0.00000000
                                                     2        1.5000000        0.18401192    0.00000000
                                      S - F
                                                     0        0.0000010        0.08065976    0.00000000
                                                     2        0.1200000       -0.09231673    0.00000000
                                                     2        0.1600000       -0.03278082    0.00000000
                                                     2        0.2800000        0.38423402    0.00000000
                                                     2        0.6000000       -1.09357590    0.00000000
                                                     2        1.1000000        1.53099489    0.00000000
                                                     2        3.0000000       -2.63300202    0.00000000
                                      P - F
                                                     0        0.0000010       -0.11638665    0.00000000
                                                     2        0.1200000        0.35468655    0.00000000
                                                     2        0.1600000       -0.59160923    0.00000000
                                                     2        0.3000000        0.49390547    0.00000000
                                                     2        0.6000000       -0.37949835    0.00000000
                                                     2        1.6000000        0.89304688    0.00000000
                                      D - F
                                                     0        0.0000010        0.05443663    0.00000000
                                                     2        0.1200000       -0.29679479    0.00000000
                                                     2        0.1400000        0.36849872    0.00000000
                                                     2        0.2400000        0.02793449    0.00000000
                                                     2        0.4000000       -0.46312857    0.00000000
                                                     2        0.7000000        0.97587598    0.00000000
                                                     2        1.5000000       -2.43431102    0.00000000
   11          1            1
                                      F and up 
                                                     0        0.0000010       -0.00007675    0.00000000
                                                     2        0.1200000        0.05352699    0.00000000
                                                     2        0.1400000       -0.25123645    0.00000000
                                                     2        0.1600000        0.32188106    0.00000000
                                                     2        0.2200000       -0.25206857    0.00000000
                                                     2        0.3000000        0.19290477    0.00000000
                                                     2        0.5000000       -0.10129770    0.00000000
                                                     2        0.9000000        0.00314995    0.00000000
                                                     2        1.5000000        0.18401192    0.00000000
                                      S - F
                                                     0        0.0000010        0.08065976    0.00000000
                                                     2        0.1200000       -0.09231673    0.00000000
                                                     2        0.1600000       -0.03278082    0.00000000
                                                     2        0.2800000        0.38423402    0.00000000
                                                     2        0.6000000       -1.09357590    0.00000000
                                                     2        1.1000000        1.53099489    0.00000000
                                                     2        3.0000000       -2.63300202    0.00000000
                                      P - F
                                                     0        0.0000010       -0.11638665    0.00000000
                                                     2        0.1200000        0.35468655    0.00000000
                                                     2        0.1600000       -0.59160923    0.00000000
                                                     2        0.3000000        0.49390547    0.00000000
                                                     2        0.6000000       -0.37949835    0.00000000
                                                     2        1.6000000        0.89304688    0.00000000
                                      D - F
                                                     0        0.0000010        0.05443663    0.00000000
                                                     2        0.1200000       -0.29679479    0.00000000
                                                     2        0.1400000        0.36849872    0.00000000
                                                     2        0.2400000        0.02793449    0.00000000
                                                     2        0.4000000       -0.46312857    0.00000000
                                                     2        0.7000000        0.97587598    0.00000000
                                                     2        1.5000000       -2.43431102    0.00000000
 ======================================================================================================
   197 basis functions,   345 primitive gaussians,   211 cartesian basis functions
    25 alpha electrons       25 beta electrons
       nuclear repulsion energy       278.2731514713 Hartrees.
 NAtoms=   11 NActive=   11 NUniq=   11 SFac= 1.00D+00 NAtFMM=   60 NAOKFM=F Big=F
   1 Symmetry operations used in ECPInt.
 ECPInt:  NShTT=    3486 NPrTT=   18282 LenC2=    3484 LenP2D=   14103.
 LDataN:  DoStor=T MaxTD1= 6 Len=  172
 Initial guess from the checkpoint file:  "Grambow2020_wb97xd3_009181_reverse_mol2.chk"
 B after Tr=     0.655170    0.329055    0.091174
         Rot=    0.153883    0.151129    0.976155   -0.024517 Ang= 162.30 deg.
 >>>>>>>>>> Convergence criterion not met.
 SCF Done:  E(RHF) =  -337.867766780     A.U. after    2 cycles
            NFock=  1  Conv=0.16D-01     -V/T= 2.0010

 **********************************************************************

            Population analysis using the SCF Density.

 **********************************************************************

 Orbital symmetries:
       Occupied  (A) (A) (A) (A) (A) (A) (A) (A) (A) (A) (A) (A)
                 (A) (A) (A) (A) (A) (A) (A) (A) (A) (A) (A) (A)
                 (A)
       Virtual   (A) (A) (A) (A) (A) (A) (A) (A) (A) (A) (A) (A)
                 (A) (A) (A) (A) (A) (A) (A) (A) (A) (A) (A) (A)
                 (A) (A) (A) (A) (A) (A) (A) (A) (A) (A) (A) (A)
                 (A) (A) (A) (A) (A) (A) (A) (A) (A) (A) (A) (A)
                 (A) (A) (A) (A) (A) (A) (A) (A) (A) (A) (A) (A)
                 (A) (A) (A) (A) (A) (A) (A) (A) (A) (A) (A) (A)
                 (A) (A) (A) (A) (A) (A) (A) (A) (A) (A) (A) (A)
                 (A) (A) (A) (A) (A) (A) (A) (A) (A) (A) (A) (A)
                 (A) (A) (A) (A) (A) (A) (A) (A) (A) (A) (A) (A)
                 (A) (A) (A) (A) (A) (A) (A) (A) (A) (A) (A) (A)
                 (A) (A) (A) (A) (A) (A) (A) (A) (A) (A) (A) (A)
                 (A) (A) (A) (A) (A) (A) (A) (A) (A) (A) (A) (A)
                 (A) (A) (A) (A) (A) (A) (A) (A) (A) (A) (A) (A)
                 (A) (A) (A) (A) (A) (A) (A) (A) (A) (A) (A) (A)
                 (A) (A) (A) (A)
 The electronic state is 1-A.
 Alpha  occ. eigenvalues --  -20.54388 -15.59323 -15.52859 -11.37367 -11.37187
 Alpha  occ. eigenvalues --  -11.30195 -11.26633  -1.49138  -1.34978  -1.24633
 Alpha  occ. eigenvalues --   -1.08074  -0.95318  -0.90576  -0.82618  -0.74031
 Alpha  occ. eigenvalues --   -0.71949  -0.67767  -0.64288  -0.60559  -0.58860
 Alpha  occ. eigenvalues --   -0.55788  -0.51836  -0.46796  -0.45771  -0.37601
 Alpha virt. eigenvalues --    0.01975   0.03748   0.04428   0.04683   0.05488
 Alpha virt. eigenvalues --    0.07854   0.08625   0.09432   0.10243   0.11020
 Alpha virt. eigenvalues --    0.12473   0.12533   0.14006   0.14089   0.15522
 Alpha virt. eigenvalues --    0.15566   0.16041   0.17040   0.17985   0.18645
 Alpha virt. eigenvalues --    0.18995   0.20620   0.21871   0.23306   0.23828
 Alpha virt. eigenvalues --    0.26484   0.26767   0.28047   0.28650   0.30476
 Alpha virt. eigenvalues --    0.30778   0.33050   0.33865   0.34229   0.34785
 Alpha virt. eigenvalues --    0.35273   0.37208   0.37563   0.39464   0.40035
 Alpha virt. eigenvalues --    0.41112   0.43629   0.43843   0.45071   0.45948
 Alpha virt. eigenvalues --    0.47036   0.49298   0.51449   0.52172   0.53711
 Alpha virt. eigenvalues --    0.54826   0.55710   0.57089   0.58238   0.59779
 Alpha virt. eigenvalues --    0.59980   0.60746   0.62439   0.62911   0.64317
 Alpha virt. eigenvalues --    0.65536   0.66526   0.67991   0.69004   0.71231
 Alpha virt. eigenvalues --    0.72863   0.75382   0.75749   0.77133   0.78300
 Alpha virt. eigenvalues --    0.78845   0.80078   0.81329   0.82579   0.85148
 Alpha virt. eigenvalues --    0.86769   0.88164   0.88620   0.90353   0.92421
 Alpha virt. eigenvalues --    0.94022   0.95031   0.96451   0.99487   1.00286
 Alpha virt. eigenvalues --    1.01655   1.03540   1.04299   1.06098   1.09876
 Alpha virt. eigenvalues --    1.14026   1.14862   1.18755   1.20494   1.21839
 Alpha virt. eigenvalues --    1.24452   1.29928   1.30572   1.33823   1.36335
 Alpha virt. eigenvalues --    1.37439   1.40623   1.44471   1.45900   1.47175
 Alpha virt. eigenvalues --    1.49161   1.51907   1.55938   1.59392   1.60432
 Alpha virt. eigenvalues --    1.67155   1.68050   1.69151   1.71613   1.74589
 Alpha virt. eigenvalues --    1.77176   1.80154   1.81420   1.84604   1.86356
 Alpha virt. eigenvalues --    1.86607   1.89132   1.91381   1.93386   1.97168
 Alpha virt. eigenvalues --    2.00637   2.04175   2.05518   2.08004   2.10702
 Alpha virt. eigenvalues --    2.11995   2.14444   2.17280   2.18121   2.20893
 Alpha virt. eigenvalues --    2.23146   2.25751   2.25809   2.29001   2.31613
 Alpha virt. eigenvalues --    2.33343   2.35106   2.38000   2.39122   2.42106
 Alpha virt. eigenvalues --    2.43582   2.45915   2.48658   2.53698   2.57595
 Alpha virt. eigenvalues --    2.60366   2.65213   2.65493   2.68493   2.73298
 Alpha virt. eigenvalues --    2.78221   2.82920   2.92912   2.96088   3.00026
 Alpha virt. eigenvalues --    3.02076   3.09491   3.19209   3.21036   3.34763
 Alpha virt. eigenvalues --    3.47002   3.51424   3.88375   3.90282   3.92699
 Alpha virt. eigenvalues --    4.06995   4.26942
          Condensed to atoms (all electrons):
 Mulliken charges:
               1
     1  O   -1.216235
     2  C    0.779582
     3  C   -0.302654
     4  C   -0.735055
     5  N    0.628936
     6  C   -0.624116
     7  N    0.781716
     8  H    0.404912
     9  H    0.157588
    10  H    0.158759
    11  H   -0.033435
 Sum of Mulliken charges =   0.00000
 Mulliken charges with hydrogens summed into heavy atoms:
               1
     1  O   -1.216235
     2  C    0.779582
     3  C    0.259846
     4  C   -0.735055
     5  N    0.787696
     6  C   -0.657550
     7  N    0.781716
 Electronic spatial extent (au):  <R**2>=            590.3527
 Charge=             -0.0000 electrons
 Dipole moment (field-independent basis, Debye):
    X=              4.6154    Y=             -0.4397    Z=              0.8507  Tot=              4.7137

 Test job not archived.
 1\1\GINC-SE097\SP\RHF\Aug-CC-pVDZ\C4H4N2O1\OHZDE\09-Apr-2025\0\\#t hf 
 aug-cc-pvdz iop(5/13=1,5/36=2,99/5=2) pseudo=read geom=check guess=(re
 ad,tcheck) scf=(maxcycle=1)\\title\\0,1\O,0,2.0592415,-0.9653092,1.160
 64273\C,0,1.17888899,-0.61793781,0.42694794\C,0,0.98155838,0.79084202,
 -0.06340898\C,0,-0.43086994,1.29723343,-0.05422889\N,0,-1.29009231,0.2
 8867567,-0.09818708\C,0,-0.95277151,-1.07520589,-0.22141407\N,0,0.2004
 8161,-1.54638708,-0.01833458\H,0,1.26238499,0.84119759,-1.12741078\H,0
 ,1.65407216,1.47446182,0.45210645\H,0,-2.27462757,0.51009978,-0.138585
 94\H,0,-1.7685273,-1.72339534,-0.53961481\\Version=ES64L-G16RevC.01\St
 ate=1-A\HF=-337.8677668\RMSD=1.578e-02\Dipole=-1.6011596,0.3256006,-0.
 8771937\Quadrupole=5.042571,-5.6457398,0.6031688,5.5337795,-1.6385235,
 1.3572229\PG=C01 [X(C4H4N2O1)]\\@


 SOME PHYSICISTS WOULD PREFER TO COME BACK TO THE IDEA OF AN OBJECTIVE
 REAL WORLD WHOSE SMALLEST PARTS EXIST OBJECTIVELY IN THE SAME SENSE AS
 STONES OR TREES EXIST INDEPENDENTLY OF WHETHER WE OBSERVE THEM.
 THIS, HOWEVER, IS IMPOSSIBLE.  -- WERNER HEISENBERG
 Job cpu time:       0 days  0 hours  0 minutes 44.0 seconds.
 Elapsed time:       0 days  0 hours  0 minutes  3.9 seconds.
 File lengths (MBytes):  RWF=     10 Int=      0 D2E=      0 Chk=      6 Scr=      1
 Normal termination of Gaussian 16 at Wed Apr  9 04:05:04 2025.
