 Entering Gaussian System, Link 0=g16
 Input=Grambow2020_wb97xd3_008692_reverse_mol2.gjf
 Output=Grambow2020_wb97xd3_008692_reverse_mol2.log
 Initial command:
 /arc/software/Gaussian/g16.c01/l1.exe "/tmp/slurm/4869283/Gau-1993133.inp" -scrdir="/tmp/slurm/4869283/"
 Entering Link 1 = /arc/software/Gaussian/g16.c01/l1.exe PID=   1993134.
  
 Copyright (c) 1988-2019, Gaussian, Inc.  All Rights Reserved.
  
 This is part of the Gaussian(R) 16 program.  It is based on
 the Gaussian(R) 09 system (copyright 2009, Gaussian, Inc.),
 the Gaussian(R) 03 system (copyright 2003, Gaussian, Inc.),
 the Gaussian(R) 98 system (copyright 1998, Gaussian, Inc.),
 the Gaussian(R) 94 system (copyright 1995, Gaussian, Inc.),
 the Gaussian 92(TM) system (copyright 1992, Gaussian, Inc.),
 the Gaussian 90(TM) system (copyright 1990, Gaussian, Inc.),
 the Gaussian 88(TM) system (copyright 1988, Gaussian, Inc.),
 the Gaussian 86(TM) system (copyright 1986, Carnegie Mellon
 University), and the Gaussian 82(TM) system (copyright 1983,
 Carnegie Mellon University). Gaussian is a federally registered
 trademark of Gaussian, Inc.
  
 This software contains proprietary and confidential information,
 including trade secrets, belonging to Gaussian, Inc.
  
 This software is provided under written license and may be
 used, copied, transmitted, or stored only in accord with that
 written license.
  
 The following legend is applicable only to US Government
 contracts under FAR:
  
                    RESTRICTED RIGHTS LEGEND
  
 Use, reproduction and disclosure by the US Government is
 subject to restrictions as set forth in subparagraphs (a)
 and (c) of the Commercial Computer Software - Restricted
 Rights clause in FAR 52.227-19.
  
 Gaussian, Inc.
 340 Quinnipiac St., Bldg. 40, Wallingford CT 06492
  
  
 ---------------------------------------------------------------
 Warning -- This program may not be used in any manner that
 competes with the business of Gaussian, Inc. or will provide
 assistance to any competitor of Gaussian, Inc.  The licensee
 of this program is prohibited from giving any competitor of
 Gaussian, Inc. access to this program.  By using this program,
 the user acknowledges that Gaussian, Inc. is engaged in the
 business of creating and licensing software in the field of
 computational chemistry and represents and warrants to the
 licensee that it is not a competitor of Gaussian, Inc. and that
 it will not use this program in any manner prohibited above.
 ---------------------------------------------------------------
  

 Cite this work as:
 Gaussian 16, Revision C.01,
 M. J. Frisch, G. W. Trucks, H. B. Schlegel, G. E. Scuseria, 
 M. A. Robb, J. R. Cheeseman, G. Scalmani, V. Barone, 
 G. A. Petersson, H. Nakatsuji, X. Li, M. Caricato, A. V. Marenich, 
 J. Bloino, B. G. Janesko, R. Gomperts, B. Mennucci, H. P. Hratchian, 
 J. V. Ortiz, A. F. Izmaylov, J. L. Sonnenberg, D. Williams-Young, 
 F. Ding, F. Lipparini, F. Egidi, J. Goings, B. Peng, A. Petrone, 
 T. Henderson, D. Ranasinghe, V. G. Zakrzewski, J. Gao, N. Rega, 
 G. Zheng, W. Liang, M. Hada, M. Ehara, K. Toyota, R. Fukuda, 
 J. Hasegawa, M. Ishida, T. Nakajima, Y. Honda, O. Kitao, H. Nakai, 
 T. Vreven, K. Throssell, J. A. Montgomery, Jr., J. E. Peralta, 
 F. Ogliaro, M. J. Bearpark, J. J. Heyd, E. N. Brothers, K. N. Kudin, 
 V. N. Staroverov, T. A. Keith, R. Kobayashi, J. Normand, 
 K. Raghavachari, A. P. Rendell, J. C. Burant, S. S. Iyengar, 
 J. Tomasi, M. Cossi, J. M. Millam, M. Klene, C. Adamo, R. Cammi, 
 J. W. Ochterski, R. L. Martin, K. Morokuma, O. Farkas, 
 J. B. Foresman, and D. J. Fox, Gaussian, Inc., Wallingford CT, 2019.
 
 ******************************************
 Gaussian 16:  ES64L-G16RevC.01  3-Jul-2019
                 9-Apr-2025 
 ******************************************
 %nprocs=16
 Will use up to   16 processors via shared memory.
 %mem=30GB
 %chk=Grambow2020_wb97xd3_008692_reverse_mol2.chk
 ----------------------------------------------------------------------
 #t hf aug-cc-pvdz symm=none int=(grid=ultrafine) guess=(read,tcheck) s
 table=(opt,rrhf)
 ----------------------------------------------------------------------
 -----
 title
 -----
 Symbolic Z-matrix:
 Charge =  0 Multiplicity = 1
 O                    -2.89054  -1.20133  -0.10514 
 C                    -1.80114  -0.78864  -0.09737 
 C                    -0.59609  -0.28952  -0.0397 
 C                    -0.1964    1.18551   0.01968 
 N                     1.26599   1.14019   0.04793 
 C                     1.61868  -0.07298  -0.01783 
 N                     0.6224   -1.02998  -0.16599 
 H                    -0.57161   1.70309   0.90582 
 H                    -0.5332    1.74036  -0.85939 
 H                     2.65299  -0.39901   0.00073 
 H                     0.72449  -1.89396   0.34283 
 
                    Distance matrix (angstroms):
                    1          2          3          4          5
     1  O    0.000000
     2  C    1.164969   0.000000
     3  C    2.469849   1.305601   0.000000
     4  C    3.601523   2.546796   1.529375   0.000000
     5  N    4.773145   3.626132   2.349280   1.463370   0.000000
     6  C    4.649069   3.494810   2.225442   2.209009   1.265105
     7  N    3.517642   2.436500   1.431421   2.369241   2.273677
     8  H    3.851639   2.954125   2.205695   1.092663   2.104670
     9  H    3.844408   2.929879   2.190036   1.092736   2.102511
    10  H    5.602284   4.472217   3.251178   3.260383   2.072470
    11  H    3.707942   2.791836   2.112939   3.230419   3.096170
                    6          7          8          9         10
     6  C    0.000000
     7  N    1.389378   0.000000
     8  H    2.967311   3.169245   0.000000
     9  H    2.937180   3.080749   1.766025   0.000000
    10  H    1.084637   2.132883   3.954249   3.933009   0.000000
    11  H    2.060493   1.007861   3.864663   4.029321   2.463939
                   11
    11  H    0.000000
 Symmetry turned off by external request.
 Rotational constants (GHZ):           8.2843916           1.8881134           1.5556295
   197 basis functions,   345 primitive gaussians,   211 cartesian basis functions
    25 alpha electrons       25 beta electrons
       nuclear repulsion energy       269.3752859823 Hartrees.
 NAtoms=   11 NActive=   11 NUniq=   11 SFac= 1.00D+00 NAtFMM=   60 NAOKFM=F Big=F
 ExpMin= 2.97D-02 ExpMax= 1.17D+04 ExpMxC= 4.01D+02 IAcc=3 IRadAn=         5 AccDes= 0.00D+00
 Harris functional with IExCor=  205 and IRadAn=       5 diagonalized for initial guess.
 HarFok:  IExCor=  205 AccDes= 0.00D+00 IRadAn=         5 IDoV= 1 UseB2=F ITyADJ=14
 ICtDFT=  3500011 ScaDFX=  1.000000  1.000000  1.000000  1.000000
 FoFCou: FMM=F IPFlag=           0 FMFlag=      100000 FMFlg1=           0
         NFxFlg=           0 DoJE=T BraDBF=F KetDBF=T FulRan=T
         wScrn=  0.000000 ICntrl=       500 IOpCl=  0 I1Cent=   200000004 NGrid=           0
         NMat0=    1 NMatS0=      1 NMatT0=    0 NMatD0=    1 NMtDS0=    0 NMtDT0=    0
 Symmetry not used in FoFCou.
 SCF Done:  E(RHF) =  -337.539583283     A.U. after   16 cycles
            NFock= 16  Conv=0.75D-08     -V/T= 2.0010

 **********************************************************************

            Population analysis using the SCF Density.

 **********************************************************************

 Alpha  occ. eigenvalues --  -20.63506 -15.61505 -15.56560 -11.37937 -11.33008
 Alpha  occ. eigenvalues --  -11.29026 -11.28657  -1.47169  -1.33541  -1.18417
 Alpha  occ. eigenvalues --   -1.06942  -0.93247  -0.81497  -0.78950  -0.73551
 Alpha  occ. eigenvalues --   -0.66662  -0.65163  -0.63302  -0.61872  -0.58263
 Alpha  occ. eigenvalues --   -0.56841  -0.52675  -0.44113  -0.42397  -0.31142
 Alpha virt. eigenvalues --    0.02718   0.04401   0.04869   0.05541   0.07408
 Alpha virt. eigenvalues --    0.09281   0.09817   0.09958   0.11355   0.11753
 Alpha virt. eigenvalues --    0.12738   0.13601   0.14508   0.15229   0.15620
 Alpha virt. eigenvalues --    0.16176   0.17461   0.17774   0.18281   0.19603
 Alpha virt. eigenvalues --    0.20025   0.21300   0.22397   0.23199   0.23942
 Alpha virt. eigenvalues --    0.25983   0.26178   0.28272   0.29943   0.31098
 Alpha virt. eigenvalues --    0.32064   0.32690   0.33898   0.34785   0.36541
 Alpha virt. eigenvalues --    0.37708   0.38350   0.39866   0.40707   0.41636
 Alpha virt. eigenvalues --    0.42160   0.43277   0.43571   0.46453   0.47349
 Alpha virt. eigenvalues --    0.49432   0.50396   0.51731   0.53171   0.53615
 Alpha virt. eigenvalues --    0.54889   0.55211   0.57511   0.59178   0.59405
 Alpha virt. eigenvalues --    0.60443   0.61961   0.64343   0.65797   0.65990
 Alpha virt. eigenvalues --    0.67768   0.69603   0.69885   0.70354   0.71094
 Alpha virt. eigenvalues --    0.72873   0.74600   0.76402   0.77399   0.77546
 Alpha virt. eigenvalues --    0.79378   0.80497   0.82500   0.83830   0.85619
 Alpha virt. eigenvalues --    0.88999   0.90483   0.91886   0.92761   0.95735
 Alpha virt. eigenvalues --    0.96799   0.98424   1.00268   1.02784   1.04810
 Alpha virt. eigenvalues --    1.07104   1.09594   1.11647   1.12347   1.14988
 Alpha virt. eigenvalues --    1.17666   1.18939   1.20204   1.21747   1.24504
 Alpha virt. eigenvalues --    1.25275   1.26312   1.27382   1.32187   1.36869
 Alpha virt. eigenvalues --    1.37945   1.41988   1.43880   1.49987   1.50622
 Alpha virt. eigenvalues --    1.53760   1.56938   1.58504   1.60068   1.66352
 Alpha virt. eigenvalues --    1.66690   1.69736   1.70976   1.72716   1.75642
 Alpha virt. eigenvalues --    1.76394   1.80148   1.80566   1.84127   1.85085
 Alpha virt. eigenvalues --    1.88341   1.92716   1.96025   1.97188   1.99845
 Alpha virt. eigenvalues --    2.01735   2.05323   2.10558   2.11475   2.15712
 Alpha virt. eigenvalues --    2.16847   2.23197   2.25523   2.27331   2.29033
 Alpha virt. eigenvalues --    2.31973   2.37209   2.37378   2.38714   2.42375
 Alpha virt. eigenvalues --    2.46127   2.46775   2.51049   2.56795   2.58866
 Alpha virt. eigenvalues --    2.64551   2.66964   2.69390   2.73298   2.75330
 Alpha virt. eigenvalues --    2.78061   2.82753   2.83534   2.95906   3.01367
 Alpha virt. eigenvalues --    3.03668   3.05286   3.07120   3.08762   3.15898
 Alpha virt. eigenvalues --    3.17260   3.33533   3.43008   3.46918   3.60322
 Alpha virt. eigenvalues --    3.67178   3.68643   3.69616   3.81282   3.87981
 Alpha virt. eigenvalues --    3.94595   4.24900
          Condensed to atoms (all electrons):
 Mulliken charges:
               1
     1  O   -0.470229
     2  C   -0.218474
     3  C    0.860604
     4  C    0.650541
     5  N   -0.663864
     6  C    0.880863
     7  N   -0.658259
     8  H   -0.073420
     9  H   -0.071799
    10  H   -0.164205
    11  H   -0.071759
 Sum of Mulliken charges =  -0.00000
 Mulliken charges with hydrogens summed into heavy atoms:
               1
     1  O   -0.470229
     2  C   -0.218474
     3  C    0.860604
     4  C    0.505322
     5  N   -0.663864
     6  C    0.716658
     7  N   -0.730017
 Electronic spatial extent (au):  <R**2>=            734.2485
 Charge=             -0.0000 electrons
 Dipole moment (field-independent basis, Debye):
    X=              1.3997    Y=             -1.5022    Z=              0.7444  Tot=              2.1841
 NROrb=    197 NOA=    25 NOB=    25 NVA=   172 NVB=   172

 **** Warning!!: The largest alpha MO coefficient is  0.73453903D+02

    12 initial guesses have been made.
 Iteration     1 Dimension    12 NMult     0 NNew     12
 Iteration     2 Dimension    24 NMult    12 NNew     12
 Iteration     3 Dimension    27 NMult    24 NNew      3
 Iteration     4 Dimension    30 NMult    27 NNew      3
 Iteration     5 Dimension    33 NMult    30 NNew      3
 Iteration     6 Dimension    36 NMult    33 NNew      3
 ***********************************************************************
 Stability analysis using <AA,BB:AA,BB> singles matrix:
 ***********************************************************************
 Ground to excited state transition densities written to RWF  633

 Eigenvectors of the stability matrix:
 
 Excited state symmetry could not be determined.
 Eigenvector   1:      Singlet-?Sym  Eigenvalue= 0.1094542  <S**2>=0.000
      24 -> 31        -0.11290
      24 -> 34        -0.15776
      25 -> 28        -0.10293
      25 -> 31         0.35809
      25 -> 34         0.46424
      25 -> 35         0.12254
      25 -> 42        -0.10038
 The wavefunction is stable under the perturbations considered.
 The wavefunction is already stable.

 **********************************************************************

            Population analysis using the SCF Density.

 **********************************************************************

 Alpha  occ. eigenvalues --  -20.63506 -15.61505 -15.56560 -11.37937 -11.33008
 Alpha  occ. eigenvalues --  -11.29026 -11.28657  -1.47169  -1.33541  -1.18417
 Alpha  occ. eigenvalues --   -1.06942  -0.93247  -0.81497  -0.78950  -0.73551
 Alpha  occ. eigenvalues --   -0.66662  -0.65163  -0.63302  -0.61872  -0.58263
 Alpha  occ. eigenvalues --   -0.56841  -0.52675  -0.44113  -0.42397  -0.31142
 Alpha virt. eigenvalues --    0.02718   0.04401   0.04869   0.05541   0.07408
 Alpha virt. eigenvalues --    0.09281   0.09817   0.09958   0.11355   0.11753
 Alpha virt. eigenvalues --    0.12738   0.13601   0.14508   0.15229   0.15620
 Alpha virt. eigenvalues --    0.16176   0.17461   0.17774   0.18281   0.19603
 Alpha virt. eigenvalues --    0.20025   0.21300   0.22397   0.23199   0.23942
 Alpha virt. eigenvalues --    0.25983   0.26178   0.28272   0.29943   0.31098
 Alpha virt. eigenvalues --    0.32064   0.32690   0.33898   0.34785   0.36541
 Alpha virt. eigenvalues --    0.37708   0.38350   0.39866   0.40707   0.41636
 Alpha virt. eigenvalues --    0.42160   0.43277   0.43571   0.46453   0.47349
 Alpha virt. eigenvalues --    0.49432   0.50396   0.51731   0.53171   0.53615
 Alpha virt. eigenvalues --    0.54889   0.55211   0.57511   0.59178   0.59405
 Alpha virt. eigenvalues --    0.60443   0.61961   0.64343   0.65797   0.65990
 Alpha virt. eigenvalues --    0.67768   0.69603   0.69885   0.70354   0.71094
 Alpha virt. eigenvalues --    0.72873   0.74600   0.76402   0.77399   0.77546
 Alpha virt. eigenvalues --    0.79378   0.80497   0.82500   0.83830   0.85619
 Alpha virt. eigenvalues --    0.88999   0.90483   0.91886   0.92761   0.95735
 Alpha virt. eigenvalues --    0.96799   0.98424   1.00268   1.02784   1.04810
 Alpha virt. eigenvalues --    1.07104   1.09594   1.11647   1.12347   1.14988
 Alpha virt. eigenvalues --    1.17666   1.18939   1.20204   1.21747   1.24504
 Alpha virt. eigenvalues --    1.25275   1.26312   1.27382   1.32187   1.36869
 Alpha virt. eigenvalues --    1.37945   1.41988   1.43880   1.49987   1.50622
 Alpha virt. eigenvalues --    1.53760   1.56938   1.58504   1.60068   1.66352
 Alpha virt. eigenvalues --    1.66690   1.69736   1.70976   1.72716   1.75642
 Alpha virt. eigenvalues --    1.76394   1.80148   1.80566   1.84127   1.85085
 Alpha virt. eigenvalues --    1.88341   1.92716   1.96025   1.97188   1.99845
 Alpha virt. eigenvalues --    2.01735   2.05323   2.10558   2.11475   2.15712
 Alpha virt. eigenvalues --    2.16847   2.23197   2.25523   2.27331   2.29033
 Alpha virt. eigenvalues --    2.31973   2.37209   2.37378   2.38714   2.42375
 Alpha virt. eigenvalues --    2.46127   2.46775   2.51049   2.56795   2.58866
 Alpha virt. eigenvalues --    2.64551   2.66964   2.69390   2.73298   2.75330
 Alpha virt. eigenvalues --    2.78061   2.82753   2.83534   2.95906   3.01367
 Alpha virt. eigenvalues --    3.03668   3.05286   3.07120   3.08762   3.15898
 Alpha virt. eigenvalues --    3.17260   3.33533   3.43008   3.46918   3.60322
 Alpha virt. eigenvalues --    3.67178   3.68643   3.69616   3.81282   3.87981
 Alpha virt. eigenvalues --    3.94595   4.24900
          Condensed to atoms (all electrons):
 Mulliken charges:
               1
     1  O   -0.470229
     2  C   -0.218474
     3  C    0.860604
     4  C    0.650541
     5  N   -0.663864
     6  C    0.880863
     7  N   -0.658259
     8  H   -0.073420
     9  H   -0.071799
    10  H   -0.164205
    11  H   -0.071759
 Sum of Mulliken charges =  -0.00000
 Mulliken charges with hydrogens summed into heavy atoms:
               1
     1  O   -0.470229
     2  C   -0.218474
     3  C    0.860604
     4  C    0.505322
     5  N   -0.663864
     6  C    0.716658
     7  N   -0.730017
 Electronic spatial extent (au):  <R**2>=            734.2485
 Charge=             -0.0000 electrons
 Dipole moment (field-independent basis, Debye):
    X=              1.3997    Y=             -1.5022    Z=              0.7444  Tot=              2.1841
 Unable to Open any file for archive entry.
 1\1\GINC-SE334\Stability\RHF\Aug-CC-pVDZ\C4H4N2O1\OHZDE\09-Apr-2025\0\
 \#t hf aug-cc-pvdz symm=none int=(grid=ultrafine) guess=(read,tcheck) 
 stable=(opt,rrhf)\\title\\0,1\O,0,-2.89053661,-1.20133224,-0.10514468\
 C,0,-1.80114442,-0.78863816,-0.09737451\C,0,-0.5960945,-0.28951587,-0.
 03970114\C,0,-0.19640169,1.18551187,0.01968363\N,0,1.26599332,1.140192
 71,0.04792971\C,0,1.61867987,-0.07297554,-0.01783304\N,0,0.62240206,-1
 .02997685,-0.16599172\H,0,-0.57161453,1.70309064,0.9058208\H,0,-0.5332
 048,1.74036323,-0.85939269\H,0,2.65298732,-0.3990128,0.00072948\H,0,0.
 72449099,-1.89395898,0.34282714\\Version=ES64L-G16RevC.01\HF=-337.5395
 833\RMSD=7.489e-09\Dipole=0.5507039,-0.5910303,0.2928699\Quadrupole=-2
 .82114,1.8811018,0.9400383,-7.111714,0.2618714,-1.4811251\PG=Unknown\\
 @
 The archive entry for this job was punched.


  ON THE CHOICE OF THE CORRECT LANGUAGE -
 I SPEAK SPANISH TO GOD, ITALIAN TO WOMEN,
 FRENCH TO MEN, AND GERMAN TO MY HORSE.
          -- CHARLES V
 Job cpu time:       0 days  0 hours  1 minutes 38.8 seconds.
 Elapsed time:       0 days  0 hours  0 minutes 12.4 seconds.
 File lengths (MBytes):  RWF=    198 Int=      0 D2E=      0 Chk=      6 Scr=      1
 Normal termination of Gaussian 16 at Wed Apr  9 03:58:24 2025.
 Initial command:
 /arc/software/Gaussian/g16.c01/l1.exe "/tmp/slurm/4869283/Gau-1993133.inp" -scrdir="/tmp/slurm/4869283/"
 Entering Link 1 = /arc/software/Gaussian/g16.c01/l1.exe PID=   1993486.
  
 Copyright (c) 1988-2019, Gaussian, Inc.  All Rights Reserved.
  
 This is part of the Gaussian(R) 16 program.  It is based on
 the Gaussian(R) 09 system (copyright 2009, Gaussian, Inc.),
 the Gaussian(R) 03 system (copyright 2003, Gaussian, Inc.),
 the Gaussian(R) 98 system (copyright 1998, Gaussian, Inc.),
 the Gaussian(R) 94 system (copyright 1995, Gaussian, Inc.),
 the Gaussian 92(TM) system (copyright 1992, Gaussian, Inc.),
 the Gaussian 90(TM) system (copyright 1990, Gaussian, Inc.),
 the Gaussian 88(TM) system (copyright 1988, Gaussian, Inc.),
 the Gaussian 86(TM) system (copyright 1986, Carnegie Mellon
 University), and the Gaussian 82(TM) system (copyright 1983,
 Carnegie Mellon University). Gaussian is a federally registered
 trademark of Gaussian, Inc.
  
 This software contains proprietary and confidential information,
 including trade secrets, belonging to Gaussian, Inc.
  
 This software is provided under written license and may be
 used, copied, transmitted, or stored only in accord with that
 written license.
  
 The following legend is applicable only to US Government
 contracts under FAR:
  
                    RESTRICTED RIGHTS LEGEND
  
 Use, reproduction and disclosure by the US Government is
 subject to restrictions as set forth in subparagraphs (a)
 and (c) of the Commercial Computer Software - Restricted
 Rights clause in FAR 52.227-19.
  
 Gaussian, Inc.
 340 Quinnipiac St., Bldg. 40, Wallingford CT 06492
  
  
 ---------------------------------------------------------------
 Warning -- This program may not be used in any manner that
 competes with the business of Gaussian, Inc. or will provide
 assistance to any competitor of Gaussian, Inc.  The licensee
 of this program is prohibited from giving any competitor of
 Gaussian, Inc. access to this program.  By using this program,
 the user acknowledges that Gaussian, Inc. is engaged in the
 business of creating and licensing software in the field of
 computational chemistry and represents and warrants to the
 licensee that it is not a competitor of Gaussian, Inc. and that
 it will not use this program in any manner prohibited above.
 ---------------------------------------------------------------
  

 Cite this work as:
 Gaussian 16, Revision C.01,
 M. J. Frisch, G. W. Trucks, H. B. Schlegel, G. E. Scuseria, 
 M. A. Robb, J. R. Cheeseman, G. Scalmani, V. Barone, 
 G. A. Petersson, H. Nakatsuji, X. Li, M. Caricato, A. V. Marenich, 
 J. Bloino, B. G. Janesko, R. Gomperts, B. Mennucci, H. P. Hratchian, 
 J. V. Ortiz, A. F. Izmaylov, J. L. Sonnenberg, D. Williams-Young, 
 F. Ding, F. Lipparini, F. Egidi, J. Goings, B. Peng, A. Petrone, 
 T. Henderson, D. Ranasinghe, V. G. Zakrzewski, J. Gao, N. Rega, 
 G. Zheng, W. Liang, M. Hada, M. Ehara, K. Toyota, R. Fukuda, 
 J. Hasegawa, M. Ishida, T. Nakajima, Y. Honda, O. Kitao, H. Nakai, 
 T. Vreven, K. Throssell, J. A. Montgomery, Jr., J. E. Peralta, 
 F. Ogliaro, M. J. Bearpark, J. J. Heyd, E. N. Brothers, K. N. Kudin, 
 V. N. Staroverov, T. A. Keith, R. Kobayashi, J. Normand, 
 K. Raghavachari, A. P. Rendell, J. C. Burant, S. S. Iyengar, 
 J. Tomasi, M. Cossi, J. M. Millam, M. Klene, C. Adamo, R. Cammi, 
 J. W. Ochterski, R. L. Martin, K. Morokuma, O. Farkas, 
 J. B. Foresman, and D. J. Fox, Gaussian, Inc., Wallingford CT, 2019.
 
 ******************************************
 Gaussian 16:  ES64L-G16RevC.01  3-Jul-2019
                 9-Apr-2025 
 ******************************************
 %nprocs=16
 Will use up to   16 processors via shared memory.
 %mem=30GB
 %chk=Grambow2020_wb97xd3_008692_reverse_mol2.chk
 ----------------------------------------------------------------------
 #t hf aug-cc-pvdz iop(5/13=1,5/36=2,99/5=2) pseudo=read geom=check gue
 ss=(read,tcheck) scf=(maxcycle=1)
 ----------------------------------------------------------------------
 -----
 title
 -----
 Structure from the checkpoint file:  "Grambow2020_wb97xd3_008692_reverse_mol2.chk"
 Charge =  0 Multiplicity = 1
 Z-Matrix found in chk file.
 O,0,-2.89053661,-1.20133224,-0.10514468
 C,0,-1.80114442,-0.78863816,-0.09737451
 C,0,-0.5960945,-0.28951587,-0.03970114
 C,0,-0.19640169,1.18551187,0.01968363
 N,0,1.26599332,1.14019271,0.04792971
 C,0,1.61867987,-0.07297554,-0.01783304
 N,0,0.62240206,-1.02997685,-0.16599172
 H,0,-0.57161453,1.70309064,0.9058208
 H,0,-0.5332048,1.74036323,-0.85939269
 H,0,2.65298732,-0.3990128,0.00072948
 H,0,0.72449099,-1.89395898,0.34282714
 Recover connectivity data from disk.
                    Distance matrix (angstroms):
                    1          2          3          4          5
     1  O    0.000000
     2  C    1.164969   0.000000
     3  C    2.469849   1.305601   0.000000
     4  C    3.601523   2.546796   1.529375   0.000000
     5  N    4.773145   3.626132   2.349280   1.463370   0.000000
     6  C    4.649069   3.494810   2.225442   2.209009   1.265105
     7  N    3.517642   2.436500   1.431421   2.369241   2.273677
     8  H    3.851639   2.954125   2.205695   1.092663   2.104670
     9  H    3.844408   2.929879   2.190036   1.092736   2.102511
    10  H    5.602284   4.472217   3.251178   3.260383   2.072470
    11  H    3.707942   2.791836   2.112939   3.230419   3.096170
                    6          7          8          9         10
     6  C    0.000000
     7  N    1.389378   0.000000
     8  H    2.967311   3.169245   0.000000
     9  H    2.937180   3.080749   1.766025   0.000000
    10  H    1.084637   2.132883   3.954249   3.933009   0.000000
    11  H    2.060493   1.007861   3.864663   4.029321   2.463939
                   11
    11  H    0.000000
 Framework group  C1[X(C4H4N2O)]
 Deg. of freedom    27
                         Standard orientation:                         
 ---------------------------------------------------------------------
 Center     Atomic      Atomic             Coordinates (Angstroms)
 Number     Number       Type             X           Y           Z
 ---------------------------------------------------------------------
      1          8           0       -2.824686   -0.012423    0.009022
      2          6           0       -1.660054   -0.030610   -0.012264
      3          6           0       -0.354840   -0.009448    0.011454
      4          6           0        0.561122    1.215282    0.005144
      5          7           0        1.904363    0.634804    0.019265
      6          6           0        1.783918   -0.624409    0.000102
      7          7           0        0.501894   -1.151004   -0.097279
      8          1           0        0.425478    1.865071    0.873065
      9          1           0        0.429934    1.824476   -0.892488
     10          1           0        2.625700   -1.308082    0.020887
     11          1           0        0.291707   -1.973575    0.445843
 ---------------------------------------------------------------------
 Rotational constants (GHZ):           8.2843916           1.8881134           1.5556295
 ======================================================================================================
                                       Pseudopotential Parameters
 ======================================================================================================
  Center     Atomic      Valence      Angular      Power
  Number     Number     Electrons     Momentum     of R      Exponent        Coefficient   SO-Coeffient
 ======================================================================================================
    1          8            8
                                      G and up 
                                                     0        0.0000010        0.00049668    0.00000000
                                                     2        0.1200000       -0.01803391    0.00000000
                                                     2        0.1400000        0.04014195    0.00000000
                                                     2        0.2000000       -0.02692147    0.00000000
                                                     2        0.2800000       -0.04241843    0.00000000
                                                     2        0.4000000        0.15412145    0.00000000
                                                     2        0.7000000       -0.40587006    0.00000000
                                                     2        1.1000000        1.75666647    0.00000000
                                      S - G
                                                     0        0.0000010       -0.01088195    0.00000000
                                                     2        0.1200000        0.09867335    0.00000000
                                                     2        0.2400000       -0.08484177    0.00000000
                                                     2        0.6000000       -1.39011554    0.00000000
                                                     2        2.5000000        1.36225910    0.00000000
                                      P - G
                                                     0        0.0000010        0.05874028    0.00000000
                                                     2        0.1200000       -0.11700340    0.00000000
                                                     2        0.1600000        0.08847775    0.00000000
                                                     2        0.3000000        0.04709907    0.00000000
                                                     2        1.2000000       -1.80388338    0.00000000
                                      D - G
                                                     0        0.0000010       -0.00541262    0.00000000
                                                     2        0.1200000       -0.26547906    0.00000000
                                                     2        0.1600000        1.04289661    0.00000000
                                                     2        0.2400000       -1.92800913    0.00000000
                                                     2        0.4000000        2.26691633    0.00000000
                                                     2        0.7000000       -1.97391482    0.00000000
                                      F - G
                                                     0        0.0000010       -0.02604870    0.00000000
                                                     2        0.1200000        0.37362552    0.00000000
                                                     2        0.1600000       -1.43526367    0.00000000
                                                     2        0.2200000        1.76778079    0.00000000
                                                     2        0.5000000       -1.90846303    0.00000000
    2          6            6
                                      G and up 
                                                     0        0.0000010       -0.00007288    0.00000000
                                                     2        0.1200000        0.10466671    0.00000000
                                                     2        0.1400000       -0.65716157    0.00000000
                                                     2        0.1600000        1.18890794    0.00000000
                                                     2        0.2000000       -1.25772850    0.00000000
                                                     2        0.2600000        1.01188378    0.00000000
                                                     2        0.4000000       -1.09380874    0.00000000
                                                     2        0.5000000        0.96944888    0.00000000
                                                     2        1.0000000       -0.79256938    0.00000000
                                                     2        3.0000000        1.06443276    0.00000000
                                      S - G
                                                     0        0.0000010       -0.00635295    0.00000000
                                                     2        0.1200000        0.16918955    0.00000000
                                                     2        0.1600000       -0.38862576    0.00000000
                                                     2        0.2800000        0.25638263    0.00000000
                                                     2        0.5000000        0.29628419    0.00000000
                                                     2        0.9000000       -0.28791512    0.00000000
                                      P - G
                                                     0        0.0000010       -0.04756931    0.00000000
                                                     2        0.1200000        0.28430375    0.00000000
                                                     2        0.1600000       -0.69640032    0.00000000
                                                     2        0.2600000        1.13005668    0.00000000
                                                     2        0.4000000       -1.31433324    0.00000000
                                                     2        0.7000000        0.91526469    0.00000000
                                      D - G
                                                     0        0.0000010       -0.11496411    0.00000000
                                                     2        0.1200000        0.16620776    0.00000000
                                                     2        0.1800000       -0.30959819    0.00000000
                                                     2        0.3000000        0.16621458    0.00000000
                                                     2        0.6000000        0.27350556    0.00000000
                                      F - G
                                                     0        0.0000010        0.12037550    0.00000000
                                                     2        0.1200000       -0.48737077    0.00000000
                                                     2        0.1400000        0.58315350    0.00000000
                                                     2        0.3000000        0.00005188    0.00000000
                                                     2        0.5000000       -1.16063549    0.00000000
                                                     2        0.8000000        2.09053308    0.00000000
    3          6            6
                                      G and up 
                                                     0        0.0000010       -0.00007288    0.00000000
                                                     2        0.1200000        0.10466671    0.00000000
                                                     2        0.1400000       -0.65716157    0.00000000
                                                     2        0.1600000        1.18890794    0.00000000
                                                     2        0.2000000       -1.25772850    0.00000000
                                                     2        0.2600000        1.01188378    0.00000000
                                                     2        0.4000000       -1.09380874    0.00000000
                                                     2        0.5000000        0.96944888    0.00000000
                                                     2        1.0000000       -0.79256938    0.00000000
                                                     2        3.0000000        1.06443276    0.00000000
                                      S - G
                                                     0        0.0000010       -0.00635295    0.00000000
                                                     2        0.1200000        0.16918955    0.00000000
                                                     2        0.1600000       -0.38862576    0.00000000
                                                     2        0.2800000        0.25638263    0.00000000
                                                     2        0.5000000        0.29628419    0.00000000
                                                     2        0.9000000       -0.28791512    0.00000000
                                      P - G
                                                     0        0.0000010       -0.04756931    0.00000000
                                                     2        0.1200000        0.28430375    0.00000000
                                                     2        0.1600000       -0.69640032    0.00000000
                                                     2        0.2600000        1.13005668    0.00000000
                                                     2        0.4000000       -1.31433324    0.00000000
                                                     2        0.7000000        0.91526469    0.00000000
                                      D - G
                                                     0        0.0000010       -0.11496411    0.00000000
                                                     2        0.1200000        0.16620776    0.00000000
                                                     2        0.1800000       -0.30959819    0.00000000
                                                     2        0.3000000        0.16621458    0.00000000
                                                     2        0.6000000        0.27350556    0.00000000
                                      F - G
                                                     0        0.0000010        0.12037550    0.00000000
                                                     2        0.1200000       -0.48737077    0.00000000
                                                     2        0.1400000        0.58315350    0.00000000
                                                     2        0.3000000        0.00005188    0.00000000
                                                     2        0.5000000       -1.16063549    0.00000000
                                                     2        0.8000000        2.09053308    0.00000000
    4          6            6
                                      G and up 
                                                     0        0.0000010       -0.00007288    0.00000000
                                                     2        0.1200000        0.10466671    0.00000000
                                                     2        0.1400000       -0.65716157    0.00000000
                                                     2        0.1600000        1.18890794    0.00000000
                                                     2        0.2000000       -1.25772850    0.00000000
                                                     2        0.2600000        1.01188378    0.00000000
                                                     2        0.4000000       -1.09380874    0.00000000
                                                     2        0.5000000        0.96944888    0.00000000
                                                     2        1.0000000       -0.79256938    0.00000000
                                                     2        3.0000000        1.06443276    0.00000000
                                      S - G
                                                     0        0.0000010       -0.00635295    0.00000000
                                                     2        0.1200000        0.16918955    0.00000000
                                                     2        0.1600000       -0.38862576    0.00000000
                                                     2        0.2800000        0.25638263    0.00000000
                                                     2        0.5000000        0.29628419    0.00000000
                                                     2        0.9000000       -0.28791512    0.00000000
                                      P - G
                                                     0        0.0000010       -0.04756931    0.00000000
                                                     2        0.1200000        0.28430375    0.00000000
                                                     2        0.1600000       -0.69640032    0.00000000
                                                     2        0.2600000        1.13005668    0.00000000
                                                     2        0.4000000       -1.31433324    0.00000000
                                                     2        0.7000000        0.91526469    0.00000000
                                      D - G
                                                     0        0.0000010       -0.11496411    0.00000000
                                                     2        0.1200000        0.16620776    0.00000000
                                                     2        0.1800000       -0.30959819    0.00000000
                                                     2        0.3000000        0.16621458    0.00000000
                                                     2        0.6000000        0.27350556    0.00000000
                                      F - G
                                                     0        0.0000010        0.12037550    0.00000000
                                                     2        0.1200000       -0.48737077    0.00000000
                                                     2        0.1400000        0.58315350    0.00000000
                                                     2        0.3000000        0.00005188    0.00000000
                                                     2        0.5000000       -1.16063549    0.00000000
                                                     2        0.8000000        2.09053308    0.00000000
    5          7            7
                                      G and up 
                                                     0        0.0000010       -0.00039818    0.00000000
                                                     2        0.1200000       -0.37616123    0.00000000
                                                     2        0.1400000        2.13837358    0.00000000
                                                     2        0.1600000       -3.36562035    0.00000000
                                                     2        0.2000000        2.53463289    0.00000000
                                                     2        0.3000000       -1.98118833    0.00000000
                                                     2        0.5000000        4.06642919    0.00000000
                                                     2        0.7000000       -6.15327959    0.00000000
                                                     2        1.2000000       10.22492851    0.00000000
                                                     2        2.0000000      -14.94707511    0.00000000
                                      S - G
                                                     0        0.0000010        0.02721443    0.00000000
                                                     2        0.1200000       -0.60186009    0.00000000
                                                     2        0.1600000        1.10088134    0.00000000
                                                     2        0.2600000       -0.59857981    0.00000000
                                                     2        0.6000000        0.21288222    0.00000000
                                                     2        3.0000000        5.09059205    0.00000000
                                      P - G
                                                     0        0.0000010        0.40558062    0.00000000
                                                     2        0.1200000        0.81809854    0.00000000
                                                     2        0.1600000       -2.44952728    0.00000000
                                                     2        0.2800000        4.16638749    0.00000000
                                                     2        0.5000000       -6.02944147    0.00000000
                                                     2        1.1000000        5.78262914    0.00000000
                                      D - G
                                                     0        0.0000010       -0.62770267    0.00000000
                                                     2        0.1600000        0.91438653    0.00000000
                                                     2        0.2600000       -2.00568466    0.00000000
                                                     2        0.5000000        3.30798839    0.00000000
                                                     2        1.1000000       -3.91526108    0.00000000
                                      F - G
                                                     0        0.0000010        0.29726344    0.00000000
                                                     2        0.1200000       -0.41591527    0.00000000
                                                     2        0.1600000        0.51444439    0.00000000
                                                     2        0.4000000       -0.69401726    0.00000000
                                                     2        0.7000000        0.51478123    0.00000000
    6          6            6
                                      G and up 
                                                     0        0.0000010       -0.00007288    0.00000000
                                                     2        0.1200000        0.10466671    0.00000000
                                                     2        0.1400000       -0.65716157    0.00000000
                                                     2        0.1600000        1.18890794    0.00000000
                                                     2        0.2000000       -1.25772850    0.00000000
                                                     2        0.2600000        1.01188378    0.00000000
                                                     2        0.4000000       -1.09380874    0.00000000
                                                     2        0.5000000        0.96944888    0.00000000
                                                     2        1.0000000       -0.79256938    0.00000000
                                                     2        3.0000000        1.06443276    0.00000000
                                      S - G
                                                     0        0.0000010       -0.00635295    0.00000000
                                                     2        0.1200000        0.16918955    0.00000000
                                                     2        0.1600000       -0.38862576    0.00000000
                                                     2        0.2800000        0.25638263    0.00000000
                                                     2        0.5000000        0.29628419    0.00000000
                                                     2        0.9000000       -0.28791512    0.00000000
                                      P - G
                                                     0        0.0000010       -0.04756931    0.00000000
                                                     2        0.1200000        0.28430375    0.00000000
                                                     2        0.1600000       -0.69640032    0.00000000
                                                     2        0.2600000        1.13005668    0.00000000
                                                     2        0.4000000       -1.31433324    0.00000000
                                                     2        0.7000000        0.91526469    0.00000000
                                      D - G
                                                     0        0.0000010       -0.11496411    0.00000000
                                                     2        0.1200000        0.16620776    0.00000000
                                                     2        0.1800000       -0.30959819    0.00000000
                                                     2        0.3000000        0.16621458    0.00000000
                                                     2        0.6000000        0.27350556    0.00000000
                                      F - G
                                                     0        0.0000010        0.12037550    0.00000000
                                                     2        0.1200000       -0.48737077    0.00000000
                                                     2        0.1400000        0.58315350    0.00000000
                                                     2        0.3000000        0.00005188    0.00000000
                                                     2        0.5000000       -1.16063549    0.00000000
                                                     2        0.8000000        2.09053308    0.00000000
    7          7            7
                                      G and up 
                                                     0        0.0000010       -0.00039818    0.00000000
                                                     2        0.1200000       -0.37616123    0.00000000
                                                     2        0.1400000        2.13837358    0.00000000
                                                     2        0.1600000       -3.36562035    0.00000000
                                                     2        0.2000000        2.53463289    0.00000000
                                                     2        0.3000000       -1.98118833    0.00000000
                                                     2        0.5000000        4.06642919    0.00000000
                                                     2        0.7000000       -6.15327959    0.00000000
                                                     2        1.2000000       10.22492851    0.00000000
                                                     2        2.0000000      -14.94707511    0.00000000
                                      S - G
                                                     0        0.0000010        0.02721443    0.00000000
                                                     2        0.1200000       -0.60186009    0.00000000
                                                     2        0.1600000        1.10088134    0.00000000
                                                     2        0.2600000       -0.59857981    0.00000000
                                                     2        0.6000000        0.21288222    0.00000000
                                                     2        3.0000000        5.09059205    0.00000000
                                      P - G
                                                     0        0.0000010        0.40558062    0.00000000
                                                     2        0.1200000        0.81809854    0.00000000
                                                     2        0.1600000       -2.44952728    0.00000000
                                                     2        0.2800000        4.16638749    0.00000000
                                                     2        0.5000000       -6.02944147    0.00000000
                                                     2        1.1000000        5.78262914    0.00000000
                                      D - G
                                                     0        0.0000010       -0.62770267    0.00000000
                                                     2        0.1600000        0.91438653    0.00000000
                                                     2        0.2600000       -2.00568466    0.00000000
                                                     2        0.5000000        3.30798839    0.00000000
                                                     2        1.1000000       -3.91526108    0.00000000
                                      F - G
                                                     0        0.0000010        0.29726344    0.00000000
                                                     2        0.1200000       -0.41591527    0.00000000
                                                     2        0.1600000        0.51444439    0.00000000
                                                     2        0.4000000       -0.69401726    0.00000000
                                                     2        0.7000000        0.51478123    0.00000000
    8          1            1
                                      F and up 
                                                     0        0.0000010       -0.00007675    0.00000000
                                                     2        0.1200000        0.05352699    0.00000000
                                                     2        0.1400000       -0.25123645    0.00000000
                                                     2        0.1600000        0.32188106    0.00000000
                                                     2        0.2200000       -0.25206857    0.00000000
                                                     2        0.3000000        0.19290477    0.00000000
                                                     2        0.5000000       -0.10129770    0.00000000
                                                     2        0.9000000        0.00314995    0.00000000
                                                     2        1.5000000        0.18401192    0.00000000
                                      S - F
                                                     0        0.0000010        0.08065976    0.00000000
                                                     2        0.1200000       -0.09231673    0.00000000
                                                     2        0.1600000       -0.03278082    0.00000000
                                                     2        0.2800000        0.38423402    0.00000000
                                                     2        0.6000000       -1.09357590    0.00000000
                                                     2        1.1000000        1.53099489    0.00000000
                                                     2        3.0000000       -2.63300202    0.00000000
                                      P - F
                                                     0        0.0000010       -0.11638665    0.00000000
                                                     2        0.1200000        0.35468655    0.00000000
                                                     2        0.1600000       -0.59160923    0.00000000
                                                     2        0.3000000        0.49390547    0.00000000
                                                     2        0.6000000       -0.37949835    0.00000000
                                                     2        1.6000000        0.89304688    0.00000000
                                      D - F
                                                     0        0.0000010        0.05443663    0.00000000
                                                     2        0.1200000       -0.29679479    0.00000000
                                                     2        0.1400000        0.36849872    0.00000000
                                                     2        0.2400000        0.02793449    0.00000000
                                                     2        0.4000000       -0.46312857    0.00000000
                                                     2        0.7000000        0.97587598    0.00000000
                                                     2        1.5000000       -2.43431102    0.00000000
    9          1            1
                                      F and up 
                                                     0        0.0000010       -0.00007675    0.00000000
                                                     2        0.1200000        0.05352699    0.00000000
                                                     2        0.1400000       -0.25123645    0.00000000
                                                     2        0.1600000        0.32188106    0.00000000
                                                     2        0.2200000       -0.25206857    0.00000000
                                                     2        0.3000000        0.19290477    0.00000000
                                                     2        0.5000000       -0.10129770    0.00000000
                                                     2        0.9000000        0.00314995    0.00000000
                                                     2        1.5000000        0.18401192    0.00000000
                                      S - F
                                                     0        0.0000010        0.08065976    0.00000000
                                                     2        0.1200000       -0.09231673    0.00000000
                                                     2        0.1600000       -0.03278082    0.00000000
                                                     2        0.2800000        0.38423402    0.00000000
                                                     2        0.6000000       -1.09357590    0.00000000
                                                     2        1.1000000        1.53099489    0.00000000
                                                     2        3.0000000       -2.63300202    0.00000000
                                      P - F
                                                     0        0.0000010       -0.11638665    0.00000000
                                                     2        0.1200000        0.35468655    0.00000000
                                                     2        0.1600000       -0.59160923    0.00000000
                                                     2        0.3000000        0.49390547    0.00000000
                                                     2        0.6000000       -0.37949835    0.00000000
                                                     2        1.6000000        0.89304688    0.00000000
                                      D - F
                                                     0        0.0000010        0.05443663    0.00000000
                                                     2        0.1200000       -0.29679479    0.00000000
                                                     2        0.1400000        0.36849872    0.00000000
                                                     2        0.2400000        0.02793449    0.00000000
                                                     2        0.4000000       -0.46312857    0.00000000
                                                     2        0.7000000        0.97587598    0.00000000
                                                     2        1.5000000       -2.43431102    0.00000000
   10          1            1
                                      F and up 
                                                     0        0.0000010       -0.00007675    0.00000000
                                                     2        0.1200000        0.05352699    0.00000000
                                                     2        0.1400000       -0.25123645    0.00000000
                                                     2        0.1600000        0.32188106    0.00000000
                                                     2        0.2200000       -0.25206857    0.00000000
                                                     2        0.3000000        0.19290477    0.00000000
                                                     2        0.5000000       -0.10129770    0.00000000
                                                     2        0.9000000        0.00314995    0.00000000
                                                     2        1.5000000        0.18401192    0.00000000
                                      S - F
                                                     0        0.0000010        0.08065976    0.00000000
                                                     2        0.1200000       -0.09231673    0.00000000
                                                     2        0.1600000       -0.03278082    0.00000000
                                                     2        0.2800000        0.38423402    0.00000000
                                                     2        0.6000000       -1.09357590    0.00000000
                                                     2        1.1000000        1.53099489    0.00000000
                                                     2        3.0000000       -2.63300202    0.00000000
                                      P - F
                                                     0        0.0000010       -0.11638665    0.00000000
                                                     2        0.1200000        0.35468655    0.00000000
                                                     2        0.1600000       -0.59160923    0.00000000
                                                     2        0.3000000        0.49390547    0.00000000
                                                     2        0.6000000       -0.37949835    0.00000000
                                                     2        1.6000000        0.89304688    0.00000000
                                      D - F
                                                     0        0.0000010        0.05443663    0.00000000
                                                     2        0.1200000       -0.29679479    0.00000000
                                                     2        0.1400000        0.36849872    0.00000000
                                                     2        0.2400000        0.02793449    0.00000000
                                                     2        0.4000000       -0.46312857    0.00000000
                                                     2        0.7000000        0.97587598    0.00000000
                                                     2        1.5000000       -2.43431102    0.00000000
   11          1            1
                                      F and up 
                                                     0        0.0000010       -0.00007675    0.00000000
                                                     2        0.1200000        0.05352699    0.00000000
                                                     2        0.1400000       -0.25123645    0.00000000
                                                     2        0.1600000        0.32188106    0.00000000
                                                     2        0.2200000       -0.25206857    0.00000000
                                                     2        0.3000000        0.19290477    0.00000000
                                                     2        0.5000000       -0.10129770    0.00000000
                                                     2        0.9000000        0.00314995    0.00000000
                                                     2        1.5000000        0.18401192    0.00000000
                                      S - F
                                                     0        0.0000010        0.08065976    0.00000000
                                                     2        0.1200000       -0.09231673    0.00000000
                                                     2        0.1600000       -0.03278082    0.00000000
                                                     2        0.2800000        0.38423402    0.00000000
                                                     2        0.6000000       -1.09357590    0.00000000
                                                     2        1.1000000        1.53099489    0.00000000
                                                     2        3.0000000       -2.63300202    0.00000000
                                      P - F
                                                     0        0.0000010       -0.11638665    0.00000000
                                                     2        0.1200000        0.35468655    0.00000000
                                                     2        0.1600000       -0.59160923    0.00000000
                                                     2        0.3000000        0.49390547    0.00000000
                                                     2        0.6000000       -0.37949835    0.00000000
                                                     2        1.6000000        0.89304688    0.00000000
                                      D - F
                                                     0        0.0000010        0.05443663    0.00000000
                                                     2        0.1200000       -0.29679479    0.00000000
                                                     2        0.1400000        0.36849872    0.00000000
                                                     2        0.2400000        0.02793449    0.00000000
                                                     2        0.4000000       -0.46312857    0.00000000
                                                     2        0.7000000        0.97587598    0.00000000
                                                     2        1.5000000       -2.43431102    0.00000000
 ======================================================================================================
   197 basis functions,   345 primitive gaussians,   211 cartesian basis functions
    25 alpha electrons       25 beta electrons
       nuclear repulsion energy       269.3752859823 Hartrees.
 NAtoms=   11 NActive=   11 NUniq=   11 SFac= 1.00D+00 NAtFMM=   60 NAOKFM=F Big=F
   1 Symmetry operations used in ECPInt.
 ECPInt:  NShTT=    3486 NPrTT=   18282 LenC2=    3473 LenP2D=   13987.
 LDataN:  DoStor=T MaxTD1= 6 Len=  172
 Initial guess from the checkpoint file:  "Grambow2020_wb97xd3_008692_reverse_mol2.chk"
 B after Tr=     0.579720    0.077465    0.061562
         Rot=    0.982010    0.019380   -0.009267    0.187605 Ang=  21.77 deg.
 >>>>>>>>>> Convergence criterion not met.
 SCF Done:  E(RHF) =  -337.876331767     A.U. after    2 cycles
            NFock=  1  Conv=0.26D-01     -V/T= 2.0009

 **********************************************************************

            Population analysis using the SCF Density.

 **********************************************************************

 Orbital symmetries:
       Occupied  (A) (A) (A) (A) (A) (A) (A) (A) (A) (A) (A) (A)
                 (A) (A) (A) (A) (A) (A) (A) (A) (A) (A) (A) (A)
                 (A)
       Virtual   (A) (A) (A) (A) (A) (A) (A) (A) (A) (A) (A) (A)
                 (A) (A) (A) (A) (A) (A) (A) (A) (A) (A) (A) (A)
                 (A) (A) (A) (A) (A) (A) (A) (A) (A) (A) (A) (A)
                 (A) (A) (A) (A) (A) (A) (A) (A) (A) (A) (A) (A)
                 (A) (A) (A) (A) (A) (A) (A) (A) (A) (A) (A) (A)
                 (A) (A) (A) (A) (A) (A) (A) (A) (A) (A) (A) (A)
                 (A) (A) (A) (A) (A) (A) (A) (A) (A) (A) (A) (A)
                 (A) (A) (A) (A) (A) (A) (A) (A) (A) (A) (A) (A)
                 (A) (A) (A) (A) (A) (A) (A) (A) (A) (A) (A) (A)
                 (A) (A) (A) (A) (A) (A) (A) (A) (A) (A) (A) (A)
                 (A) (A) (A) (A) (A) (A) (A) (A) (A) (A) (A) (A)
                 (A) (A) (A) (A) (A) (A) (A) (A) (A) (A) (A) (A)
                 (A) (A) (A) (A) (A) (A) (A) (A) (A) (A) (A) (A)
                 (A) (A) (A) (A) (A) (A) (A) (A) (A) (A) (A) (A)
                 (A) (A) (A) (A)
 The electronic state is 1-A.
 Alpha  occ. eigenvalues --  -20.61308 -15.54779 -15.49678 -11.37930 -11.32783
 Alpha  occ. eigenvalues --  -11.28917 -11.28774  -1.54920  -1.32985  -1.18772
 Alpha  occ. eigenvalues --   -1.07560  -0.94825  -0.83901  -0.82078  -0.74272
 Alpha  occ. eigenvalues --   -0.68495  -0.68062  -0.64903  -0.62747  -0.59972
 Alpha  occ. eigenvalues --   -0.58426  -0.55298  -0.48141  -0.45378  -0.32839
 Alpha virt. eigenvalues --    0.02670   0.04592   0.04897   0.05498   0.06890
 Alpha virt. eigenvalues --    0.08193   0.09124   0.09493   0.10548   0.11166
 Alpha virt. eigenvalues --    0.12631   0.13706   0.13879   0.14676   0.15730
 Alpha virt. eigenvalues --    0.16069   0.16979   0.17340   0.18024   0.19249
 Alpha virt. eigenvalues --    0.19888   0.21288   0.22449   0.22843   0.23690
 Alpha virt. eigenvalues --    0.25925   0.26161   0.27858   0.28973   0.30885
 Alpha virt. eigenvalues --    0.31962   0.32480   0.33527   0.33956   0.35912
 Alpha virt. eigenvalues --    0.37259   0.37857   0.39194   0.40251   0.41300
 Alpha virt. eigenvalues --    0.41621   0.42788   0.43129   0.45865   0.46794
 Alpha virt. eigenvalues --    0.48600   0.49701   0.51512   0.52829   0.53291
 Alpha virt. eigenvalues --    0.54056   0.54598   0.56855   0.58441   0.58756
 Alpha virt. eigenvalues --    0.59945   0.61332   0.63534   0.65008   0.65339
 Alpha virt. eigenvalues --    0.66675   0.68985   0.69201   0.69915   0.70618
 Alpha virt. eigenvalues --    0.72644   0.74025   0.75814   0.76968   0.77046
 Alpha virt. eigenvalues --    0.78783   0.79610   0.81798   0.83733   0.84893
 Alpha virt. eigenvalues --    0.88199   0.89932   0.91184   0.92492   0.95485
 Alpha virt. eigenvalues --    0.96574   0.97585   0.99969   1.02004   1.04559
 Alpha virt. eigenvalues --    1.07059   1.08666   1.11560   1.12080   1.14354
 Alpha virt. eigenvalues --    1.18173   1.19081   1.20440   1.21912   1.24365
 Alpha virt. eigenvalues --    1.25737   1.26234   1.27515   1.31096   1.36925
 Alpha virt. eigenvalues --    1.37629   1.41819   1.44007   1.49224   1.49764
 Alpha virt. eigenvalues --    1.53473   1.54299   1.55609   1.60114   1.65457
 Alpha virt. eigenvalues --    1.66517   1.68245   1.70273   1.72172   1.73929
 Alpha virt. eigenvalues --    1.75008   1.77011   1.78748   1.82040   1.83772
 Alpha virt. eigenvalues --    1.86195   1.89741   1.94740   1.96254   1.98185
 Alpha virt. eigenvalues --    2.00859   2.03051   2.07664   2.08605   2.10361
 Alpha virt. eigenvalues --    2.12560   2.13651   2.16151   2.17763   2.21224
 Alpha virt. eigenvalues --    2.22983   2.24865   2.27555   2.32899   2.33982
 Alpha virt. eigenvalues --    2.35420   2.39035   2.43286   2.44836   2.47135
 Alpha virt. eigenvalues --    2.47289   2.50407   2.52446   2.55948   2.60264
 Alpha virt. eigenvalues --    2.62874   2.65424   2.70344   2.73224   2.80935
 Alpha virt. eigenvalues --    2.88986   2.95339   2.97423   3.00509   3.03323
 Alpha virt. eigenvalues --    3.10634   3.12147   3.26351   3.33101   3.50960
 Alpha virt. eigenvalues --    3.61578   3.73487   3.77614   3.83465   3.94677
 Alpha virt. eigenvalues --    4.02603   4.34726
          Condensed to atoms (all electrons):
 Mulliken charges:
               1
     1  O   -0.966138
     2  C    0.576691
     3  C    0.088160
     4  C   -0.626290
     5  N    0.588303
     6  C   -0.676842
     7  N    0.674946
     8  H    0.132840
     9  H    0.142836
    10  H   -0.053850
    11  H    0.119345
 Sum of Mulliken charges =  -0.00000
 Mulliken charges with hydrogens summed into heavy atoms:
               1
     1  O   -0.966138
     2  C    0.576691
     3  C    0.088160
     4  C   -0.350614
     5  N    0.588303
     6  C   -0.730692
     7  N    0.794291
 Electronic spatial extent (au):  <R**2>=            713.6449
 Charge=             -0.0000 electrons
 Dipole moment (field-independent basis, Debye):
    X=              0.3529    Y=             -1.9981    Z=              0.8172  Tot=              2.1874

 Test job not archived.
 1\1\GINC-SE334\SP\RHF\Aug-CC-pVDZ\C4H4N2O1\OHZDE\09-Apr-2025\0\\#t hf 
 aug-cc-pvdz iop(5/13=1,5/36=2,99/5=2) pseudo=read geom=check guess=(re
 ad,tcheck) scf=(maxcycle=1)\\title\\0,1\O,0,-2.89053661,-1.20133224,-0
 .10514468\C,0,-1.80114442,-0.78863816,-0.09737451\C,0,-0.5960945,-0.28
 951587,-0.03970114\C,0,-0.19640169,1.18551187,0.01968363\N,0,1.2659933
 2,1.14019271,0.04792971\C,0,1.61867987,-0.07297554,-0.01783304\N,0,0.6
 2240206,-1.02997685,-0.16599172\H,0,-0.57161453,1.70309064,0.9058208\H
 ,0,-0.5332048,1.74036323,-0.85939269\H,0,2.65298732,-0.3990128,0.00072
 948\H,0,0.72449099,-1.89395898,0.34282714\\Version=ES64L-G16RevC.01\St
 ate=1-A\HF=-337.8763318\RMSD=2.595e-02\Dipole=0.4154507,-0.6924431,0.2
 975613\Quadrupole=-1.615058,1.236588,0.37847,-7.2090668,0.4842129,-1.4
 600849\PG=C01 [X(C4H4N2O1)]\\@


 SEE YOU NOW,
 YOUR BAIT OF FALSEHOOD TAKES THIS CARP OF TRUTH.
 AND THUS DO WE OF WISDOM AND OF REACH...
 BY INDIRECTIONS FIND DIRECTIONS OUT.    -- HAMLET, II, 1
 Job cpu time:       0 days  0 hours  0 minutes 42.3 seconds.
 Elapsed time:       0 days  0 hours  0 minutes  3.6 seconds.
 File lengths (MBytes):  RWF=     10 Int=      0 D2E=      0 Chk=      6 Scr=      1
 Normal termination of Gaussian 16 at Wed Apr  9 03:58:27 2025.
