 Entering Gaussian System, Link 0=g16
 Input=Grambow2020_wb97xd3_007387_reverse_mol1.gjf
 Output=Grambow2020_wb97xd3_007387_reverse_mol1.log
 Initial command:
 /arc/software/Gaussian/g16.c01/l1.exe "/tmp/slurm/4865894/Gau-2304040.inp" -scrdir="/tmp/slurm/4865894/"
 Entering Link 1 = /arc/software/Gaussian/g16.c01/l1.exe PID=   2304041.
  
 Copyright (c) 1988-2019, Gaussian, Inc.  All Rights Reserved.
  
 This is part of the Gaussian(R) 16 program.  It is based on
 the Gaussian(R) 09 system (copyright 2009, Gaussian, Inc.),
 the Gaussian(R) 03 system (copyright 2003, Gaussian, Inc.),
 the Gaussian(R) 98 system (copyright 1998, Gaussian, Inc.),
 the Gaussian(R) 94 system (copyright 1995, Gaussian, Inc.),
 the Gaussian 92(TM) system (copyright 1992, Gaussian, Inc.),
 the Gaussian 90(TM) system (copyright 1990, Gaussian, Inc.),
 the Gaussian 88(TM) system (copyright 1988, Gaussian, Inc.),
 the Gaussian 86(TM) system (copyright 1986, Carnegie Mellon
 University), and the Gaussian 82(TM) system (copyright 1983,
 Carnegie Mellon University). Gaussian is a federally registered
 trademark of Gaussian, Inc.
  
 This software contains proprietary and confidential information,
 including trade secrets, belonging to Gaussian, Inc.
  
 This software is provided under written license and may be
 used, copied, transmitted, or stored only in accord with that
 written license.
  
 The following legend is applicable only to US Government
 contracts under FAR:
  
                    RESTRICTED RIGHTS LEGEND
  
 Use, reproduction and disclosure by the US Government is
 subject to restrictions as set forth in subparagraphs (a)
 and (c) of the Commercial Computer Software - Restricted
 Rights clause in FAR 52.227-19.
  
 Gaussian, Inc.
 340 Quinnipiac St., Bldg. 40, Wallingford CT 06492
  
  
 ---------------------------------------------------------------
 Warning -- This program may not be used in any manner that
 competes with the business of Gaussian, Inc. or will provide
 assistance to any competitor of Gaussian, Inc.  The licensee
 of this program is prohibited from giving any competitor of
 Gaussian, Inc. access to this program.  By using this program,
 the user acknowledges that Gaussian, Inc. is engaged in the
 business of creating and licensing software in the field of
 computational chemistry and represents and warrants to the
 licensee that it is not a competitor of Gaussian, Inc. and that
 it will not use this program in any manner prohibited above.
 ---------------------------------------------------------------
  

 Cite this work as:
 Gaussian 16, Revision C.01,
 M. J. Frisch, G. W. Trucks, H. B. Schlegel, G. E. Scuseria, 
 M. A. Robb, J. R. Cheeseman, G. Scalmani, V. Barone, 
 G. A. Petersson, H. Nakatsuji, X. Li, M. Caricato, A. V. Marenich, 
 J. Bloino, B. G. Janesko, R. Gomperts, B. Mennucci, H. P. Hratchian, 
 J. V. Ortiz, A. F. Izmaylov, J. L. Sonnenberg, D. Williams-Young, 
 F. Ding, F. Lipparini, F. Egidi, J. Goings, B. Peng, A. Petrone, 
 T. Henderson, D. Ranasinghe, V. G. Zakrzewski, J. Gao, N. Rega, 
 G. Zheng, W. Liang, M. Hada, M. Ehara, K. Toyota, R. Fukuda, 
 J. Hasegawa, M. Ishida, T. Nakajima, Y. Honda, O. Kitao, H. Nakai, 
 T. Vreven, K. Throssell, J. A. Montgomery, Jr., J. E. Peralta, 
 F. Ogliaro, M. J. Bearpark, J. J. Heyd, E. N. Brothers, K. N. Kudin, 
 V. N. Staroverov, T. A. Keith, R. Kobayashi, J. Normand, 
 K. Raghavachari, A. P. Rendell, J. C. Burant, S. S. Iyengar, 
 J. Tomasi, M. Cossi, J. M. Millam, M. Klene, C. Adamo, R. Cammi, 
 J. W. Ochterski, R. L. Martin, K. Morokuma, O. Farkas, 
 J. B. Foresman, and D. J. Fox, Gaussian, Inc., Wallingford CT, 2019.
 
 ******************************************
 Gaussian 16:  ES64L-G16RevC.01  3-Jul-2019
                 9-Apr-2025 
 ******************************************
 %nprocs=16
 Will use up to   16 processors via shared memory.
 %mem=30GB
 %chk=Grambow2020_wb97xd3_007387_reverse_mol1.chk
 ----------------------------------------------------------------------
 #t hf aug-cc-pvdz symm=none int=(grid=ultrafine) guess=(read,tcheck) s
 table=(opt,rrhf)
 ----------------------------------------------------------------------
 -----
 title
 -----
 Symbolic Z-matrix:
 Charge =  0 Multiplicity = 1
 C                    -1.33558  -0.44382   0.41005 
 C                    -0.762     0.52024  -0.67741 
 C                     0.44423   1.37519   0.07242 
 O                     0.82216   0.83922   1.20228 
 C                     1.80744  -1.20931   0.50809 
 N                     1.29066  -1.67299  -0.41053 
 C                    -0.72422  -0.86205  -0.78327 
 H                    -0.63475  -0.18295   1.24908 
 H                    -2.3519   -0.7352    0.64889 
 H                    -1.25666   1.09738  -1.45093 
 H                    -0.01358   2.37554   0.15663 
 H                     1.20635   1.39058  -0.73346 
 H                     2.37435  -0.8778    1.3488 
 H                    -0.88666  -1.60855  -1.53992 
 
                    Distance matrix (angstroms):
                    1          2          3          4          5
     1  C    0.000000
     2  C    1.562366   0.000000
     3  C    2.567200   1.657762   0.000000
     4  O    2.632430   2.478821   1.306394   0.000000
     5  C    3.236381   3.316442   2.954288   2.376797   0.000000
     6  N    3.013526   3.015778   3.200174   3.021894   1.151481
     7  C    1.404526   1.386859   2.665095   3.037764   2.863119
     8  H    1.123919   2.054768   2.230817   1.780349   2.750779
     9  H    1.083904   2.421361   3.550266   3.586046   4.188637
    10  H    2.417593   1.084482   2.300175   3.380482   4.306655
    11  H    3.124209   2.167458   1.103346   2.037673   4.036186
    12  H    3.336771   2.152911   1.109285   2.049063   2.943157
    13  H    3.851386   3.987072   3.229623   2.319245   1.066815
    14  H    2.315277   2.300267   3.643300   4.053556   3.407620
                    6          7          8          9         10
     6  N    0.000000
     7  C    2.203694   0.000000
     8  H    2.946477   2.144676   0.000000
     9  H    3.907688   2.171754   1.901001   0.000000
    10  H    3.904641   2.137438   3.052227   2.994514   0.000000
    11  H    4.291073   3.445345   2.850472   3.922593   2.400664
    12  H    3.081696   2.967137   3.129878   4.369319   2.582084
    13  H    2.214037   3.761258   3.089893   4.779918   4.992398
    14  H    2.453647   1.075254   3.142345   2.774985   2.732559
                   11         12         13         14
    11  H    0.000000
    12  H    1.802954   0.000000
    13  H    4.208048   3.293258   0.000000
    14  H    4.417411   3.745109   4.417339   0.000000
 Symmetry turned off by external request.
 Rotational constants (GHZ):           3.4624085           2.8937565           1.9819621
   224 basis functions,   378 primitive gaussians,   238 cartesian basis functions
    26 alpha electrons       26 beta electrons
       nuclear repulsion energy       285.4130556927 Hartrees.
 NAtoms=   14 NActive=   14 NUniq=   14 SFac= 1.00D+00 NAtFMM=   60 NAOKFM=F Big=F
 ExpMin= 2.97D-02 ExpMax= 1.17D+04 ExpMxC= 4.01D+02 IAcc=3 IRadAn=         5 AccDes= 0.00D+00
 Harris functional with IExCor=  205 and IRadAn=       5 diagonalized for initial guess.
 HarFok:  IExCor=  205 AccDes= 0.00D+00 IRadAn=         5 IDoV= 1 UseB2=F ITyADJ=14
 ICtDFT=  3500011 ScaDFX=  1.000000  1.000000  1.000000  1.000000
 FoFCou: FMM=F IPFlag=           0 FMFlag=      100000 FMFlg1=           0
         NFxFlg=           0 DoJE=T BraDBF=F KetDBF=T FulRan=T
         wScrn=  0.000000 ICntrl=       500 IOpCl=  0 I1Cent=   200000004 NGrid=           0
         NMat0=    1 NMatS0=      1 NMatT0=    0 NMatD0=    1 NMtDS0=    0 NMtDT0=    0
 Symmetry not used in FoFCou.
 SCF Done:  E(RHF) =  -322.536263115     A.U. after   16 cycles
            NFock= 16  Conv=0.62D-08     -V/T= 2.0010

 **********************************************************************

            Population analysis using the SCF Density.

 **********************************************************************

 Alpha  occ. eigenvalues --  -20.45937 -15.59339 -11.34884 -11.31389 -11.27361
 Alpha  occ. eigenvalues --  -11.27055 -11.26637  -1.28251  -1.24359  -1.20570
 Alpha  occ. eigenvalues --   -0.90357  -0.84623  -0.80462  -0.77363  -0.70822
 Alpha  occ. eigenvalues --   -0.65866  -0.60848  -0.58203  -0.54859  -0.51934
 Alpha  occ. eigenvalues --   -0.49864  -0.49379  -0.47886  -0.44170  -0.35287
 Alpha  occ. eigenvalues --   -0.34448
 Alpha virt. eigenvalues --    0.02700   0.03724   0.04249   0.04752   0.05755
 Alpha virt. eigenvalues --    0.06649   0.07032   0.08314   0.09913   0.10288
 Alpha virt. eigenvalues --    0.11425   0.12668   0.13018   0.13328   0.14263
 Alpha virt. eigenvalues --    0.14731   0.15632   0.15880   0.16240   0.17007
 Alpha virt. eigenvalues --    0.17413   0.18161   0.19388   0.19631   0.20450
 Alpha virt. eigenvalues --    0.21825   0.22886   0.24347   0.25455   0.26499
 Alpha virt. eigenvalues --    0.27111   0.28290   0.28699   0.29721   0.29755
 Alpha virt. eigenvalues --    0.31844   0.34484   0.34668   0.35143   0.36103
 Alpha virt. eigenvalues --    0.37441   0.38277   0.39900   0.40155   0.41040
 Alpha virt. eigenvalues --    0.41612   0.42434   0.43439   0.44811   0.45382
 Alpha virt. eigenvalues --    0.46629   0.47827   0.48488   0.49843   0.50104
 Alpha virt. eigenvalues --    0.51907   0.52384   0.54111   0.55419   0.56897
 Alpha virt. eigenvalues --    0.57633   0.58249   0.59012   0.60635   0.61360
 Alpha virt. eigenvalues --    0.62066   0.62602   0.63430   0.64156   0.65107
 Alpha virt. eigenvalues --    0.65273   0.67035   0.67986   0.69008   0.70136
 Alpha virt. eigenvalues --    0.71131   0.72625   0.73929   0.74833   0.76454
 Alpha virt. eigenvalues --    0.77937   0.78722   0.80162   0.80503   0.81740
 Alpha virt. eigenvalues --    0.82488   0.84019   0.85319   0.85883   0.86803
 Alpha virt. eigenvalues --    0.88209   0.88815   0.90322   0.91183   0.93623
 Alpha virt. eigenvalues --    0.95555   0.96030   0.97054   0.98363   1.02401
 Alpha virt. eigenvalues --    1.03849   1.06254   1.08286   1.11839   1.12954
 Alpha virt. eigenvalues --    1.15749   1.18699   1.19185   1.22181   1.24372
 Alpha virt. eigenvalues --    1.27623   1.28529   1.32454   1.36504   1.39052
 Alpha virt. eigenvalues --    1.39718   1.42012   1.42688   1.47172   1.48820
 Alpha virt. eigenvalues --    1.52328   1.54562   1.55743   1.58964   1.61133
 Alpha virt. eigenvalues --    1.62354   1.65161   1.66984   1.70276   1.71805
 Alpha virt. eigenvalues --    1.73192   1.74482   1.74865   1.76743   1.79049
 Alpha virt. eigenvalues --    1.80209   1.83494   1.83834   1.85638   1.87527
 Alpha virt. eigenvalues --    1.90394   1.93405   1.95757   1.96726   1.97891
 Alpha virt. eigenvalues --    2.00919   2.03422   2.05680   2.06988   2.09627
 Alpha virt. eigenvalues --    2.12400   2.13241   2.15977   2.17489   2.20843
 Alpha virt. eigenvalues --    2.25358   2.27041   2.30570   2.31358   2.32956
 Alpha virt. eigenvalues --    2.33330   2.36465   2.37582   2.40953   2.45851
 Alpha virt. eigenvalues --    2.48047   2.51316   2.57508   2.59650   2.63180
 Alpha virt. eigenvalues --    2.64753   2.67601   2.68366   2.71683   2.72923
 Alpha virt. eigenvalues --    2.75271   2.80239   2.81505   2.84302   2.85756
 Alpha virt. eigenvalues --    2.92269   2.99444   3.01727   3.07566   3.08185
 Alpha virt. eigenvalues --    3.10676   3.15482   3.25751   3.51834   3.54916
 Alpha virt. eigenvalues --    3.59240   3.69746   3.82803   3.93384   3.96904
 Alpha virt. eigenvalues --    4.06692   4.12757   4.16346
          Condensed to atoms (all electrons):
 Mulliken charges:
               1
     1  C    0.547613
     2  C    0.090523
     3  C    0.847232
     4  O   -1.022514
     5  C    0.424245
     6  N   -0.494816
     7  C    0.662182
     8  H    0.170201
     9  H   -0.334387
    10  H   -0.369846
    11  H   -0.169176
    12  H   -0.042913
    13  H    0.064627
    14  H   -0.372972
 Sum of Mulliken charges =  -0.00000
 Mulliken charges with hydrogens summed into heavy atoms:
               1
     1  C    0.383427
     2  C   -0.279323
     3  C    0.635143
     4  O   -1.022514
     5  C    0.488873
     6  N   -0.494816
     7  C    0.289211
 Electronic spatial extent (au):  <R**2>=            686.9631
 Charge=             -0.0000 electrons
 Dipole moment (field-independent basis, Debye):
    X=             -2.2748    Y=             -1.8045    Z=             -2.1028  Tot=              3.5850
 NROrb=    224 NOA=    26 NOB=    26 NVA=   198 NVB=   198

 **** Warning!!: The largest alpha MO coefficient is  0.40040062D+02

    12 initial guesses have been made.
 Iteration     1 Dimension    12 NMult     0 NNew     12
 Iteration     2 Dimension    24 NMult    12 NNew     12
 Iteration     3 Dimension    27 NMult    24 NNew      3
 Iteration     4 Dimension    30 NMult    27 NNew      3
 Iteration     5 Dimension    33 NMult    30 NNew      3
 Iteration     6 Dimension    36 NMult    33 NNew      3
 Iteration     7 Dimension    39 NMult    36 NNew      3
 Iteration     8 Dimension    42 NMult    39 NNew      3
 ***********************************************************************
 Stability analysis using <AA,BB:AA,BB> singles matrix:
 ***********************************************************************
 Ground to excited state transition densities written to RWF  633

 Eigenvectors of the stability matrix:
 
 Excited state symmetry could not be determined.
 Eigenvector   1:      Singlet-?Sym  Eigenvalue= 0.1725985  <S**2>=0.000
      25 -> 28        -0.17708
      25 -> 31         0.18160
      26 -> 28         0.39693
      26 -> 31        -0.37462
      26 -> 32         0.11104
      26 -> 36        -0.13407
 The wavefunction is stable under the perturbations considered.
 The wavefunction is already stable.

 **********************************************************************

            Population analysis using the SCF Density.

 **********************************************************************

 Alpha  occ. eigenvalues --  -20.45937 -15.59339 -11.34884 -11.31389 -11.27361
 Alpha  occ. eigenvalues --  -11.27055 -11.26637  -1.28251  -1.24359  -1.20570
 Alpha  occ. eigenvalues --   -0.90357  -0.84623  -0.80462  -0.77363  -0.70822
 Alpha  occ. eigenvalues --   -0.65866  -0.60848  -0.58203  -0.54859  -0.51934
 Alpha  occ. eigenvalues --   -0.49864  -0.49379  -0.47886  -0.44170  -0.35287
 Alpha  occ. eigenvalues --   -0.34448
 Alpha virt. eigenvalues --    0.02700   0.03724   0.04249   0.04752   0.05755
 Alpha virt. eigenvalues --    0.06649   0.07032   0.08314   0.09913   0.10288
 Alpha virt. eigenvalues --    0.11425   0.12668   0.13018   0.13328   0.14263
 Alpha virt. eigenvalues --    0.14731   0.15632   0.15880   0.16240   0.17007
 Alpha virt. eigenvalues --    0.17413   0.18161   0.19388   0.19631   0.20450
 Alpha virt. eigenvalues --    0.21825   0.22886   0.24347   0.25455   0.26499
 Alpha virt. eigenvalues --    0.27111   0.28290   0.28699   0.29721   0.29755
 Alpha virt. eigenvalues --    0.31844   0.34484   0.34668   0.35143   0.36103
 Alpha virt. eigenvalues --    0.37441   0.38277   0.39900   0.40155   0.41040
 Alpha virt. eigenvalues --    0.41612   0.42434   0.43439   0.44811   0.45382
 Alpha virt. eigenvalues --    0.46629   0.47827   0.48488   0.49843   0.50104
 Alpha virt. eigenvalues --    0.51907   0.52384   0.54111   0.55419   0.56897
 Alpha virt. eigenvalues --    0.57633   0.58249   0.59012   0.60635   0.61360
 Alpha virt. eigenvalues --    0.62066   0.62602   0.63430   0.64156   0.65107
 Alpha virt. eigenvalues --    0.65273   0.67035   0.67986   0.69008   0.70136
 Alpha virt. eigenvalues --    0.71131   0.72625   0.73929   0.74833   0.76454
 Alpha virt. eigenvalues --    0.77937   0.78722   0.80162   0.80503   0.81740
 Alpha virt. eigenvalues --    0.82488   0.84019   0.85319   0.85883   0.86803
 Alpha virt. eigenvalues --    0.88209   0.88815   0.90322   0.91183   0.93623
 Alpha virt. eigenvalues --    0.95555   0.96030   0.97054   0.98363   1.02401
 Alpha virt. eigenvalues --    1.03849   1.06254   1.08286   1.11839   1.12954
 Alpha virt. eigenvalues --    1.15749   1.18699   1.19185   1.22181   1.24372
 Alpha virt. eigenvalues --    1.27623   1.28529   1.32454   1.36504   1.39052
 Alpha virt. eigenvalues --    1.39718   1.42012   1.42688   1.47172   1.48820
 Alpha virt. eigenvalues --    1.52328   1.54562   1.55743   1.58964   1.61133
 Alpha virt. eigenvalues --    1.62354   1.65161   1.66984   1.70276   1.71805
 Alpha virt. eigenvalues --    1.73192   1.74482   1.74865   1.76743   1.79049
 Alpha virt. eigenvalues --    1.80209   1.83494   1.83834   1.85638   1.87527
 Alpha virt. eigenvalues --    1.90394   1.93405   1.95757   1.96726   1.97891
 Alpha virt. eigenvalues --    2.00919   2.03422   2.05680   2.06988   2.09627
 Alpha virt. eigenvalues --    2.12400   2.13241   2.15977   2.17489   2.20843
 Alpha virt. eigenvalues --    2.25358   2.27041   2.30570   2.31358   2.32956
 Alpha virt. eigenvalues --    2.33330   2.36465   2.37582   2.40953   2.45851
 Alpha virt. eigenvalues --    2.48047   2.51316   2.57508   2.59650   2.63180
 Alpha virt. eigenvalues --    2.64753   2.67601   2.68366   2.71683   2.72923
 Alpha virt. eigenvalues --    2.75271   2.80239   2.81505   2.84302   2.85756
 Alpha virt. eigenvalues --    2.92269   2.99444   3.01727   3.07566   3.08185
 Alpha virt. eigenvalues --    3.10676   3.15482   3.25751   3.51834   3.54916
 Alpha virt. eigenvalues --    3.59240   3.69746   3.82803   3.93384   3.96904
 Alpha virt. eigenvalues --    4.06692   4.12757   4.16346
          Condensed to atoms (all electrons):
 Mulliken charges:
               1
     1  C    0.547613
     2  C    0.090523
     3  C    0.847232
     4  O   -1.022514
     5  C    0.424245
     6  N   -0.494816
     7  C    0.662182
     8  H    0.170201
     9  H   -0.334387
    10  H   -0.369846
    11  H   -0.169176
    12  H   -0.042913
    13  H    0.064627
    14  H   -0.372972
 Sum of Mulliken charges =  -0.00000
 Mulliken charges with hydrogens summed into heavy atoms:
               1
     1  C    0.383427
     2  C   -0.279323
     3  C    0.635143
     4  O   -1.022514
     5  C    0.488873
     6  N   -0.494816
     7  C    0.289211
 Electronic spatial extent (au):  <R**2>=            686.9631
 Charge=             -0.0000 electrons
 Dipole moment (field-independent basis, Debye):
    X=             -2.2748    Y=             -1.8045    Z=             -2.1028  Tot=              3.5850
 Unable to Open any file for archive entry.
 1\1\GINC-SE060\Stability\RHF\Aug-CC-pVDZ\C5H7N1O1\OHZDE\09-Apr-2025\0\
 \#t hf aug-cc-pvdz symm=none int=(grid=ultrafine) guess=(read,tcheck) 
 stable=(opt,rrhf)\\title\\0,1\C,0,-1.33558335,-0.44382068,0.41004834\C
 ,0,-0.76200166,0.52024283,-0.67741341\C,0,0.44422561,1.37519088,0.0724
 2361\O,0,0.82216246,0.83922189,1.20227604\C,0,1.80743554,-1.20931495,0
 .50808754\N,0,1.29065574,-1.67299334,-0.41052586\C,0,-0.72421588,-0.86
 205412,-0.78326802\H,0,-0.63475465,-0.1829545,1.24908423\H,0,-2.351900
 45,-0.7352017,0.64888616\H,0,-1.25666316,1.09737698,-1.45092922\H,0,-0
 .01358409,2.3755372,0.15663002\H,0,1.20634891,1.39057609,-0.73345805\H
 ,0,2.37434577,-0.87779737,1.34880327\H,0,-0.8866598,-1.60855322,-1.539
 91964\\Version=ES64L-G16RevC.01\HF=-322.5362631\RMSD=6.190e-09\Dipole=
 -0.8949661,-0.7099287,-0.8272958\Quadrupole=3.9759885,-2.7504743,-1.22
 55142,-0.3003813,2.6739294,-3.8359124\PG=Unknown\\@
 The archive entry for this job was punched.


 GARLIC THEN HAVE POWER TO SAVE FROM DEATH
 BEAR WITH IT THOUGH IT MAKETH UNSAVORY BREATH,
 AND SCORN NOT GARLIC LIKE SOME THAT THINK
 IT ONLY MAKETH MEN WINK AND DRINK AND STINK.
   --  SIR JOHN HARRINGTON,
       "THE ENGLISHMAN'S DOCTOR", 1609
 Job cpu time:       0 days  0 hours  8 minutes  2.4 seconds.
 Elapsed time:       0 days  0 hours  0 minutes 34.6 seconds.
 File lengths (MBytes):  RWF=    235 Int=      0 D2E=      0 Chk=      7 Scr=      1
 Normal termination of Gaussian 16 at Wed Apr  9 03:39:32 2025.
 Initial command:
 /arc/software/Gaussian/g16.c01/l1.exe "/tmp/slurm/4865894/Gau-2304040.inp" -scrdir="/tmp/slurm/4865894/"
 Entering Link 1 = /arc/software/Gaussian/g16.c01/l1.exe PID=   2304348.
  
 Copyright (c) 1988-2019, Gaussian, Inc.  All Rights Reserved.
  
 This is part of the Gaussian(R) 16 program.  It is based on
 the Gaussian(R) 09 system (copyright 2009, Gaussian, Inc.),
 the Gaussian(R) 03 system (copyright 2003, Gaussian, Inc.),
 the Gaussian(R) 98 system (copyright 1998, Gaussian, Inc.),
 the Gaussian(R) 94 system (copyright 1995, Gaussian, Inc.),
 the Gaussian 92(TM) system (copyright 1992, Gaussian, Inc.),
 the Gaussian 90(TM) system (copyright 1990, Gaussian, Inc.),
 the Gaussian 88(TM) system (copyright 1988, Gaussian, Inc.),
 the Gaussian 86(TM) system (copyright 1986, Carnegie Mellon
 University), and the Gaussian 82(TM) system (copyright 1983,
 Carnegie Mellon University). Gaussian is a federally registered
 trademark of Gaussian, Inc.
  
 This software contains proprietary and confidential information,
 including trade secrets, belonging to Gaussian, Inc.
  
 This software is provided under written license and may be
 used, copied, transmitted, or stored only in accord with that
 written license.
  
 The following legend is applicable only to US Government
 contracts under FAR:
  
                    RESTRICTED RIGHTS LEGEND
  
 Use, reproduction and disclosure by the US Government is
 subject to restrictions as set forth in subparagraphs (a)
 and (c) of the Commercial Computer Software - Restricted
 Rights clause in FAR 52.227-19.
  
 Gaussian, Inc.
 340 Quinnipiac St., Bldg. 40, Wallingford CT 06492
  
  
 ---------------------------------------------------------------
 Warning -- This program may not be used in any manner that
 competes with the business of Gaussian, Inc. or will provide
 assistance to any competitor of Gaussian, Inc.  The licensee
 of this program is prohibited from giving any competitor of
 Gaussian, Inc. access to this program.  By using this program,
 the user acknowledges that Gaussian, Inc. is engaged in the
 business of creating and licensing software in the field of
 computational chemistry and represents and warrants to the
 licensee that it is not a competitor of Gaussian, Inc. and that
 it will not use this program in any manner prohibited above.
 ---------------------------------------------------------------
  

 Cite this work as:
 Gaussian 16, Revision C.01,
 M. J. Frisch, G. W. Trucks, H. B. Schlegel, G. E. Scuseria, 
 M. A. Robb, J. R. Cheeseman, G. Scalmani, V. Barone, 
 G. A. Petersson, H. Nakatsuji, X. Li, M. Caricato, A. V. Marenich, 
 J. Bloino, B. G. Janesko, R. Gomperts, B. Mennucci, H. P. Hratchian, 
 J. V. Ortiz, A. F. Izmaylov, J. L. Sonnenberg, D. Williams-Young, 
 F. Ding, F. Lipparini, F. Egidi, J. Goings, B. Peng, A. Petrone, 
 T. Henderson, D. Ranasinghe, V. G. Zakrzewski, J. Gao, N. Rega, 
 G. Zheng, W. Liang, M. Hada, M. Ehara, K. Toyota, R. Fukuda, 
 J. Hasegawa, M. Ishida, T. Nakajima, Y. Honda, O. Kitao, H. Nakai, 
 T. Vreven, K. Throssell, J. A. Montgomery, Jr., J. E. Peralta, 
 F. Ogliaro, M. J. Bearpark, J. J. Heyd, E. N. Brothers, K. N. Kudin, 
 V. N. Staroverov, T. A. Keith, R. Kobayashi, J. Normand, 
 K. Raghavachari, A. P. Rendell, J. C. Burant, S. S. Iyengar, 
 J. Tomasi, M. Cossi, J. M. Millam, M. Klene, C. Adamo, R. Cammi, 
 J. W. Ochterski, R. L. Martin, K. Morokuma, O. Farkas, 
 J. B. Foresman, and D. J. Fox, Gaussian, Inc., Wallingford CT, 2019.
 
 ******************************************
 Gaussian 16:  ES64L-G16RevC.01  3-Jul-2019
                 9-Apr-2025 
 ******************************************
 %nprocs=16
 Will use up to   16 processors via shared memory.
 %mem=30GB
 %chk=Grambow2020_wb97xd3_007387_reverse_mol1.chk
 ----------------------------------------------------------------------
 #t hf aug-cc-pvdz iop(5/13=1,5/36=2,99/5=2) pseudo=read geom=check gue
 ss=(read,tcheck) scf=(maxcycle=1)
 ----------------------------------------------------------------------
 -----
 title
 -----
 Structure from the checkpoint file:  "Grambow2020_wb97xd3_007387_reverse_mol1.chk"
 Charge =  0 Multiplicity = 1
 Z-Matrix found in chk file.
 C,0,-1.33558335,-0.44382068,0.41004834
 C,0,-0.76200166,0.52024283,-0.67741341
 C,0,0.44422561,1.37519088,0.07242361
 O,0,0.82216246,0.83922189,1.20227604
 C,0,1.80743554,-1.20931495,0.50808754
 N,0,1.29065574,-1.67299334,-0.41052586
 C,0,-0.72421588,-0.86205412,-0.78326802
 H,0,-0.63475465,-0.1829545,1.24908423
 H,0,-2.35190045,-0.7352017,0.64888616
 H,0,-1.25666316,1.09737698,-1.45092922
 H,0,-0.01358409,2.3755372,0.15663002
 H,0,1.20634891,1.39057609,-0.73345805
 H,0,2.37434577,-0.87779737,1.34880327
 H,0,-0.8866598,-1.60855322,-1.53991964
 Recover connectivity data from disk.
                    Distance matrix (angstroms):
                    1          2          3          4          5
     1  C    0.000000
     2  C    1.562366   0.000000
     3  C    2.567200   1.657762   0.000000
     4  O    2.632430   2.478821   1.306394   0.000000
     5  C    3.236381   3.316442   2.954288   2.376797   0.000000
     6  N    3.013526   3.015778   3.200174   3.021894   1.151481
     7  C    1.404526   1.386859   2.665095   3.037764   2.863119
     8  H    1.123919   2.054768   2.230817   1.780349   2.750779
     9  H    1.083904   2.421361   3.550266   3.586046   4.188637
    10  H    2.417593   1.084482   2.300175   3.380482   4.306655
    11  H    3.124209   2.167458   1.103346   2.037673   4.036186
    12  H    3.336771   2.152911   1.109285   2.049063   2.943157
    13  H    3.851386   3.987072   3.229623   2.319245   1.066815
    14  H    2.315277   2.300267   3.643300   4.053556   3.407620
                    6          7          8          9         10
     6  N    0.000000
     7  C    2.203694   0.000000
     8  H    2.946477   2.144676   0.000000
     9  H    3.907688   2.171754   1.901001   0.000000
    10  H    3.904641   2.137438   3.052227   2.994514   0.000000
    11  H    4.291073   3.445345   2.850472   3.922593   2.400664
    12  H    3.081696   2.967137   3.129878   4.369319   2.582084
    13  H    2.214037   3.761258   3.089893   4.779918   4.992398
    14  H    2.453647   1.075254   3.142345   2.774985   2.732559
                   11         12         13         14
    11  H    0.000000
    12  H    1.802954   0.000000
    13  H    4.208048   3.293258   0.000000
    14  H    4.417411   3.745109   4.417339   0.000000
 Framework group  C1[X(C5H7NO)]
 Deg. of freedom    36
                         Standard orientation:                         
 ---------------------------------------------------------------------
 Center     Atomic      Atomic             Coordinates (Angstroms)
 Number     Number       Type             X           Y           Z
 ---------------------------------------------------------------------
      1          6           0       -1.056374   -0.758091    0.943177
      2          6           0       -1.274843   -0.214929   -0.505351
      3          6           0       -0.614979    1.305790   -0.518357
      4          8           0        0.167927    1.530374    0.503057
      5          6           0        1.972579    0.031575    0.120965
      6          7           0        1.645980   -0.954496   -0.375932
      7          6           0       -0.517773   -1.340310   -0.215971
      8          1           0       -0.481248    0.112196    1.361536
      9          1           0       -1.702613   -1.324212    1.604031
     10          1           0       -2.119089   -0.303673   -1.180239
     11          1           0       -1.517972    1.937984   -0.566388
     12          1           0       -0.122193    1.299260   -1.512154
     13          1           0        2.399150    0.900898    0.568635
     14          1           0       -0.372974   -2.328176   -0.615126
 ---------------------------------------------------------------------
 Rotational constants (GHZ):           3.4624085           2.8937565           1.9819621
 ======================================================================================================
                                       Pseudopotential Parameters
 ======================================================================================================
  Center     Atomic      Valence      Angular      Power
  Number     Number     Electrons     Momentum     of R      Exponent        Coefficient   SO-Coeffient
 ======================================================================================================
    1          6            6
                                      G and up 
                                                     0        0.0000010       -0.00007288    0.00000000
                                                     2        0.1200000        0.10466671    0.00000000
                                                     2        0.1400000       -0.65716157    0.00000000
                                                     2        0.1600000        1.18890794    0.00000000
                                                     2        0.2000000       -1.25772850    0.00000000
                                                     2        0.2600000        1.01188378    0.00000000
                                                     2        0.4000000       -1.09380874    0.00000000
                                                     2        0.5000000        0.96944888    0.00000000
                                                     2        1.0000000       -0.79256938    0.00000000
                                                     2        3.0000000        1.06443276    0.00000000
                                      S - G
                                                     0        0.0000010       -0.00635295    0.00000000
                                                     2        0.1200000        0.16918955    0.00000000
                                                     2        0.1600000       -0.38862576    0.00000000
                                                     2        0.2800000        0.25638263    0.00000000
                                                     2        0.5000000        0.29628419    0.00000000
                                                     2        0.9000000       -0.28791512    0.00000000
                                      P - G
                                                     0        0.0000010       -0.04756931    0.00000000
                                                     2        0.1200000        0.28430375    0.00000000
                                                     2        0.1600000       -0.69640032    0.00000000
                                                     2        0.2600000        1.13005668    0.00000000
                                                     2        0.4000000       -1.31433324    0.00000000
                                                     2        0.7000000        0.91526469    0.00000000
                                      D - G
                                                     0        0.0000010       -0.11496411    0.00000000
                                                     2        0.1200000        0.16620776    0.00000000
                                                     2        0.1800000       -0.30959819    0.00000000
                                                     2        0.3000000        0.16621458    0.00000000
                                                     2        0.6000000        0.27350556    0.00000000
                                      F - G
                                                     0        0.0000010        0.12037550    0.00000000
                                                     2        0.1200000       -0.48737077    0.00000000
                                                     2        0.1400000        0.58315350    0.00000000
                                                     2        0.3000000        0.00005188    0.00000000
                                                     2        0.5000000       -1.16063549    0.00000000
                                                     2        0.8000000        2.09053308    0.00000000
    2          6            6
                                      G and up 
                                                     0        0.0000010       -0.00007288    0.00000000
                                                     2        0.1200000        0.10466671    0.00000000
                                                     2        0.1400000       -0.65716157    0.00000000
                                                     2        0.1600000        1.18890794    0.00000000
                                                     2        0.2000000       -1.25772850    0.00000000
                                                     2        0.2600000        1.01188378    0.00000000
                                                     2        0.4000000       -1.09380874    0.00000000
                                                     2        0.5000000        0.96944888    0.00000000
                                                     2        1.0000000       -0.79256938    0.00000000
                                                     2        3.0000000        1.06443276    0.00000000
                                      S - G
                                                     0        0.0000010       -0.00635295    0.00000000
                                                     2        0.1200000        0.16918955    0.00000000
                                                     2        0.1600000       -0.38862576    0.00000000
                                                     2        0.2800000        0.25638263    0.00000000
                                                     2        0.5000000        0.29628419    0.00000000
                                                     2        0.9000000       -0.28791512    0.00000000
                                      P - G
                                                     0        0.0000010       -0.04756931    0.00000000
                                                     2        0.1200000        0.28430375    0.00000000
                                                     2        0.1600000       -0.69640032    0.00000000
                                                     2        0.2600000        1.13005668    0.00000000
                                                     2        0.4000000       -1.31433324    0.00000000
                                                     2        0.7000000        0.91526469    0.00000000
                                      D - G
                                                     0        0.0000010       -0.11496411    0.00000000
                                                     2        0.1200000        0.16620776    0.00000000
                                                     2        0.1800000       -0.30959819    0.00000000
                                                     2        0.3000000        0.16621458    0.00000000
                                                     2        0.6000000        0.27350556    0.00000000
                                      F - G
                                                     0        0.0000010        0.12037550    0.00000000
                                                     2        0.1200000       -0.48737077    0.00000000
                                                     2        0.1400000        0.58315350    0.00000000
                                                     2        0.3000000        0.00005188    0.00000000
                                                     2        0.5000000       -1.16063549    0.00000000
                                                     2        0.8000000        2.09053308    0.00000000
    3          6            6
                                      G and up 
                                                     0        0.0000010       -0.00007288    0.00000000
                                                     2        0.1200000        0.10466671    0.00000000
                                                     2        0.1400000       -0.65716157    0.00000000
                                                     2        0.1600000        1.18890794    0.00000000
                                                     2        0.2000000       -1.25772850    0.00000000
                                                     2        0.2600000        1.01188378    0.00000000
                                                     2        0.4000000       -1.09380874    0.00000000
                                                     2        0.5000000        0.96944888    0.00000000
                                                     2        1.0000000       -0.79256938    0.00000000
                                                     2        3.0000000        1.06443276    0.00000000
                                      S - G
                                                     0        0.0000010       -0.00635295    0.00000000
                                                     2        0.1200000        0.16918955    0.00000000
                                                     2        0.1600000       -0.38862576    0.00000000
                                                     2        0.2800000        0.25638263    0.00000000
                                                     2        0.5000000        0.29628419    0.00000000
                                                     2        0.9000000       -0.28791512    0.00000000
                                      P - G
                                                     0        0.0000010       -0.04756931    0.00000000
                                                     2        0.1200000        0.28430375    0.00000000
                                                     2        0.1600000       -0.69640032    0.00000000
                                                     2        0.2600000        1.13005668    0.00000000
                                                     2        0.4000000       -1.31433324    0.00000000
                                                     2        0.7000000        0.91526469    0.00000000
                                      D - G
                                                     0        0.0000010       -0.11496411    0.00000000
                                                     2        0.1200000        0.16620776    0.00000000
                                                     2        0.1800000       -0.30959819    0.00000000
                                                     2        0.3000000        0.16621458    0.00000000
                                                     2        0.6000000        0.27350556    0.00000000
                                      F - G
                                                     0        0.0000010        0.12037550    0.00000000
                                                     2        0.1200000       -0.48737077    0.00000000
                                                     2        0.1400000        0.58315350    0.00000000
                                                     2        0.3000000        0.00005188    0.00000000
                                                     2        0.5000000       -1.16063549    0.00000000
                                                     2        0.8000000        2.09053308    0.00000000
    4          8            8
                                      G and up 
                                                     0        0.0000010        0.00049668    0.00000000
                                                     2        0.1200000       -0.01803391    0.00000000
                                                     2        0.1400000        0.04014195    0.00000000
                                                     2        0.2000000       -0.02692147    0.00000000
                                                     2        0.2800000       -0.04241843    0.00000000
                                                     2        0.4000000        0.15412145    0.00000000
                                                     2        0.7000000       -0.40587006    0.00000000
                                                     2        1.1000000        1.75666647    0.00000000
                                      S - G
                                                     0        0.0000010       -0.01088195    0.00000000
                                                     2        0.1200000        0.09867335    0.00000000
                                                     2        0.2400000       -0.08484177    0.00000000
                                                     2        0.6000000       -1.39011554    0.00000000
                                                     2        2.5000000        1.36225910    0.00000000
                                      P - G
                                                     0        0.0000010        0.05874028    0.00000000
                                                     2        0.1200000       -0.11700340    0.00000000
                                                     2        0.1600000        0.08847775    0.00000000
                                                     2        0.3000000        0.04709907    0.00000000
                                                     2        1.2000000       -1.80388338    0.00000000
                                      D - G
                                                     0        0.0000010       -0.00541262    0.00000000
                                                     2        0.1200000       -0.26547906    0.00000000
                                                     2        0.1600000        1.04289661    0.00000000
                                                     2        0.2400000       -1.92800913    0.00000000
                                                     2        0.4000000        2.26691633    0.00000000
                                                     2        0.7000000       -1.97391482    0.00000000
                                      F - G
                                                     0        0.0000010       -0.02604870    0.00000000
                                                     2        0.1200000        0.37362552    0.00000000
                                                     2        0.1600000       -1.43526367    0.00000000
                                                     2        0.2200000        1.76778079    0.00000000
                                                     2        0.5000000       -1.90846303    0.00000000
    5          6            6
                                      G and up 
                                                     0        0.0000010       -0.00007288    0.00000000
                                                     2        0.1200000        0.10466671    0.00000000
                                                     2        0.1400000       -0.65716157    0.00000000
                                                     2        0.1600000        1.18890794    0.00000000
                                                     2        0.2000000       -1.25772850    0.00000000
                                                     2        0.2600000        1.01188378    0.00000000
                                                     2        0.4000000       -1.09380874    0.00000000
                                                     2        0.5000000        0.96944888    0.00000000
                                                     2        1.0000000       -0.79256938    0.00000000
                                                     2        3.0000000        1.06443276    0.00000000
                                      S - G
                                                     0        0.0000010       -0.00635295    0.00000000
                                                     2        0.1200000        0.16918955    0.00000000
                                                     2        0.1600000       -0.38862576    0.00000000
                                                     2        0.2800000        0.25638263    0.00000000
                                                     2        0.5000000        0.29628419    0.00000000
                                                     2        0.9000000       -0.28791512    0.00000000
                                      P - G
                                                     0        0.0000010       -0.04756931    0.00000000
                                                     2        0.1200000        0.28430375    0.00000000
                                                     2        0.1600000       -0.69640032    0.00000000
                                                     2        0.2600000        1.13005668    0.00000000
                                                     2        0.4000000       -1.31433324    0.00000000
                                                     2        0.7000000        0.91526469    0.00000000
                                      D - G
                                                     0        0.0000010       -0.11496411    0.00000000
                                                     2        0.1200000        0.16620776    0.00000000
                                                     2        0.1800000       -0.30959819    0.00000000
                                                     2        0.3000000        0.16621458    0.00000000
                                                     2        0.6000000        0.27350556    0.00000000
                                      F - G
                                                     0        0.0000010        0.12037550    0.00000000
                                                     2        0.1200000       -0.48737077    0.00000000
                                                     2        0.1400000        0.58315350    0.00000000
                                                     2        0.3000000        0.00005188    0.00000000
                                                     2        0.5000000       -1.16063549    0.00000000
                                                     2        0.8000000        2.09053308    0.00000000
    6          7            7
                                      G and up 
                                                     0        0.0000010       -0.00039818    0.00000000
                                                     2        0.1200000       -0.37616123    0.00000000
                                                     2        0.1400000        2.13837358    0.00000000
                                                     2        0.1600000       -3.36562035    0.00000000
                                                     2        0.2000000        2.53463289    0.00000000
                                                     2        0.3000000       -1.98118833    0.00000000
                                                     2        0.5000000        4.06642919    0.00000000
                                                     2        0.7000000       -6.15327959    0.00000000
                                                     2        1.2000000       10.22492851    0.00000000
                                                     2        2.0000000      -14.94707511    0.00000000
                                      S - G
                                                     0        0.0000010        0.02721443    0.00000000
                                                     2        0.1200000       -0.60186009    0.00000000
                                                     2        0.1600000        1.10088134    0.00000000
                                                     2        0.2600000       -0.59857981    0.00000000
                                                     2        0.6000000        0.21288222    0.00000000
                                                     2        3.0000000        5.09059205    0.00000000
                                      P - G
                                                     0        0.0000010        0.40558062    0.00000000
                                                     2        0.1200000        0.81809854    0.00000000
                                                     2        0.1600000       -2.44952728    0.00000000
                                                     2        0.2800000        4.16638749    0.00000000
                                                     2        0.5000000       -6.02944147    0.00000000
                                                     2        1.1000000        5.78262914    0.00000000
                                      D - G
                                                     0        0.0000010       -0.62770267    0.00000000
                                                     2        0.1600000        0.91438653    0.00000000
                                                     2        0.2600000       -2.00568466    0.00000000
                                                     2        0.5000000        3.30798839    0.00000000
                                                     2        1.1000000       -3.91526108    0.00000000
                                      F - G
                                                     0        0.0000010        0.29726344    0.00000000
                                                     2        0.1200000       -0.41591527    0.00000000
                                                     2        0.1600000        0.51444439    0.00000000
                                                     2        0.4000000       -0.69401726    0.00000000
                                                     2        0.7000000        0.51478123    0.00000000
    7          6            6
                                      G and up 
                                                     0        0.0000010       -0.00007288    0.00000000
                                                     2        0.1200000        0.10466671    0.00000000
                                                     2        0.1400000       -0.65716157    0.00000000
                                                     2        0.1600000        1.18890794    0.00000000
                                                     2        0.2000000       -1.25772850    0.00000000
                                                     2        0.2600000        1.01188378    0.00000000
                                                     2        0.4000000       -1.09380874    0.00000000
                                                     2        0.5000000        0.96944888    0.00000000
                                                     2        1.0000000       -0.79256938    0.00000000
                                                     2        3.0000000        1.06443276    0.00000000
                                      S - G
                                                     0        0.0000010       -0.00635295    0.00000000
                                                     2        0.1200000        0.16918955    0.00000000
                                                     2        0.1600000       -0.38862576    0.00000000
                                                     2        0.2800000        0.25638263    0.00000000
                                                     2        0.5000000        0.29628419    0.00000000
                                                     2        0.9000000       -0.28791512    0.00000000
                                      P - G
                                                     0        0.0000010       -0.04756931    0.00000000
                                                     2        0.1200000        0.28430375    0.00000000
                                                     2        0.1600000       -0.69640032    0.00000000
                                                     2        0.2600000        1.13005668    0.00000000
                                                     2        0.4000000       -1.31433324    0.00000000
                                                     2        0.7000000        0.91526469    0.00000000
                                      D - G
                                                     0        0.0000010       -0.11496411    0.00000000
                                                     2        0.1200000        0.16620776    0.00000000
                                                     2        0.1800000       -0.30959819    0.00000000
                                                     2        0.3000000        0.16621458    0.00000000
                                                     2        0.6000000        0.27350556    0.00000000
                                      F - G
                                                     0        0.0000010        0.12037550    0.00000000
                                                     2        0.1200000       -0.48737077    0.00000000
                                                     2        0.1400000        0.58315350    0.00000000
                                                     2        0.3000000        0.00005188    0.00000000
                                                     2        0.5000000       -1.16063549    0.00000000
                                                     2        0.8000000        2.09053308    0.00000000
    8          1            1
                                      F and up 
                                                     0        0.0000010       -0.00007675    0.00000000
                                                     2        0.1200000        0.05352699    0.00000000
                                                     2        0.1400000       -0.25123645    0.00000000
                                                     2        0.1600000        0.32188106    0.00000000
                                                     2        0.2200000       -0.25206857    0.00000000
                                                     2        0.3000000        0.19290477    0.00000000
                                                     2        0.5000000       -0.10129770    0.00000000
                                                     2        0.9000000        0.00314995    0.00000000
                                                     2        1.5000000        0.18401192    0.00000000
                                      S - F
                                                     0        0.0000010        0.08065976    0.00000000
                                                     2        0.1200000       -0.09231673    0.00000000
                                                     2        0.1600000       -0.03278082    0.00000000
                                                     2        0.2800000        0.38423402    0.00000000
                                                     2        0.6000000       -1.09357590    0.00000000
                                                     2        1.1000000        1.53099489    0.00000000
                                                     2        3.0000000       -2.63300202    0.00000000
                                      P - F
                                                     0        0.0000010       -0.11638665    0.00000000
                                                     2        0.1200000        0.35468655    0.00000000
                                                     2        0.1600000       -0.59160923    0.00000000
                                                     2        0.3000000        0.49390547    0.00000000
                                                     2        0.6000000       -0.37949835    0.00000000
                                                     2        1.6000000        0.89304688    0.00000000
                                      D - F
                                                     0        0.0000010        0.05443663    0.00000000
                                                     2        0.1200000       -0.29679479    0.00000000
                                                     2        0.1400000        0.36849872    0.00000000
                                                     2        0.2400000        0.02793449    0.00000000
                                                     2        0.4000000       -0.46312857    0.00000000
                                                     2        0.7000000        0.97587598    0.00000000
                                                     2        1.5000000       -2.43431102    0.00000000
    9          1            1
                                      F and up 
                                                     0        0.0000010       -0.00007675    0.00000000
                                                     2        0.1200000        0.05352699    0.00000000
                                                     2        0.1400000       -0.25123645    0.00000000
                                                     2        0.1600000        0.32188106    0.00000000
                                                     2        0.2200000       -0.25206857    0.00000000
                                                     2        0.3000000        0.19290477    0.00000000
                                                     2        0.5000000       -0.10129770    0.00000000
                                                     2        0.9000000        0.00314995    0.00000000
                                                     2        1.5000000        0.18401192    0.00000000
                                      S - F
                                                     0        0.0000010        0.08065976    0.00000000
                                                     2        0.1200000       -0.09231673    0.00000000
                                                     2        0.1600000       -0.03278082    0.00000000
                                                     2        0.2800000        0.38423402    0.00000000
                                                     2        0.6000000       -1.09357590    0.00000000
                                                     2        1.1000000        1.53099489    0.00000000
                                                     2        3.0000000       -2.63300202    0.00000000
                                      P - F
                                                     0        0.0000010       -0.11638665    0.00000000
                                                     2        0.1200000        0.35468655    0.00000000
                                                     2        0.1600000       -0.59160923    0.00000000
                                                     2        0.3000000        0.49390547    0.00000000
                                                     2        0.6000000       -0.37949835    0.00000000
                                                     2        1.6000000        0.89304688    0.00000000
                                      D - F
                                                     0        0.0000010        0.05443663    0.00000000
                                                     2        0.1200000       -0.29679479    0.00000000
                                                     2        0.1400000        0.36849872    0.00000000
                                                     2        0.2400000        0.02793449    0.00000000
                                                     2        0.4000000       -0.46312857    0.00000000
                                                     2        0.7000000        0.97587598    0.00000000
                                                     2        1.5000000       -2.43431102    0.00000000
   10          1            1
                                      F and up 
                                                     0        0.0000010       -0.00007675    0.00000000
                                                     2        0.1200000        0.05352699    0.00000000
                                                     2        0.1400000       -0.25123645    0.00000000
                                                     2        0.1600000        0.32188106    0.00000000
                                                     2        0.2200000       -0.25206857    0.00000000
                                                     2        0.3000000        0.19290477    0.00000000
                                                     2        0.5000000       -0.10129770    0.00000000
                                                     2        0.9000000        0.00314995    0.00000000
                                                     2        1.5000000        0.18401192    0.00000000
                                      S - F
                                                     0        0.0000010        0.08065976    0.00000000
                                                     2        0.1200000       -0.09231673    0.00000000
                                                     2        0.1600000       -0.03278082    0.00000000
                                                     2        0.2800000        0.38423402    0.00000000
                                                     2        0.6000000       -1.09357590    0.00000000
                                                     2        1.1000000        1.53099489    0.00000000
                                                     2        3.0000000       -2.63300202    0.00000000
                                      P - F
                                                     0        0.0000010       -0.11638665    0.00000000
                                                     2        0.1200000        0.35468655    0.00000000
                                                     2        0.1600000       -0.59160923    0.00000000
                                                     2        0.3000000        0.49390547    0.00000000
                                                     2        0.6000000       -0.37949835    0.00000000
                                                     2        1.6000000        0.89304688    0.00000000
                                      D - F
                                                     0        0.0000010        0.05443663    0.00000000
                                                     2        0.1200000       -0.29679479    0.00000000
                                                     2        0.1400000        0.36849872    0.00000000
                                                     2        0.2400000        0.02793449    0.00000000
                                                     2        0.4000000       -0.46312857    0.00000000
                                                     2        0.7000000        0.97587598    0.00000000
                                                     2        1.5000000       -2.43431102    0.00000000
   11          1            1
                                      F and up 
                                                     0        0.0000010       -0.00007675    0.00000000
                                                     2        0.1200000        0.05352699    0.00000000
                                                     2        0.1400000       -0.25123645    0.00000000
                                                     2        0.1600000        0.32188106    0.00000000
                                                     2        0.2200000       -0.25206857    0.00000000
                                                     2        0.3000000        0.19290477    0.00000000
                                                     2        0.5000000       -0.10129770    0.00000000
                                                     2        0.9000000        0.00314995    0.00000000
                                                     2        1.5000000        0.18401192    0.00000000
                                      S - F
                                                     0        0.0000010        0.08065976    0.00000000
                                                     2        0.1200000       -0.09231673    0.00000000
                                                     2        0.1600000       -0.03278082    0.00000000
                                                     2        0.2800000        0.38423402    0.00000000
                                                     2        0.6000000       -1.09357590    0.00000000
                                                     2        1.1000000        1.53099489    0.00000000
                                                     2        3.0000000       -2.63300202    0.00000000
                                      P - F
                                                     0        0.0000010       -0.11638665    0.00000000
                                                     2        0.1200000        0.35468655    0.00000000
                                                     2        0.1600000       -0.59160923    0.00000000
                                                     2        0.3000000        0.49390547    0.00000000
                                                     2        0.6000000       -0.37949835    0.00000000
                                                     2        1.6000000        0.89304688    0.00000000
                                      D - F
                                                     0        0.0000010        0.05443663    0.00000000
                                                     2        0.1200000       -0.29679479    0.00000000
                                                     2        0.1400000        0.36849872    0.00000000
                                                     2        0.2400000        0.02793449    0.00000000
                                                     2        0.4000000       -0.46312857    0.00000000
                                                     2        0.7000000        0.97587598    0.00000000
                                                     2        1.5000000       -2.43431102    0.00000000
   12          1            1
                                      F and up 
                                                     0        0.0000010       -0.00007675    0.00000000
                                                     2        0.1200000        0.05352699    0.00000000
                                                     2        0.1400000       -0.25123645    0.00000000
                                                     2        0.1600000        0.32188106    0.00000000
                                                     2        0.2200000       -0.25206857    0.00000000
                                                     2        0.3000000        0.19290477    0.00000000
                                                     2        0.5000000       -0.10129770    0.00000000
                                                     2        0.9000000        0.00314995    0.00000000
                                                     2        1.5000000        0.18401192    0.00000000
                                      S - F
                                                     0        0.0000010        0.08065976    0.00000000
                                                     2        0.1200000       -0.09231673    0.00000000
                                                     2        0.1600000       -0.03278082    0.00000000
                                                     2        0.2800000        0.38423402    0.00000000
                                                     2        0.6000000       -1.09357590    0.00000000
                                                     2        1.1000000        1.53099489    0.00000000
                                                     2        3.0000000       -2.63300202    0.00000000
                                      P - F
                                                     0        0.0000010       -0.11638665    0.00000000
                                                     2        0.1200000        0.35468655    0.00000000
                                                     2        0.1600000       -0.59160923    0.00000000
                                                     2        0.3000000        0.49390547    0.00000000
                                                     2        0.6000000       -0.37949835    0.00000000
                                                     2        1.6000000        0.89304688    0.00000000
                                      D - F
                                                     0        0.0000010        0.05443663    0.00000000
                                                     2        0.1200000       -0.29679479    0.00000000
                                                     2        0.1400000        0.36849872    0.00000000
                                                     2        0.2400000        0.02793449    0.00000000
                                                     2        0.4000000       -0.46312857    0.00000000
                                                     2        0.7000000        0.97587598    0.00000000
                                                     2        1.5000000       -2.43431102    0.00000000
   13          1            1
                                      F and up 
                                                     0        0.0000010       -0.00007675    0.00000000
                                                     2        0.1200000        0.05352699    0.00000000
                                                     2        0.1400000       -0.25123645    0.00000000
                                                     2        0.1600000        0.32188106    0.00000000
                                                     2        0.2200000       -0.25206857    0.00000000
                                                     2        0.3000000        0.19290477    0.00000000
                                                     2        0.5000000       -0.10129770    0.00000000
                                                     2        0.9000000        0.00314995    0.00000000
                                                     2        1.5000000        0.18401192    0.00000000
                                      S - F
                                                     0        0.0000010        0.08065976    0.00000000
                                                     2        0.1200000       -0.09231673    0.00000000
                                                     2        0.1600000       -0.03278082    0.00000000
                                                     2        0.2800000        0.38423402    0.00000000
                                                     2        0.6000000       -1.09357590    0.00000000
                                                     2        1.1000000        1.53099489    0.00000000
                                                     2        3.0000000       -2.63300202    0.00000000
                                      P - F
                                                     0        0.0000010       -0.11638665    0.00000000
                                                     2        0.1200000        0.35468655    0.00000000
                                                     2        0.1600000       -0.59160923    0.00000000
                                                     2        0.3000000        0.49390547    0.00000000
                                                     2        0.6000000       -0.37949835    0.00000000
                                                     2        1.6000000        0.89304688    0.00000000
                                      D - F
                                                     0        0.0000010        0.05443663    0.00000000
                                                     2        0.1200000       -0.29679479    0.00000000
                                                     2        0.1400000        0.36849872    0.00000000
                                                     2        0.2400000        0.02793449    0.00000000
                                                     2        0.4000000       -0.46312857    0.00000000
                                                     2        0.7000000        0.97587598    0.00000000
                                                     2        1.5000000       -2.43431102    0.00000000
   14          1            1
                                      F and up 
                                                     0        0.0000010       -0.00007675    0.00000000
                                                     2        0.1200000        0.05352699    0.00000000
                                                     2        0.1400000       -0.25123645    0.00000000
                                                     2        0.1600000        0.32188106    0.00000000
                                                     2        0.2200000       -0.25206857    0.00000000
                                                     2        0.3000000        0.19290477    0.00000000
                                                     2        0.5000000       -0.10129770    0.00000000
                                                     2        0.9000000        0.00314995    0.00000000
                                                     2        1.5000000        0.18401192    0.00000000
                                      S - F
                                                     0        0.0000010        0.08065976    0.00000000
                                                     2        0.1200000       -0.09231673    0.00000000
                                                     2        0.1600000       -0.03278082    0.00000000
                                                     2        0.2800000        0.38423402    0.00000000
                                                     2        0.6000000       -1.09357590    0.00000000
                                                     2        1.1000000        1.53099489    0.00000000
                                                     2        3.0000000       -2.63300202    0.00000000
                                      P - F
                                                     0        0.0000010       -0.11638665    0.00000000
                                                     2        0.1200000        0.35468655    0.00000000
                                                     2        0.1600000       -0.59160923    0.00000000
                                                     2        0.3000000        0.49390547    0.00000000
                                                     2        0.6000000       -0.37949835    0.00000000
                                                     2        1.6000000        0.89304688    0.00000000
                                      D - F
                                                     0        0.0000010        0.05443663    0.00000000
                                                     2        0.1200000       -0.29679479    0.00000000
                                                     2        0.1400000        0.36849872    0.00000000
                                                     2        0.2400000        0.02793449    0.00000000
                                                     2        0.4000000       -0.46312857    0.00000000
                                                     2        0.7000000        0.97587598    0.00000000
                                                     2        1.5000000       -2.43431102    0.00000000
 ======================================================================================================
   224 basis functions,   378 primitive gaussians,   238 cartesian basis functions
    26 alpha electrons       26 beta electrons
       nuclear repulsion energy       285.4130556927 Hartrees.
 NAtoms=   14 NActive=   14 NUniq=   14 SFac= 1.00D+00 NAtFMM=   60 NAOKFM=F Big=F
   1 Symmetry operations used in ECPInt.
 ECPInt:  NShTT=    4851 NPrTT=   22491 LenC2=    4849 LenP2D=   17741.
 LDataN:  DoStor=T MaxTD1= 6 Len=  172
 Initial guess from the checkpoint file:  "Grambow2020_wb97xd3_007387_reverse_mol1.chk"
 B after Tr=    -0.482541   -0.013734   -0.053243
         Rot=    0.936575    0.191639   -0.138894   -0.258476 Ang=  41.03 deg.
 >>>>>>>>>> Convergence criterion not met.
 SCF Done:  E(RHF) =  -322.864573883     A.U. after    2 cycles
            NFock=  1  Conv=0.14D-01     -V/T= 2.0012

 **********************************************************************

            Population analysis using the SCF Density.

 **********************************************************************

 Orbital symmetries:
       Occupied  (A) (A) (A) (A) (A) (A) (A) (A) (A) (A) (A) (A)
                 (A) (A) (A) (A) (A) (A) (A) (A) (A) (A) (A) (A)
                 (A) (A)
       Virtual   (A) (A) (A) (A) (A) (A) (A) (A) (A) (A) (A) (A)
                 (A) (A) (A) (A) (A) (A) (A) (A) (A) (A) (A) (A)
                 (A) (A) (A) (A) (A) (A) (A) (A) (A) (A) (A) (A)
                 (A) (A) (A) (A) (A) (A) (A) (A) (A) (A) (A) (A)
                 (A) (A) (A) (A) (A) (A) (A) (A) (A) (A) (A) (A)
                 (A) (A) (A) (A) (A) (A) (A) (A) (A) (A) (A) (A)
                 (A) (A) (A) (A) (A) (A) (A) (A) (A) (A) (A) (A)
                 (A) (A) (A) (A) (A) (A) (A) (A) (A) (A) (A) (A)
                 (A) (A) (A) (A) (A) (A) (A) (A) (A) (A) (A) (A)
                 (A) (A) (A) (A) (A) (A) (A) (A) (A) (A) (A) (A)
                 (A) (A) (A) (A) (A) (A) (A) (A) (A) (A) (A) (A)
                 (A) (A) (A) (A) (A) (A) (A) (A) (A) (A) (A) (A)
                 (A) (A) (A) (A) (A) (A) (A) (A) (A) (A) (A) (A)
                 (A) (A) (A) (A) (A) (A) (A) (A) (A) (A) (A) (A)
                 (A) (A) (A) (A) (A) (A) (A) (A) (A) (A) (A) (A)
                 (A) (A) (A) (A) (A) (A) (A) (A) (A) (A) (A) (A)
                 (A) (A) (A) (A) (A) (A)
 The electronic state is 1-A.
 Alpha  occ. eigenvalues --  -20.43760 -15.52482 -11.35004 -11.31293 -11.27514
 Alpha  occ. eigenvalues --  -11.27183 -11.26830  -1.35358  -1.25497  -1.21205
 Alpha  occ. eigenvalues --   -0.91027  -0.85121  -0.81196  -0.78227  -0.71908
 Alpha  occ. eigenvalues --   -0.67412  -0.62178  -0.61580  -0.55908  -0.53332
 Alpha  occ. eigenvalues --   -0.52585  -0.51840  -0.48715  -0.45352  -0.35013
 Alpha  occ. eigenvalues --   -0.34122
 Alpha virt. eigenvalues --    0.02673   0.03106   0.03815   0.04501   0.05354
 Alpha virt. eigenvalues --    0.06261   0.06674   0.07772   0.09735   0.10162
 Alpha virt. eigenvalues --    0.10812   0.12487   0.13112   0.13307   0.14042
 Alpha virt. eigenvalues --    0.14680   0.15692   0.15857   0.16181   0.16917
 Alpha virt. eigenvalues --    0.17005   0.17989   0.18970   0.19451   0.20370
 Alpha virt. eigenvalues --    0.21341   0.22181   0.23859   0.25072   0.26173
 Alpha virt. eigenvalues --    0.26745   0.28041   0.28513   0.29309   0.29625
 Alpha virt. eigenvalues --    0.31599   0.34264   0.34512   0.34987   0.35840
 Alpha virt. eigenvalues --    0.37274   0.38148   0.39677   0.40016   0.40690
 Alpha virt. eigenvalues --    0.41444   0.42253   0.43209   0.44650   0.45243
 Alpha virt. eigenvalues --    0.46508   0.47614   0.48332   0.49528   0.49807
 Alpha virt. eigenvalues --    0.51700   0.52279   0.53909   0.55285   0.56555
 Alpha virt. eigenvalues --    0.57560   0.58179   0.58889   0.60431   0.61353
 Alpha virt. eigenvalues --    0.62006   0.62547   0.63426   0.63892   0.65001
 Alpha virt. eigenvalues --    0.65217   0.67138   0.67933   0.68776   0.69954
 Alpha virt. eigenvalues --    0.71083   0.72658   0.73971   0.74621   0.76441
 Alpha virt. eigenvalues --    0.77825   0.78546   0.80082   0.80392   0.81699
 Alpha virt. eigenvalues --    0.82202   0.83972   0.85359   0.85503   0.86713
 Alpha virt. eigenvalues --    0.88187   0.88708   0.90461   0.91177   0.93184
 Alpha virt. eigenvalues --    0.95399   0.95751   0.96784   0.98117   1.02213
 Alpha virt. eigenvalues --    1.03342   1.06659   1.08921   1.11958   1.13502
 Alpha virt. eigenvalues --    1.16223   1.19078   1.19767   1.22673   1.24447
 Alpha virt. eigenvalues --    1.26113   1.29402   1.33250   1.36558   1.38908
 Alpha virt. eigenvalues --    1.40223   1.43016   1.43742   1.48266   1.49651
 Alpha virt. eigenvalues --    1.53058   1.54276   1.56453   1.59948   1.62366
 Alpha virt. eigenvalues --    1.63187   1.66017   1.67786   1.69709   1.71961
 Alpha virt. eigenvalues --    1.72782   1.73225   1.75619   1.76575   1.78833
 Alpha virt. eigenvalues --    1.81585   1.82796   1.84461   1.87027   1.87547
 Alpha virt. eigenvalues --    1.90961   1.91912   1.96368   1.98273   1.99180
 Alpha virt. eigenvalues --    2.01459   2.04565   2.06075   2.06853   2.10339
 Alpha virt. eigenvalues --    2.12505   2.13960   2.15517   2.15756   2.18538
 Alpha virt. eigenvalues --    2.20515   2.22009   2.22872   2.27525   2.30240
 Alpha virt. eigenvalues --    2.31506   2.34786   2.35750   2.37923   2.41229
 Alpha virt. eigenvalues --    2.42875   2.46844   2.49506   2.54518   2.56869
 Alpha virt. eigenvalues --    2.60781   2.62902   2.67821   2.68571   2.69548
 Alpha virt. eigenvalues --    2.69911   2.74734   2.77924   2.80007   2.83258
 Alpha virt. eigenvalues --    2.85485   2.89968   2.94297   3.05841   3.10792
 Alpha virt. eigenvalues --    3.14269   3.19601   3.28417   3.31149   3.55331
 Alpha virt. eigenvalues --    3.60546   3.72584   3.87664   4.03581   4.07317
 Alpha virt. eigenvalues --    4.16758   4.23148   4.26637
          Condensed to atoms (all electrons):
 Mulliken charges:
               1
     1  C    0.057268
     2  C    0.000306
     3  C    0.572357
     4  O   -1.293181
     5  C   -0.812665
     6  N    0.695163
     7  C    0.435727
     8  H    0.416185
     9  H   -0.115416
    10  H   -0.133705
    11  H    0.023179
    12  H    0.255046
    13  H    0.087892
    14  H   -0.188155
 Sum of Mulliken charges =   0.00000
 Mulliken charges with hydrogens summed into heavy atoms:
               1
     1  C    0.358036
     2  C   -0.133399
     3  C    0.850582
     4  O   -1.293181
     5  C   -0.724773
     6  N    0.695163
     7  C    0.247572
 Electronic spatial extent (au):  <R**2>=            673.0376
 Charge=              0.0000 electrons
 Dipole moment (field-independent basis, Debye):
    X=             -1.2226    Y=             -2.7953    Z=             -0.2486  Tot=              3.0611

 Test job not archived.
 1\1\GINC-SE060\SP\RHF\Aug-CC-pVDZ\C5H7N1O1\OHZDE\09-Apr-2025\0\\#t hf 
 aug-cc-pvdz iop(5/13=1,5/36=2,99/5=2) pseudo=read geom=check guess=(re
 ad,tcheck) scf=(maxcycle=1)\\title\\0,1\C,0,-1.33558335,-0.44382068,0.
 41004834\C,0,-0.76200166,0.52024283,-0.67741341\C,0,0.44422561,1.37519
 088,0.07242361\O,0,0.82216246,0.83922189,1.20227604\C,0,1.80743554,-1.
 20931495,0.50808754\N,0,1.29065574,-1.67299334,-0.41052586\C,0,-0.7242
 1588,-0.86205412,-0.78326802\H,0,-0.63475465,-0.1829545,1.24908423\H,0
 ,-2.35190045,-0.7352017,0.64888616\H,0,-1.25666316,1.09737698,-1.45092
 922\H,0,-0.01358409,2.3755372,0.15663002\H,0,1.20634891,1.39057609,-0.
 73345805\H,0,2.37434577,-0.87779737,1.34880327\H,0,-0.8866598,-1.60855
 322,-1.53991964\\Version=ES64L-G16RevC.01\State=1-A\HF=-322.8645739\RM
 SD=1.376e-02\Dipole=-0.8369693,-0.5854631,-0.6380765\Quadrupole=4.7857
 731,-3.7139208,-1.0718522,-0.1381102,3.5453474,-4.1439447\PG=C01 [X(C5
 H7N1O1)]\\@


 ONE THORN OF EXPERIENCE IS WORTH A WHOLE WILDERNESS OF
 WARNING....  LOWELL - AMONG MY BOOKS
 Job cpu time:       0 days  0 hours  1 minutes  3.8 seconds.
 Elapsed time:       0 days  0 hours  0 minutes  5.0 seconds.
 File lengths (MBytes):  RWF=     10 Int=      0 D2E=      0 Chk=      7 Scr=      1
 Normal termination of Gaussian 16 at Wed Apr  9 03:39:37 2025.
