 Entering Gaussian System, Link 0=g16
 Input=Grambow2020_wb97xd3_008351_reverse_mol2.gjf
 Output=Grambow2020_wb97xd3_008351_reverse_mol2.log
 Initial command:
 /arc/software/Gaussian/g16.c01/l1.exe "/tmp/slurm/4882096/Gau-3717973.inp" -scrdir="/tmp/slurm/4882096/"
 Entering Link 1 = /arc/software/Gaussian/g16.c01/l1.exe PID=   3717974.
  
 Copyright (c) 1988-2019, Gaussian, Inc.  All Rights Reserved.
  
 This is part of the Gaussian(R) 16 program.  It is based on
 the Gaussian(R) 09 system (copyright 2009, Gaussian, Inc.),
 the Gaussian(R) 03 system (copyright 2003, Gaussian, Inc.),
 the Gaussian(R) 98 system (copyright 1998, Gaussian, Inc.),
 the Gaussian(R) 94 system (copyright 1995, Gaussian, Inc.),
 the Gaussian 92(TM) system (copyright 1992, Gaussian, Inc.),
 the Gaussian 90(TM) system (copyright 1990, Gaussian, Inc.),
 the Gaussian 88(TM) system (copyright 1988, Gaussian, Inc.),
 the Gaussian 86(TM) system (copyright 1986, Carnegie Mellon
 University), and the Gaussian 82(TM) system (copyright 1983,
 Carnegie Mellon University). Gaussian is a federally registered
 trademark of Gaussian, Inc.
  
 This software contains proprietary and confidential information,
 including trade secrets, belonging to Gaussian, Inc.
  
 This software is provided under written license and may be
 used, copied, transmitted, or stored only in accord with that
 written license.
  
 The following legend is applicable only to US Government
 contracts under FAR:
  
                    RESTRICTED RIGHTS LEGEND
  
 Use, reproduction and disclosure by the US Government is
 subject to restrictions as set forth in subparagraphs (a)
 and (c) of the Commercial Computer Software - Restricted
 Rights clause in FAR 52.227-19.
  
 Gaussian, Inc.
 340 Quinnipiac St., Bldg. 40, Wallingford CT 06492
  
  
 ---------------------------------------------------------------
 Warning -- This program may not be used in any manner that
 competes with the business of Gaussian, Inc. or will provide
 assistance to any competitor of Gaussian, Inc.  The licensee
 of this program is prohibited from giving any competitor of
 Gaussian, Inc. access to this program.  By using this program,
 the user acknowledges that Gaussian, Inc. is engaged in the
 business of creating and licensing software in the field of
 computational chemistry and represents and warrants to the
 licensee that it is not a competitor of Gaussian, Inc. and that
 it will not use this program in any manner prohibited above.
 ---------------------------------------------------------------
  

 Cite this work as:
 Gaussian 16, Revision C.01,
 M. J. Frisch, G. W. Trucks, H. B. Schlegel, G. E. Scuseria, 
 M. A. Robb, J. R. Cheeseman, G. Scalmani, V. Barone, 
 G. A. Petersson, H. Nakatsuji, X. Li, M. Caricato, A. V. Marenich, 
 J. Bloino, B. G. Janesko, R. Gomperts, B. Mennucci, H. P. Hratchian, 
 J. V. Ortiz, A. F. Izmaylov, J. L. Sonnenberg, D. Williams-Young, 
 F. Ding, F. Lipparini, F. Egidi, J. Goings, B. Peng, A. Petrone, 
 T. Henderson, D. Ranasinghe, V. G. Zakrzewski, J. Gao, N. Rega, 
 G. Zheng, W. Liang, M. Hada, M. Ehara, K. Toyota, R. Fukuda, 
 J. Hasegawa, M. Ishida, T. Nakajima, Y. Honda, O. Kitao, H. Nakai, 
 T. Vreven, K. Throssell, J. A. Montgomery, Jr., J. E. Peralta, 
 F. Ogliaro, M. J. Bearpark, J. J. Heyd, E. N. Brothers, K. N. Kudin, 
 V. N. Staroverov, T. A. Keith, R. Kobayashi, J. Normand, 
 K. Raghavachari, A. P. Rendell, J. C. Burant, S. S. Iyengar, 
 J. Tomasi, M. Cossi, J. M. Millam, M. Klene, C. Adamo, R. Cammi, 
 J. W. Ochterski, R. L. Martin, K. Morokuma, O. Farkas, 
 J. B. Foresman, and D. J. Fox, Gaussian, Inc., Wallingford CT, 2019.
 
 ******************************************
 Gaussian 16:  ES64L-G16RevC.01  3-Jul-2019
                 9-Apr-2025 
 ******************************************
 %nprocs=16
 Will use up to   16 processors via shared memory.
 %mem=30GB
 %chk=Grambow2020_wb97xd3_008351_reverse_mol2.chk
 ----------------------------------------------------------------------
 #t hf aug-cc-pvdz symm=none int=(grid=ultrafine) guess=(read,tcheck) s
 table=(opt,rrhf)
 ----------------------------------------------------------------------
 -----
 title
 -----
 Symbolic Z-matrix:
 Charge =  0 Multiplicity = 1
 O                     0.388    -1.06641   2.84335 
 C                     1.11087  -0.84387   1.70778 
 C                    -1.60855  -0.73212  -1.85412 
 C                    -0.8212    0.23288  -1.49145 
 C                    -0.02854   1.20154  -1.11855 
 C                     0.98178   0.16515   0.89398 
 C                     0.8573    1.16535   0.06037 
 H                    -0.25545  -0.35997   2.94419 
 H                     1.84364  -1.62417   1.53884 
 H                    -2.62718  -0.7911   -1.48665 
 H                    -1.26985  -1.50789  -2.5318 
 H                    -0.01278   2.10841  -1.71481 
 H                     1.45014   2.06169   0.22627 
 
                    Distance matrix (angstroms):
                    1          2          3          4          5
     1  O    0.000000
     2  C    1.364398   0.000000
     3  C    5.115094   4.482729   0.000000
     4  C    4.684100   3.889390   1.297179   0.000000
     5  C    4.584073   3.670161   2.603174   1.306009   0.000000
     6  C    2.381042   1.302712   3.881619   2.990920   2.478936
     7  C    3.598049   2.610595   3.653228   2.468807   1.475086
     8  H    0.960860   1.905179   4.999315   4.510703   4.358401
     9  H    2.032667   1.083680   4.921941   4.442144   4.307132
    10  H    5.283556   4.917332   1.084494   2.076081   3.295302
    11  H    5.642301   4.907418   1.084334   2.076991   3.298349
    12  H    5.569280   4.657537   3.261050   2.054512   1.085442
    13  H    4.214528   3.279064   4.635622   3.384391   2.175984
                    6          7          8          9         10
     6  C    0.000000
     7  C    1.307973   0.000000
     8  H    2.451505   3.446919   0.000000
     9  H    2.088136   3.307588   2.824783   0.000000
    10  H    4.427911   4.285155   5.044131   5.462212   0.000000
    11  H    4.427736   4.288390   5.686224   5.126146   1.857009
    12  H    3.401644   2.190359   5.278073   5.288162   3.910784
    13  H    2.064476   1.087389   4.020022   3.932337   5.262796
                   11         12         13
    11  H    0.000000
    12  H    3.914750   0.000000
    13  H    5.267560   2.431075   0.000000
 Symmetry turned off by external request.
 Rotational constants (GHZ):           4.6763775           1.4425399           1.1658431
   215 basis functions,   367 primitive gaussians,   229 cartesian basis functions
    25 alpha electrons       25 beta electrons
       nuclear repulsion energy       241.8503239180 Hartrees.
 NAtoms=   13 NActive=   13 NUniq=   13 SFac= 1.00D+00 NAtFMM=   60 NAOKFM=F Big=F
 ExpMin= 2.97D-02 ExpMax= 1.17D+04 ExpMxC= 4.01D+02 IAcc=3 IRadAn=         5 AccDes= 0.00D+00
 Harris functional with IExCor=  205 and IRadAn=       5 diagonalized for initial guess.
 HarFok:  IExCor=  205 AccDes= 0.00D+00 IRadAn=         5 IDoV= 1 UseB2=F ITyADJ=14
 ICtDFT=  3500011 ScaDFX=  1.000000  1.000000  1.000000  1.000000
 FoFCou: FMM=F IPFlag=           0 FMFlag=      100000 FMFlg1=           0
         NFxFlg=           0 DoJE=T BraDBF=F KetDBF=T FulRan=T
         wScrn=  0.000000 ICntrl=       500 IOpCl=  0 I1Cent=   200000004 NGrid=           0
         NMat0=    1 NMatS0=      1 NMatT0=    0 NMatD0=    1 NMtDS0=    0 NMtDT0=    0
 Symmetry not used in FoFCou.
 SCF Done:  E(RHF) =  -305.465346299     A.U. after   13 cycles
            NFock= 13  Conv=0.96D-08     -V/T= 2.0007

 **********************************************************************

            Population analysis using the SCF Density.

 **********************************************************************

 Alpha  occ. eigenvalues --  -20.59965 -11.31057 -11.26881 -11.26696 -11.25591
 Alpha  occ. eigenvalues --  -11.24874 -11.24261  -1.40685  -1.11667  -1.05642
 Alpha  occ. eigenvalues --   -0.99133  -0.91759  -0.79582  -0.73703  -0.66903
 Alpha  occ. eigenvalues --   -0.65116  -0.62918  -0.61297  -0.59782  -0.57512
 Alpha  occ. eigenvalues --   -0.56149  -0.45104  -0.38620  -0.34897  -0.32931
 Alpha virt. eigenvalues --    0.03370   0.04157   0.04523   0.04637   0.05909
 Alpha virt. eigenvalues --    0.06162   0.08782   0.09634   0.10107   0.11348
 Alpha virt. eigenvalues --    0.11737   0.12363   0.13688   0.14238   0.15187
 Alpha virt. eigenvalues --    0.15581   0.16022   0.16555   0.17155   0.17538
 Alpha virt. eigenvalues --    0.18251   0.19193   0.19762   0.20030   0.20567
 Alpha virt. eigenvalues --    0.21028   0.21123   0.22663   0.24656   0.25584
 Alpha virt. eigenvalues --    0.25844   0.26749   0.28638   0.29068   0.29989
 Alpha virt. eigenvalues --    0.30661   0.31449   0.33419   0.35041   0.36216
 Alpha virt. eigenvalues --    0.37002   0.38458   0.39514   0.40140   0.41198
 Alpha virt. eigenvalues --    0.41970   0.42857   0.44320   0.44749   0.47114
 Alpha virt. eigenvalues --    0.47591   0.48984   0.50117   0.50426   0.50632
 Alpha virt. eigenvalues --    0.52158   0.52482   0.53272   0.56907   0.57220
 Alpha virt. eigenvalues --    0.57842   0.58397   0.59128   0.60078   0.61285
 Alpha virt. eigenvalues --    0.62060   0.63182   0.64129   0.65093   0.65607
 Alpha virt. eigenvalues --    0.67315   0.67557   0.68271   0.69310   0.70812
 Alpha virt. eigenvalues --    0.72553   0.73192   0.74566   0.76194   0.76539
 Alpha virt. eigenvalues --    0.77462   0.77737   0.78685   0.80054   0.81838
 Alpha virt. eigenvalues --    0.83303   0.85234   0.86796   0.89451   0.91263
 Alpha virt. eigenvalues --    0.91601   0.92819   0.95959   0.97222   0.98901
 Alpha virt. eigenvalues --    1.00379   1.02907   1.04857   1.05879   1.06901
 Alpha virt. eigenvalues --    1.07981   1.10479   1.11560   1.11886   1.13663
 Alpha virt. eigenvalues --    1.14460   1.21059   1.21813   1.22661   1.24581
 Alpha virt. eigenvalues --    1.24895   1.28832   1.33490   1.38155   1.38854
 Alpha virt. eigenvalues --    1.41924   1.45059   1.50745   1.52828   1.57187
 Alpha virt. eigenvalues --    1.58269   1.59920   1.60445   1.60854   1.61770
 Alpha virt. eigenvalues --    1.62945   1.67853   1.70333   1.71752   1.72059
 Alpha virt. eigenvalues --    1.72558   1.73755   1.75775   1.79299   1.79941
 Alpha virt. eigenvalues --    1.80821   1.85024   1.85302   1.86611   1.88157
 Alpha virt. eigenvalues --    1.92376   1.94527   1.98031   1.99175   1.99922
 Alpha virt. eigenvalues --    2.02993   2.05652   2.08010   2.11468   2.11925
 Alpha virt. eigenvalues --    2.14232   2.16178   2.17860   2.21145   2.25187
 Alpha virt. eigenvalues --    2.25782   2.27250   2.28405   2.29943   2.33618
 Alpha virt. eigenvalues --    2.33766   2.38489   2.42319   2.43922   2.49640
 Alpha virt. eigenvalues --    2.51989   2.58810   2.64852   2.70793   2.77799
 Alpha virt. eigenvalues --    2.84459   2.89351   2.91547   2.93562   2.98624
 Alpha virt. eigenvalues --    3.01401   3.02690   3.09526   3.17909   3.25440
 Alpha virt. eigenvalues --    3.36523   3.46818   3.60035   3.67839   3.73507
 Alpha virt. eigenvalues --    3.74904   3.78691   3.88577   3.99390   4.36852
          Condensed to atoms (all electrons):
 Mulliken charges:
               1
     1  O   -0.746335
     2  C    1.331242
     3  C    0.748690
     4  C   -0.684097
     5  C    0.803476
     6  C   -0.704262
     7  C    0.636814
     8  H    0.150783
     9  H   -0.275026
    10  H   -0.227158
    11  H   -0.226297
    12  H   -0.396791
    13  H   -0.411037
 Sum of Mulliken charges =  -0.00000
 Mulliken charges with hydrogens summed into heavy atoms:
               1
     1  O   -0.595553
     2  C    1.056216
     3  C    0.295234
     4  C   -0.684097
     5  C    0.406684
     6  C   -0.704262
     7  C    0.225778
 Electronic spatial extent (au):  <R**2>=            991.6315
 Charge=              0.0000 electrons
 Dipole moment (field-independent basis, Debye):
    X=             -0.5895    Y=              0.9052    Z=             -0.7613  Tot=              1.3216
 NROrb=    215 NOA=    25 NOB=    25 NVA=   190 NVB=   190

 **** Warning!!: The largest alpha MO coefficient is  0.69862700D+02

    12 initial guesses have been made.
 Iteration     1 Dimension    12 NMult     0 NNew     12
 New state      1 was old state      2
 Iteration     2 Dimension    24 NMult    12 NNew     12
 Iteration     3 Dimension    27 NMult    24 NNew      3
 Iteration     4 Dimension    30 NMult    27 NNew      3
 Iteration     5 Dimension    33 NMult    30 NNew      3
 Iteration     6 Dimension    36 NMult    33 NNew      3
 ***********************************************************************
 Stability analysis using <AA,BB:AA,BB> singles matrix:
 ***********************************************************************
 Ground to excited state transition densities written to RWF  633

 Eigenvectors of the stability matrix:
 
 Excited state symmetry could not be determined.
 Eigenvector   1:      Singlet-?Sym  Eigenvalue= 0.1802234  <S**2>=0.000
      24 -> 26         0.11359
      24 -> 28        -0.18061
      24 -> 31         0.11772
      24 -> 32         0.48445
      24 -> 33        -0.20600
      24 -> 38         0.14456
      24 -> 47        -0.15198
      24 -> 57        -0.14391
 The wavefunction is stable under the perturbations considered.
 The wavefunction is already stable.

 **********************************************************************

            Population analysis using the SCF Density.

 **********************************************************************

 Alpha  occ. eigenvalues --  -20.59965 -11.31057 -11.26881 -11.26696 -11.25591
 Alpha  occ. eigenvalues --  -11.24874 -11.24261  -1.40685  -1.11667  -1.05642
 Alpha  occ. eigenvalues --   -0.99133  -0.91759  -0.79582  -0.73703  -0.66903
 Alpha  occ. eigenvalues --   -0.65116  -0.62918  -0.61297  -0.59782  -0.57512
 Alpha  occ. eigenvalues --   -0.56149  -0.45104  -0.38620  -0.34897  -0.32931
 Alpha virt. eigenvalues --    0.03370   0.04157   0.04523   0.04637   0.05909
 Alpha virt. eigenvalues --    0.06162   0.08782   0.09634   0.10107   0.11348
 Alpha virt. eigenvalues --    0.11737   0.12363   0.13688   0.14238   0.15187
 Alpha virt. eigenvalues --    0.15581   0.16022   0.16555   0.17155   0.17538
 Alpha virt. eigenvalues --    0.18251   0.19193   0.19762   0.20030   0.20567
 Alpha virt. eigenvalues --    0.21028   0.21123   0.22663   0.24656   0.25584
 Alpha virt. eigenvalues --    0.25844   0.26749   0.28638   0.29068   0.29989
 Alpha virt. eigenvalues --    0.30661   0.31449   0.33419   0.35041   0.36216
 Alpha virt. eigenvalues --    0.37002   0.38458   0.39514   0.40140   0.41198
 Alpha virt. eigenvalues --    0.41970   0.42857   0.44320   0.44749   0.47114
 Alpha virt. eigenvalues --    0.47591   0.48984   0.50117   0.50426   0.50632
 Alpha virt. eigenvalues --    0.52158   0.52482   0.53272   0.56907   0.57220
 Alpha virt. eigenvalues --    0.57842   0.58397   0.59128   0.60078   0.61285
 Alpha virt. eigenvalues --    0.62060   0.63182   0.64129   0.65093   0.65607
 Alpha virt. eigenvalues --    0.67315   0.67557   0.68271   0.69310   0.70812
 Alpha virt. eigenvalues --    0.72553   0.73192   0.74566   0.76194   0.76539
 Alpha virt. eigenvalues --    0.77462   0.77737   0.78685   0.80054   0.81838
 Alpha virt. eigenvalues --    0.83303   0.85234   0.86796   0.89451   0.91263
 Alpha virt. eigenvalues --    0.91601   0.92819   0.95959   0.97222   0.98901
 Alpha virt. eigenvalues --    1.00379   1.02907   1.04857   1.05879   1.06901
 Alpha virt. eigenvalues --    1.07981   1.10479   1.11560   1.11886   1.13663
 Alpha virt. eigenvalues --    1.14460   1.21059   1.21813   1.22661   1.24581
 Alpha virt. eigenvalues --    1.24895   1.28832   1.33490   1.38155   1.38854
 Alpha virt. eigenvalues --    1.41924   1.45059   1.50745   1.52828   1.57187
 Alpha virt. eigenvalues --    1.58269   1.59920   1.60445   1.60854   1.61770
 Alpha virt. eigenvalues --    1.62945   1.67853   1.70333   1.71752   1.72059
 Alpha virt. eigenvalues --    1.72558   1.73755   1.75775   1.79299   1.79941
 Alpha virt. eigenvalues --    1.80821   1.85024   1.85302   1.86611   1.88157
 Alpha virt. eigenvalues --    1.92376   1.94527   1.98031   1.99175   1.99922
 Alpha virt. eigenvalues --    2.02993   2.05652   2.08010   2.11468   2.11925
 Alpha virt. eigenvalues --    2.14232   2.16178   2.17860   2.21145   2.25187
 Alpha virt. eigenvalues --    2.25782   2.27250   2.28405   2.29943   2.33618
 Alpha virt. eigenvalues --    2.33766   2.38489   2.42319   2.43922   2.49640
 Alpha virt. eigenvalues --    2.51989   2.58810   2.64852   2.70793   2.77799
 Alpha virt. eigenvalues --    2.84459   2.89351   2.91547   2.93562   2.98624
 Alpha virt. eigenvalues --    3.01401   3.02690   3.09526   3.17909   3.25440
 Alpha virt. eigenvalues --    3.36523   3.46818   3.60035   3.67839   3.73507
 Alpha virt. eigenvalues --    3.74904   3.78691   3.88577   3.99390   4.36852
          Condensed to atoms (all electrons):
 Mulliken charges:
               1
     1  O   -0.746335
     2  C    1.331242
     3  C    0.748690
     4  C   -0.684097
     5  C    0.803476
     6  C   -0.704262
     7  C    0.636814
     8  H    0.150783
     9  H   -0.275026
    10  H   -0.227158
    11  H   -0.226297
    12  H   -0.396791
    13  H   -0.411037
 Sum of Mulliken charges =  -0.00000
 Mulliken charges with hydrogens summed into heavy atoms:
               1
     1  O   -0.595553
     2  C    1.056216
     3  C    0.295234
     4  C   -0.684097
     5  C    0.406684
     6  C   -0.704262
     7  C    0.225778
 Electronic spatial extent (au):  <R**2>=            991.6315
 Charge=              0.0000 electrons
 Dipole moment (field-independent basis, Debye):
    X=             -0.5895    Y=              0.9052    Z=             -0.7613  Tot=              1.3216
 Unable to Open any file for archive entry.
 1\1\GINC-SE168\Stability\RHF\Aug-CC-pVDZ\C6H6O1\OHZDE\09-Apr-2025\0\\#
 t hf aug-cc-pvdz symm=none int=(grid=ultrafine) guess=(read,tcheck) st
 able=(opt,rrhf)\\title\\0,1\O,0,0.38799873,-1.06640664,2.84334699\C,0,
 1.11086918,-0.84386869,1.7077776\C,0,-1.60854753,-0.73211917,-1.854124
 65\C,0,-0.82120065,0.2328813,-1.49145193\C,0,-0.02854003,1.20153749,-1
 .11855305\C,0,0.98178292,0.16515115,0.89397589\C,0,0.85730355,1.165347
 07,0.06036618\H,0,-0.25545442,-0.35997087,2.94418736\H,0,1.84363629,-1
 .62417146,1.53883521\H,0,-2.62717951,-0.79109655,-1.48664917\H,0,-1.26
 984761,-1.50788938,-2.53179969\H,0,-0.01278445,2.10840579,-1.71481276\
 H,0,1.45013754,2.06169396,0.22627003\\Version=ES64L-G16RevC.01\HF=-305
 .4653463\RMSD=9.629e-09\Dipole=-0.2319193,0.3561487,-0.2995114\Quadrup
 ole=0.9491437,1.377008,-2.3261518,0.8807266,-1.1568791,2.6654687\PG=Un
 known\\@
 The archive entry for this job was punched.


 WERE I TO AWAIT PERFECTION, MY BOOK WOULD NEVER BE FINISHED.
                                    -- HISTORY OF CHINESE WRITING

                                       TAI T'UNG, 13TH CENTURY
 Job cpu time:       0 days  0 hours  5 minutes  8.7 seconds.
 Elapsed time:       0 days  0 hours  0 minutes 22.6 seconds.
 File lengths (MBytes):  RWF=    216 Int=      0 D2E=      0 Chk=      7 Scr=      1
 Normal termination of Gaussian 16 at Wed Apr  9 18:55:37 2025.
 Initial command:
 /arc/software/Gaussian/g16.c01/l1.exe "/tmp/slurm/4882096/Gau-3717973.inp" -scrdir="/tmp/slurm/4882096/"
 Entering Link 1 = /arc/software/Gaussian/g16.c01/l1.exe PID=   3718187.
  
 Copyright (c) 1988-2019, Gaussian, Inc.  All Rights Reserved.
  
 This is part of the Gaussian(R) 16 program.  It is based on
 the Gaussian(R) 09 system (copyright 2009, Gaussian, Inc.),
 the Gaussian(R) 03 system (copyright 2003, Gaussian, Inc.),
 the Gaussian(R) 98 system (copyright 1998, Gaussian, Inc.),
 the Gaussian(R) 94 system (copyright 1995, Gaussian, Inc.),
 the Gaussian 92(TM) system (copyright 1992, Gaussian, Inc.),
 the Gaussian 90(TM) system (copyright 1990, Gaussian, Inc.),
 the Gaussian 88(TM) system (copyright 1988, Gaussian, Inc.),
 the Gaussian 86(TM) system (copyright 1986, Carnegie Mellon
 University), and the Gaussian 82(TM) system (copyright 1983,
 Carnegie Mellon University). Gaussian is a federally registered
 trademark of Gaussian, Inc.
  
 This software contains proprietary and confidential information,
 including trade secrets, belonging to Gaussian, Inc.
  
 This software is provided under written license and may be
 used, copied, transmitted, or stored only in accord with that
 written license.
  
 The following legend is applicable only to US Government
 contracts under FAR:
  
                    RESTRICTED RIGHTS LEGEND
  
 Use, reproduction and disclosure by the US Government is
 subject to restrictions as set forth in subparagraphs (a)
 and (c) of the Commercial Computer Software - Restricted
 Rights clause in FAR 52.227-19.
  
 Gaussian, Inc.
 340 Quinnipiac St., Bldg. 40, Wallingford CT 06492
  
  
 ---------------------------------------------------------------
 Warning -- This program may not be used in any manner that
 competes with the business of Gaussian, Inc. or will provide
 assistance to any competitor of Gaussian, Inc.  The licensee
 of this program is prohibited from giving any competitor of
 Gaussian, Inc. access to this program.  By using this program,
 the user acknowledges that Gaussian, Inc. is engaged in the
 business of creating and licensing software in the field of
 computational chemistry and represents and warrants to the
 licensee that it is not a competitor of Gaussian, Inc. and that
 it will not use this program in any manner prohibited above.
 ---------------------------------------------------------------
  

 Cite this work as:
 Gaussian 16, Revision C.01,
 M. J. Frisch, G. W. Trucks, H. B. Schlegel, G. E. Scuseria, 
 M. A. Robb, J. R. Cheeseman, G. Scalmani, V. Barone, 
 G. A. Petersson, H. Nakatsuji, X. Li, M. Caricato, A. V. Marenich, 
 J. Bloino, B. G. Janesko, R. Gomperts, B. Mennucci, H. P. Hratchian, 
 J. V. Ortiz, A. F. Izmaylov, J. L. Sonnenberg, D. Williams-Young, 
 F. Ding, F. Lipparini, F. Egidi, J. Goings, B. Peng, A. Petrone, 
 T. Henderson, D. Ranasinghe, V. G. Zakrzewski, J. Gao, N. Rega, 
 G. Zheng, W. Liang, M. Hada, M. Ehara, K. Toyota, R. Fukuda, 
 J. Hasegawa, M. Ishida, T. Nakajima, Y. Honda, O. Kitao, H. Nakai, 
 T. Vreven, K. Throssell, J. A. Montgomery, Jr., J. E. Peralta, 
 F. Ogliaro, M. J. Bearpark, J. J. Heyd, E. N. Brothers, K. N. Kudin, 
 V. N. Staroverov, T. A. Keith, R. Kobayashi, J. Normand, 
 K. Raghavachari, A. P. Rendell, J. C. Burant, S. S. Iyengar, 
 J. Tomasi, M. Cossi, J. M. Millam, M. Klene, C. Adamo, R. Cammi, 
 J. W. Ochterski, R. L. Martin, K. Morokuma, O. Farkas, 
 J. B. Foresman, and D. J. Fox, Gaussian, Inc., Wallingford CT, 2019.
 
 ******************************************
 Gaussian 16:  ES64L-G16RevC.01  3-Jul-2019
                 9-Apr-2025 
 ******************************************
 %nprocs=16
 Will use up to   16 processors via shared memory.
 %mem=30GB
 %chk=Grambow2020_wb97xd3_008351_reverse_mol2.chk
 ----------------------------------------------------------------------
 #t hf aug-cc-pvdz iop(5/13=1,5/36=2,99/5=2) pseudo=read geom=check gue
 ss=(read,tcheck) scf=(maxcycle=1)
 ----------------------------------------------------------------------
 -----
 title
 -----
 Structure from the checkpoint file:  "Grambow2020_wb97xd3_008351_reverse_mol2.chk"
 Charge =  0 Multiplicity = 1
 Z-Matrix found in chk file.
 O,0,0.38799873,-1.06640664,2.84334699
 C,0,1.11086918,-0.84386869,1.7077776
 C,0,-1.60854753,-0.73211917,-1.85412465
 C,0,-0.82120065,0.2328813,-1.49145193
 C,0,-0.02854003,1.20153749,-1.11855305
 C,0,0.98178292,0.16515115,0.89397589
 C,0,0.85730355,1.16534707,0.06036618
 H,0,-0.25545442,-0.35997087,2.94418736
 H,0,1.84363629,-1.62417146,1.53883521
 H,0,-2.62717951,-0.79109655,-1.48664917
 H,0,-1.26984761,-1.50788938,-2.53179969
 H,0,-0.01278445,2.10840579,-1.71481276
 H,0,1.45013754,2.06169396,0.22627003
 Recover connectivity data from disk.
                    Distance matrix (angstroms):
                    1          2          3          4          5
     1  O    0.000000
     2  C    1.364398   0.000000
     3  C    5.115094   4.482729   0.000000
     4  C    4.684100   3.889390   1.297179   0.000000
     5  C    4.584073   3.670161   2.603174   1.306009   0.000000
     6  C    2.381042   1.302712   3.881619   2.990920   2.478936
     7  C    3.598049   2.610595   3.653228   2.468807   1.475086
     8  H    0.960860   1.905179   4.999315   4.510703   4.358401
     9  H    2.032667   1.083680   4.921941   4.442144   4.307132
    10  H    5.283556   4.917332   1.084494   2.076081   3.295302
    11  H    5.642301   4.907418   1.084334   2.076991   3.298349
    12  H    5.569280   4.657537   3.261050   2.054512   1.085442
    13  H    4.214528   3.279064   4.635622   3.384391   2.175984
                    6          7          8          9         10
     6  C    0.000000
     7  C    1.307973   0.000000
     8  H    2.451505   3.446919   0.000000
     9  H    2.088136   3.307588   2.824783   0.000000
    10  H    4.427911   4.285155   5.044131   5.462212   0.000000
    11  H    4.427736   4.288390   5.686224   5.126146   1.857009
    12  H    3.401644   2.190359   5.278073   5.288162   3.910784
    13  H    2.064476   1.087389   4.020022   3.932337   5.262796
                   11         12         13
    11  H    0.000000
    12  H    3.914750   0.000000
    13  H    5.267560   2.431075   0.000000
 Framework group  C1[X(C6H6O)]
 Deg. of freedom    33
                         Standard orientation:                         
 ---------------------------------------------------------------------
 Center     Atomic      Atomic             Coordinates (Angstroms)
 Number     Number       Type             X           Y           Z
 ---------------------------------------------------------------------
      1          8           0       -2.677989   -0.847654   -0.394622
      2          6           0       -1.900039   -0.177309    0.503719
      3          6           0        2.383067   -1.426585    0.068777
      4          6           0        1.949634   -0.209720   -0.049742
      5          6           0        1.505717    1.012535   -0.170949
      6          6           0       -0.910121    0.622214    0.224647
      7          6           0        0.093868    1.418468   -0.037609
      8          1           0       -2.367167   -0.649425   -1.281948
      9          1           0       -2.200529   -0.379897    1.525005
     10          1           0        2.443299   -2.085177   -0.790732
     11          1           0        2.694163   -1.820176    1.030071
     12          1           0        2.222517    1.798451   -0.387094
     13          1           0       -0.101124    2.479834   -0.171377
 ---------------------------------------------------------------------
 Rotational constants (GHZ):           4.6763775           1.4425399           1.1658431
 ======================================================================================================
                                       Pseudopotential Parameters
 ======================================================================================================
  Center     Atomic      Valence      Angular      Power
  Number     Number     Electrons     Momentum     of R      Exponent        Coefficient   SO-Coeffient
 ======================================================================================================
    1          8            8
                                      G and up 
                                                     0        0.0000010        0.00049668    0.00000000
                                                     2        0.1200000       -0.01803391    0.00000000
                                                     2        0.1400000        0.04014195    0.00000000
                                                     2        0.2000000       -0.02692147    0.00000000
                                                     2        0.2800000       -0.04241843    0.00000000
                                                     2        0.4000000        0.15412145    0.00000000
                                                     2        0.7000000       -0.40587006    0.00000000
                                                     2        1.1000000        1.75666647    0.00000000
                                      S - G
                                                     0        0.0000010       -0.01088195    0.00000000
                                                     2        0.1200000        0.09867335    0.00000000
                                                     2        0.2400000       -0.08484177    0.00000000
                                                     2        0.6000000       -1.39011554    0.00000000
                                                     2        2.5000000        1.36225910    0.00000000
                                      P - G
                                                     0        0.0000010        0.05874028    0.00000000
                                                     2        0.1200000       -0.11700340    0.00000000
                                                     2        0.1600000        0.08847775    0.00000000
                                                     2        0.3000000        0.04709907    0.00000000
                                                     2        1.2000000       -1.80388338    0.00000000
                                      D - G
                                                     0        0.0000010       -0.00541262    0.00000000
                                                     2        0.1200000       -0.26547906    0.00000000
                                                     2        0.1600000        1.04289661    0.00000000
                                                     2        0.2400000       -1.92800913    0.00000000
                                                     2        0.4000000        2.26691633    0.00000000
                                                     2        0.7000000       -1.97391482    0.00000000
                                      F - G
                                                     0        0.0000010       -0.02604870    0.00000000
                                                     2        0.1200000        0.37362552    0.00000000
                                                     2        0.1600000       -1.43526367    0.00000000
                                                     2        0.2200000        1.76778079    0.00000000
                                                     2        0.5000000       -1.90846303    0.00000000
    2          6            6
                                      G and up 
                                                     0        0.0000010       -0.00007288    0.00000000
                                                     2        0.1200000        0.10466671    0.00000000
                                                     2        0.1400000       -0.65716157    0.00000000
                                                     2        0.1600000        1.18890794    0.00000000
                                                     2        0.2000000       -1.25772850    0.00000000
                                                     2        0.2600000        1.01188378    0.00000000
                                                     2        0.4000000       -1.09380874    0.00000000
                                                     2        0.5000000        0.96944888    0.00000000
                                                     2        1.0000000       -0.79256938    0.00000000
                                                     2        3.0000000        1.06443276    0.00000000
                                      S - G
                                                     0        0.0000010       -0.00635295    0.00000000
                                                     2        0.1200000        0.16918955    0.00000000
                                                     2        0.1600000       -0.38862576    0.00000000
                                                     2        0.2800000        0.25638263    0.00000000
                                                     2        0.5000000        0.29628419    0.00000000
                                                     2        0.9000000       -0.28791512    0.00000000
                                      P - G
                                                     0        0.0000010       -0.04756931    0.00000000
                                                     2        0.1200000        0.28430375    0.00000000
                                                     2        0.1600000       -0.69640032    0.00000000
                                                     2        0.2600000        1.13005668    0.00000000
                                                     2        0.4000000       -1.31433324    0.00000000
                                                     2        0.7000000        0.91526469    0.00000000
                                      D - G
                                                     0        0.0000010       -0.11496411    0.00000000
                                                     2        0.1200000        0.16620776    0.00000000
                                                     2        0.1800000       -0.30959819    0.00000000
                                                     2        0.3000000        0.16621458    0.00000000
                                                     2        0.6000000        0.27350556    0.00000000
                                      F - G
                                                     0        0.0000010        0.12037550    0.00000000
                                                     2        0.1200000       -0.48737077    0.00000000
                                                     2        0.1400000        0.58315350    0.00000000
                                                     2        0.3000000        0.00005188    0.00000000
                                                     2        0.5000000       -1.16063549    0.00000000
                                                     2        0.8000000        2.09053308    0.00000000
    3          6            6
                                      G and up 
                                                     0        0.0000010       -0.00007288    0.00000000
                                                     2        0.1200000        0.10466671    0.00000000
                                                     2        0.1400000       -0.65716157    0.00000000
                                                     2        0.1600000        1.18890794    0.00000000
                                                     2        0.2000000       -1.25772850    0.00000000
                                                     2        0.2600000        1.01188378    0.00000000
                                                     2        0.4000000       -1.09380874    0.00000000
                                                     2        0.5000000        0.96944888    0.00000000
                                                     2        1.0000000       -0.79256938    0.00000000
                                                     2        3.0000000        1.06443276    0.00000000
                                      S - G
                                                     0        0.0000010       -0.00635295    0.00000000
                                                     2        0.1200000        0.16918955    0.00000000
                                                     2        0.1600000       -0.38862576    0.00000000
                                                     2        0.2800000        0.25638263    0.00000000
                                                     2        0.5000000        0.29628419    0.00000000
                                                     2        0.9000000       -0.28791512    0.00000000
                                      P - G
                                                     0        0.0000010       -0.04756931    0.00000000
                                                     2        0.1200000        0.28430375    0.00000000
                                                     2        0.1600000       -0.69640032    0.00000000
                                                     2        0.2600000        1.13005668    0.00000000
                                                     2        0.4000000       -1.31433324    0.00000000
                                                     2        0.7000000        0.91526469    0.00000000
                                      D - G
                                                     0        0.0000010       -0.11496411    0.00000000
                                                     2        0.1200000        0.16620776    0.00000000
                                                     2        0.1800000       -0.30959819    0.00000000
                                                     2        0.3000000        0.16621458    0.00000000
                                                     2        0.6000000        0.27350556    0.00000000
                                      F - G
                                                     0        0.0000010        0.12037550    0.00000000
                                                     2        0.1200000       -0.48737077    0.00000000
                                                     2        0.1400000        0.58315350    0.00000000
                                                     2        0.3000000        0.00005188    0.00000000
                                                     2        0.5000000       -1.16063549    0.00000000
                                                     2        0.8000000        2.09053308    0.00000000
    4          6            6
                                      G and up 
                                                     0        0.0000010       -0.00007288    0.00000000
                                                     2        0.1200000        0.10466671    0.00000000
                                                     2        0.1400000       -0.65716157    0.00000000
                                                     2        0.1600000        1.18890794    0.00000000
                                                     2        0.2000000       -1.25772850    0.00000000
                                                     2        0.2600000        1.01188378    0.00000000
                                                     2        0.4000000       -1.09380874    0.00000000
                                                     2        0.5000000        0.96944888    0.00000000
                                                     2        1.0000000       -0.79256938    0.00000000
                                                     2        3.0000000        1.06443276    0.00000000
                                      S - G
                                                     0        0.0000010       -0.00635295    0.00000000
                                                     2        0.1200000        0.16918955    0.00000000
                                                     2        0.1600000       -0.38862576    0.00000000
                                                     2        0.2800000        0.25638263    0.00000000
                                                     2        0.5000000        0.29628419    0.00000000
                                                     2        0.9000000       -0.28791512    0.00000000
                                      P - G
                                                     0        0.0000010       -0.04756931    0.00000000
                                                     2        0.1200000        0.28430375    0.00000000
                                                     2        0.1600000       -0.69640032    0.00000000
                                                     2        0.2600000        1.13005668    0.00000000
                                                     2        0.4000000       -1.31433324    0.00000000
                                                     2        0.7000000        0.91526469    0.00000000
                                      D - G
                                                     0        0.0000010       -0.11496411    0.00000000
                                                     2        0.1200000        0.16620776    0.00000000
                                                     2        0.1800000       -0.30959819    0.00000000
                                                     2        0.3000000        0.16621458    0.00000000
                                                     2        0.6000000        0.27350556    0.00000000
                                      F - G
                                                     0        0.0000010        0.12037550    0.00000000
                                                     2        0.1200000       -0.48737077    0.00000000
                                                     2        0.1400000        0.58315350    0.00000000
                                                     2        0.3000000        0.00005188    0.00000000
                                                     2        0.5000000       -1.16063549    0.00000000
                                                     2        0.8000000        2.09053308    0.00000000
    5          6            6
                                      G and up 
                                                     0        0.0000010       -0.00007288    0.00000000
                                                     2        0.1200000        0.10466671    0.00000000
                                                     2        0.1400000       -0.65716157    0.00000000
                                                     2        0.1600000        1.18890794    0.00000000
                                                     2        0.2000000       -1.25772850    0.00000000
                                                     2        0.2600000        1.01188378    0.00000000
                                                     2        0.4000000       -1.09380874    0.00000000
                                                     2        0.5000000        0.96944888    0.00000000
                                                     2        1.0000000       -0.79256938    0.00000000
                                                     2        3.0000000        1.06443276    0.00000000
                                      S - G
                                                     0        0.0000010       -0.00635295    0.00000000
                                                     2        0.1200000        0.16918955    0.00000000
                                                     2        0.1600000       -0.38862576    0.00000000
                                                     2        0.2800000        0.25638263    0.00000000
                                                     2        0.5000000        0.29628419    0.00000000
                                                     2        0.9000000       -0.28791512    0.00000000
                                      P - G
                                                     0        0.0000010       -0.04756931    0.00000000
                                                     2        0.1200000        0.28430375    0.00000000
                                                     2        0.1600000       -0.69640032    0.00000000
                                                     2        0.2600000        1.13005668    0.00000000
                                                     2        0.4000000       -1.31433324    0.00000000
                                                     2        0.7000000        0.91526469    0.00000000
                                      D - G
                                                     0        0.0000010       -0.11496411    0.00000000
                                                     2        0.1200000        0.16620776    0.00000000
                                                     2        0.1800000       -0.30959819    0.00000000
                                                     2        0.3000000        0.16621458    0.00000000
                                                     2        0.6000000        0.27350556    0.00000000
                                      F - G
                                                     0        0.0000010        0.12037550    0.00000000
                                                     2        0.1200000       -0.48737077    0.00000000
                                                     2        0.1400000        0.58315350    0.00000000
                                                     2        0.3000000        0.00005188    0.00000000
                                                     2        0.5000000       -1.16063549    0.00000000
                                                     2        0.8000000        2.09053308    0.00000000
    6          6            6
                                      G and up 
                                                     0        0.0000010       -0.00007288    0.00000000
                                                     2        0.1200000        0.10466671    0.00000000
                                                     2        0.1400000       -0.65716157    0.00000000
                                                     2        0.1600000        1.18890794    0.00000000
                                                     2        0.2000000       -1.25772850    0.00000000
                                                     2        0.2600000        1.01188378    0.00000000
                                                     2        0.4000000       -1.09380874    0.00000000
                                                     2        0.5000000        0.96944888    0.00000000
                                                     2        1.0000000       -0.79256938    0.00000000
                                                     2        3.0000000        1.06443276    0.00000000
                                      S - G
                                                     0        0.0000010       -0.00635295    0.00000000
                                                     2        0.1200000        0.16918955    0.00000000
                                                     2        0.1600000       -0.38862576    0.00000000
                                                     2        0.2800000        0.25638263    0.00000000
                                                     2        0.5000000        0.29628419    0.00000000
                                                     2        0.9000000       -0.28791512    0.00000000
                                      P - G
                                                     0        0.0000010       -0.04756931    0.00000000
                                                     2        0.1200000        0.28430375    0.00000000
                                                     2        0.1600000       -0.69640032    0.00000000
                                                     2        0.2600000        1.13005668    0.00000000
                                                     2        0.4000000       -1.31433324    0.00000000
                                                     2        0.7000000        0.91526469    0.00000000
                                      D - G
                                                     0        0.0000010       -0.11496411    0.00000000
                                                     2        0.1200000        0.16620776    0.00000000
                                                     2        0.1800000       -0.30959819    0.00000000
                                                     2        0.3000000        0.16621458    0.00000000
                                                     2        0.6000000        0.27350556    0.00000000
                                      F - G
                                                     0        0.0000010        0.12037550    0.00000000
                                                     2        0.1200000       -0.48737077    0.00000000
                                                     2        0.1400000        0.58315350    0.00000000
                                                     2        0.3000000        0.00005188    0.00000000
                                                     2        0.5000000       -1.16063549    0.00000000
                                                     2        0.8000000        2.09053308    0.00000000
    7          6            6
                                      G and up 
                                                     0        0.0000010       -0.00007288    0.00000000
                                                     2        0.1200000        0.10466671    0.00000000
                                                     2        0.1400000       -0.65716157    0.00000000
                                                     2        0.1600000        1.18890794    0.00000000
                                                     2        0.2000000       -1.25772850    0.00000000
                                                     2        0.2600000        1.01188378    0.00000000
                                                     2        0.4000000       -1.09380874    0.00000000
                                                     2        0.5000000        0.96944888    0.00000000
                                                     2        1.0000000       -0.79256938    0.00000000
                                                     2        3.0000000        1.06443276    0.00000000
                                      S - G
                                                     0        0.0000010       -0.00635295    0.00000000
                                                     2        0.1200000        0.16918955    0.00000000
                                                     2        0.1600000       -0.38862576    0.00000000
                                                     2        0.2800000        0.25638263    0.00000000
                                                     2        0.5000000        0.29628419    0.00000000
                                                     2        0.9000000       -0.28791512    0.00000000
                                      P - G
                                                     0        0.0000010       -0.04756931    0.00000000
                                                     2        0.1200000        0.28430375    0.00000000
                                                     2        0.1600000       -0.69640032    0.00000000
                                                     2        0.2600000        1.13005668    0.00000000
                                                     2        0.4000000       -1.31433324    0.00000000
                                                     2        0.7000000        0.91526469    0.00000000
                                      D - G
                                                     0        0.0000010       -0.11496411    0.00000000
                                                     2        0.1200000        0.16620776    0.00000000
                                                     2        0.1800000       -0.30959819    0.00000000
                                                     2        0.3000000        0.16621458    0.00000000
                                                     2        0.6000000        0.27350556    0.00000000
                                      F - G
                                                     0        0.0000010        0.12037550    0.00000000
                                                     2        0.1200000       -0.48737077    0.00000000
                                                     2        0.1400000        0.58315350    0.00000000
                                                     2        0.3000000        0.00005188    0.00000000
                                                     2        0.5000000       -1.16063549    0.00000000
                                                     2        0.8000000        2.09053308    0.00000000
    8          1            1
                                      F and up 
                                                     0        0.0000010       -0.00007675    0.00000000
                                                     2        0.1200000        0.05352699    0.00000000
                                                     2        0.1400000       -0.25123645    0.00000000
                                                     2        0.1600000        0.32188106    0.00000000
                                                     2        0.2200000       -0.25206857    0.00000000
                                                     2        0.3000000        0.19290477    0.00000000
                                                     2        0.5000000       -0.10129770    0.00000000
                                                     2        0.9000000        0.00314995    0.00000000
                                                     2        1.5000000        0.18401192    0.00000000
                                      S - F
                                                     0        0.0000010        0.08065976    0.00000000
                                                     2        0.1200000       -0.09231673    0.00000000
                                                     2        0.1600000       -0.03278082    0.00000000
                                                     2        0.2800000        0.38423402    0.00000000
                                                     2        0.6000000       -1.09357590    0.00000000
                                                     2        1.1000000        1.53099489    0.00000000
                                                     2        3.0000000       -2.63300202    0.00000000
                                      P - F
                                                     0        0.0000010       -0.11638665    0.00000000
                                                     2        0.1200000        0.35468655    0.00000000
                                                     2        0.1600000       -0.59160923    0.00000000
                                                     2        0.3000000        0.49390547    0.00000000
                                                     2        0.6000000       -0.37949835    0.00000000
                                                     2        1.6000000        0.89304688    0.00000000
                                      D - F
                                                     0        0.0000010        0.05443663    0.00000000
                                                     2        0.1200000       -0.29679479    0.00000000
                                                     2        0.1400000        0.36849872    0.00000000
                                                     2        0.2400000        0.02793449    0.00000000
                                                     2        0.4000000       -0.46312857    0.00000000
                                                     2        0.7000000        0.97587598    0.00000000
                                                     2        1.5000000       -2.43431102    0.00000000
    9          1            1
                                      F and up 
                                                     0        0.0000010       -0.00007675    0.00000000
                                                     2        0.1200000        0.05352699    0.00000000
                                                     2        0.1400000       -0.25123645    0.00000000
                                                     2        0.1600000        0.32188106    0.00000000
                                                     2        0.2200000       -0.25206857    0.00000000
                                                     2        0.3000000        0.19290477    0.00000000
                                                     2        0.5000000       -0.10129770    0.00000000
                                                     2        0.9000000        0.00314995    0.00000000
                                                     2        1.5000000        0.18401192    0.00000000
                                      S - F
                                                     0        0.0000010        0.08065976    0.00000000
                                                     2        0.1200000       -0.09231673    0.00000000
                                                     2        0.1600000       -0.03278082    0.00000000
                                                     2        0.2800000        0.38423402    0.00000000
                                                     2        0.6000000       -1.09357590    0.00000000
                                                     2        1.1000000        1.53099489    0.00000000
                                                     2        3.0000000       -2.63300202    0.00000000
                                      P - F
                                                     0        0.0000010       -0.11638665    0.00000000
                                                     2        0.1200000        0.35468655    0.00000000
                                                     2        0.1600000       -0.59160923    0.00000000
                                                     2        0.3000000        0.49390547    0.00000000
                                                     2        0.6000000       -0.37949835    0.00000000
                                                     2        1.6000000        0.89304688    0.00000000
                                      D - F
                                                     0        0.0000010        0.05443663    0.00000000
                                                     2        0.1200000       -0.29679479    0.00000000
                                                     2        0.1400000        0.36849872    0.00000000
                                                     2        0.2400000        0.02793449    0.00000000
                                                     2        0.4000000       -0.46312857    0.00000000
                                                     2        0.7000000        0.97587598    0.00000000
                                                     2        1.5000000       -2.43431102    0.00000000
   10          1            1
                                      F and up 
                                                     0        0.0000010       -0.00007675    0.00000000
                                                     2        0.1200000        0.05352699    0.00000000
                                                     2        0.1400000       -0.25123645    0.00000000
                                                     2        0.1600000        0.32188106    0.00000000
                                                     2        0.2200000       -0.25206857    0.00000000
                                                     2        0.3000000        0.19290477    0.00000000
                                                     2        0.5000000       -0.10129770    0.00000000
                                                     2        0.9000000        0.00314995    0.00000000
                                                     2        1.5000000        0.18401192    0.00000000
                                      S - F
                                                     0        0.0000010        0.08065976    0.00000000
                                                     2        0.1200000       -0.09231673    0.00000000
                                                     2        0.1600000       -0.03278082    0.00000000
                                                     2        0.2800000        0.38423402    0.00000000
                                                     2        0.6000000       -1.09357590    0.00000000
                                                     2        1.1000000        1.53099489    0.00000000
                                                     2        3.0000000       -2.63300202    0.00000000
                                      P - F
                                                     0        0.0000010       -0.11638665    0.00000000
                                                     2        0.1200000        0.35468655    0.00000000
                                                     2        0.1600000       -0.59160923    0.00000000
                                                     2        0.3000000        0.49390547    0.00000000
                                                     2        0.6000000       -0.37949835    0.00000000
                                                     2        1.6000000        0.89304688    0.00000000
                                      D - F
                                                     0        0.0000010        0.05443663    0.00000000
                                                     2        0.1200000       -0.29679479    0.00000000
                                                     2        0.1400000        0.36849872    0.00000000
                                                     2        0.2400000        0.02793449    0.00000000
                                                     2        0.4000000       -0.46312857    0.00000000
                                                     2        0.7000000        0.97587598    0.00000000
                                                     2        1.5000000       -2.43431102    0.00000000
   11          1            1
                                      F and up 
                                                     0        0.0000010       -0.00007675    0.00000000
                                                     2        0.1200000        0.05352699    0.00000000
                                                     2        0.1400000       -0.25123645    0.00000000
                                                     2        0.1600000        0.32188106    0.00000000
                                                     2        0.2200000       -0.25206857    0.00000000
                                                     2        0.3000000        0.19290477    0.00000000
                                                     2        0.5000000       -0.10129770    0.00000000
                                                     2        0.9000000        0.00314995    0.00000000
                                                     2        1.5000000        0.18401192    0.00000000
                                      S - F
                                                     0        0.0000010        0.08065976    0.00000000
                                                     2        0.1200000       -0.09231673    0.00000000
                                                     2        0.1600000       -0.03278082    0.00000000
                                                     2        0.2800000        0.38423402    0.00000000
                                                     2        0.6000000       -1.09357590    0.00000000
                                                     2        1.1000000        1.53099489    0.00000000
                                                     2        3.0000000       -2.63300202    0.00000000
                                      P - F
                                                     0        0.0000010       -0.11638665    0.00000000
                                                     2        0.1200000        0.35468655    0.00000000
                                                     2        0.1600000       -0.59160923    0.00000000
                                                     2        0.3000000        0.49390547    0.00000000
                                                     2        0.6000000       -0.37949835    0.00000000
                                                     2        1.6000000        0.89304688    0.00000000
                                      D - F
                                                     0        0.0000010        0.05443663    0.00000000
                                                     2        0.1200000       -0.29679479    0.00000000
                                                     2        0.1400000        0.36849872    0.00000000
                                                     2        0.2400000        0.02793449    0.00000000
                                                     2        0.4000000       -0.46312857    0.00000000
                                                     2        0.7000000        0.97587598    0.00000000
                                                     2        1.5000000       -2.43431102    0.00000000
   12          1            1
                                      F and up 
                                                     0        0.0000010       -0.00007675    0.00000000
                                                     2        0.1200000        0.05352699    0.00000000
                                                     2        0.1400000       -0.25123645    0.00000000
                                                     2        0.1600000        0.32188106    0.00000000
                                                     2        0.2200000       -0.25206857    0.00000000
                                                     2        0.3000000        0.19290477    0.00000000
                                                     2        0.5000000       -0.10129770    0.00000000
                                                     2        0.9000000        0.00314995    0.00000000
                                                     2        1.5000000        0.18401192    0.00000000
                                      S - F
                                                     0        0.0000010        0.08065976    0.00000000
                                                     2        0.1200000       -0.09231673    0.00000000
                                                     2        0.1600000       -0.03278082    0.00000000
                                                     2        0.2800000        0.38423402    0.00000000
                                                     2        0.6000000       -1.09357590    0.00000000
                                                     2        1.1000000        1.53099489    0.00000000
                                                     2        3.0000000       -2.63300202    0.00000000
                                      P - F
                                                     0        0.0000010       -0.11638665    0.00000000
                                                     2        0.1200000        0.35468655    0.00000000
                                                     2        0.1600000       -0.59160923    0.00000000
                                                     2        0.3000000        0.49390547    0.00000000
                                                     2        0.6000000       -0.37949835    0.00000000
                                                     2        1.6000000        0.89304688    0.00000000
                                      D - F
                                                     0        0.0000010        0.05443663    0.00000000
                                                     2        0.1200000       -0.29679479    0.00000000
                                                     2        0.1400000        0.36849872    0.00000000
                                                     2        0.2400000        0.02793449    0.00000000
                                                     2        0.4000000       -0.46312857    0.00000000
                                                     2        0.7000000        0.97587598    0.00000000
                                                     2        1.5000000       -2.43431102    0.00000000
   13          1            1
                                      F and up 
                                                     0        0.0000010       -0.00007675    0.00000000
                                                     2        0.1200000        0.05352699    0.00000000
                                                     2        0.1400000       -0.25123645    0.00000000
                                                     2        0.1600000        0.32188106    0.00000000
                                                     2        0.2200000       -0.25206857    0.00000000
                                                     2        0.3000000        0.19290477    0.00000000
                                                     2        0.5000000       -0.10129770    0.00000000
                                                     2        0.9000000        0.00314995    0.00000000
                                                     2        1.5000000        0.18401192    0.00000000
                                      S - F
                                                     0        0.0000010        0.08065976    0.00000000
                                                     2        0.1200000       -0.09231673    0.00000000
                                                     2        0.1600000       -0.03278082    0.00000000
                                                     2        0.2800000        0.38423402    0.00000000
                                                     2        0.6000000       -1.09357590    0.00000000
                                                     2        1.1000000        1.53099489    0.00000000
                                                     2        3.0000000       -2.63300202    0.00000000
                                      P - F
                                                     0        0.0000010       -0.11638665    0.00000000
                                                     2        0.1200000        0.35468655    0.00000000
                                                     2        0.1600000       -0.59160923    0.00000000
                                                     2        0.3000000        0.49390547    0.00000000
                                                     2        0.6000000       -0.37949835    0.00000000
                                                     2        1.6000000        0.89304688    0.00000000
                                      D - F
                                                     0        0.0000010        0.05443663    0.00000000
                                                     2        0.1200000       -0.29679479    0.00000000
                                                     2        0.1400000        0.36849872    0.00000000
                                                     2        0.2400000        0.02793449    0.00000000
                                                     2        0.4000000       -0.46312857    0.00000000
                                                     2        0.7000000        0.97587598    0.00000000
                                                     2        1.5000000       -2.43431102    0.00000000
 ======================================================================================================
   215 basis functions,   367 primitive gaussians,   229 cartesian basis functions
    25 alpha electrons       25 beta electrons
       nuclear repulsion energy       241.8503239180 Hartrees.
 NAtoms=   13 NActive=   13 NUniq=   13 SFac= 1.00D+00 NAtFMM=   60 NAOKFM=F Big=F
   1 Symmetry operations used in ECPInt.
 ECPInt:  NShTT=    4371 NPrTT=   21039 LenC2=    4352 LenP2D=   16001.
 LDataN:  DoStor=T MaxTD1= 6 Len=  172
 Initial guess from the checkpoint file:  "Grambow2020_wb97xd3_008351_reverse_mol2.chk"
 B after Tr=     0.458198   -0.040088    0.010916
         Rot=    0.494766    0.241149    0.813974   -0.185743 Ang= 120.69 deg.
 >>>>>>>>>> Convergence criterion not met.
 SCF Done:  E(RHF) =  -305.776717202     A.U. after    2 cycles
            NFock=  1  Conv=0.21D-01     -V/T= 2.0022

 **********************************************************************

            Population analysis using the SCF Density.

 **********************************************************************

 Orbital symmetries:
       Occupied  (A) (A) (A) (A) (A) (A) (A) (A) (A) (A) (A) (A)
                 (A) (A) (A) (A) (A) (A) (A) (A) (A) (A) (A) (A)
                 (A)
       Virtual   (A) (A) (A) (A) (A) (A) (A) (A) (A) (A) (A) (A)
                 (A) (A) (A) (A) (A) (A) (A) (A) (A) (A) (A) (A)
                 (A) (A) (A) (A) (A) (A) (A) (A) (A) (A) (A) (A)
                 (A) (A) (A) (A) (A) (A) (A) (A) (A) (A) (A) (A)
                 (A) (A) (A) (A) (A) (A) (A) (A) (A) (A) (A) (A)
                 (A) (A) (A) (A) (A) (A) (A) (A) (A) (A) (A) (A)
                 (A) (A) (A) (A) (A) (A) (A) (A) (A) (A) (A) (A)
                 (A) (A) (A) (A) (A) (A) (A) (A) (A) (A) (A) (A)
                 (A) (A) (A) (A) (A) (A) (A) (A) (A) (A) (A) (A)
                 (A) (A) (A) (A) (A) (A) (A) (A) (A) (A) (A) (A)
                 (A) (A) (A) (A) (A) (A) (A) (A) (A) (A) (A) (A)
                 (A) (A) (A) (A) (A) (A) (A) (A) (A) (A) (A) (A)
                 (A) (A) (A) (A) (A) (A) (A) (A) (A) (A) (A) (A)
                 (A) (A) (A) (A) (A) (A) (A) (A) (A) (A) (A) (A)
                 (A) (A) (A) (A) (A) (A) (A) (A) (A) (A) (A) (A)
                 (A) (A) (A) (A) (A) (A) (A) (A) (A) (A)
 The electronic state is 1-A.
 Alpha  occ. eigenvalues --  -20.57912 -11.31169 -11.26958 -11.26851 -11.25749
 Alpha  occ. eigenvalues --  -11.25145 -11.24330  -1.49047  -1.11533  -1.05580
 Alpha  occ. eigenvalues --   -0.99420  -0.92350  -0.79931  -0.74729  -0.68102
 Alpha  occ. eigenvalues --   -0.65513  -0.64136  -0.62139  -0.60669  -0.57142
 Alpha  occ. eigenvalues --   -0.56272  -0.45953  -0.39495  -0.35448  -0.33824
 Alpha virt. eigenvalues --    0.03393   0.03814   0.04205   0.04238   0.05582
 Alpha virt. eigenvalues --    0.05911   0.08371   0.09295   0.09885   0.11145
 Alpha virt. eigenvalues --    0.11844   0.12368   0.13509   0.13941   0.14857
 Alpha virt. eigenvalues --    0.15543   0.16007   0.16475   0.17096   0.17503
 Alpha virt. eigenvalues --    0.18176   0.19124   0.19759   0.19801   0.20319
 Alpha virt. eigenvalues --    0.20931   0.21188   0.22732   0.24602   0.25480
 Alpha virt. eigenvalues --    0.25806   0.26532   0.28567   0.28995   0.29889
 Alpha virt. eigenvalues --    0.30615   0.31294   0.33308   0.34941   0.36082
 Alpha virt. eigenvalues --    0.36842   0.38268   0.39377   0.39900   0.41078
 Alpha virt. eigenvalues --    0.41851   0.42657   0.44219   0.44741   0.47057
 Alpha virt. eigenvalues --    0.47370   0.48877   0.50077   0.50404   0.50611
 Alpha virt. eigenvalues --    0.52161   0.52480   0.53161   0.56844   0.57037
 Alpha virt. eigenvalues --    0.57845   0.58307   0.59044   0.59923   0.61168
 Alpha virt. eigenvalues --    0.62046   0.63162   0.64138   0.65022   0.65532
 Alpha virt. eigenvalues --    0.67231   0.67446   0.68257   0.69368   0.70869
 Alpha virt. eigenvalues --    0.72577   0.73205   0.74529   0.76203   0.76625
 Alpha virt. eigenvalues --    0.77368   0.77744   0.78701   0.80281   0.81906
 Alpha virt. eigenvalues --    0.83412   0.85819   0.87301   0.89765   0.91712
 Alpha virt. eigenvalues --    0.91955   0.93177   0.96474   0.97418   0.99363
 Alpha virt. eigenvalues --    1.00903   1.03290   1.05179   1.06390   1.07601
 Alpha virt. eigenvalues --    1.08559   1.10864   1.12167   1.12410   1.14319
 Alpha virt. eigenvalues --    1.15013   1.21508   1.22740   1.23453   1.25481
 Alpha virt. eigenvalues --    1.25748   1.29965   1.34425   1.39198   1.39755
 Alpha virt. eigenvalues --    1.43052   1.46282   1.52159   1.54338   1.57081
 Alpha virt. eigenvalues --    1.60398   1.61078   1.61421   1.62151   1.62761
 Alpha virt. eigenvalues --    1.64231   1.68427   1.71633   1.73264   1.73416
 Alpha virt. eigenvalues --    1.74399   1.74982   1.77514   1.80266   1.81185
 Alpha virt. eigenvalues --    1.83427   1.86281   1.86529   1.87753   1.89139
 Alpha virt. eigenvalues --    1.92721   1.97298   1.99169   2.01411   2.02582
 Alpha virt. eigenvalues --    2.05624   2.08568   2.10994   2.13592   2.14475
 Alpha virt. eigenvalues --    2.15816   2.18740   2.19957   2.23828   2.27337
 Alpha virt. eigenvalues --    2.28105   2.30127   2.30392   2.31174   2.35893
 Alpha virt. eigenvalues --    2.36575   2.41448   2.44355   2.45395   2.52787
 Alpha virt. eigenvalues --    2.54237   2.61559   2.67761   2.73969   2.80662
 Alpha virt. eigenvalues --    2.86785   2.92267   2.95468   2.97195   3.01717
 Alpha virt. eigenvalues --    3.04040   3.06563   3.11328   3.21526   3.30475
 Alpha virt. eigenvalues --    3.39429   3.50929   3.62576   3.70301   3.82477
 Alpha virt. eigenvalues --    3.84169   3.84917   3.95807   4.08170   4.47834
          Condensed to atoms (all electrons):
 Mulliken charges:
               1
     1  O   -1.377362
     2  C    1.254118
     3  C   -0.118652
     4  C   -0.035953
     5  C    0.437537
     6  C   -0.317875
     7  C    0.261085
     8  H    0.381643
     9  H   -0.052999
    10  H   -0.043590
    11  H   -0.044689
    12  H   -0.163878
    13  H   -0.179387
 Sum of Mulliken charges =  -0.00000
 Mulliken charges with hydrogens summed into heavy atoms:
               1
     1  O   -0.995719
     2  C    1.201119
     3  C   -0.206930
     4  C   -0.035953
     5  C    0.273659
     6  C   -0.317875
     7  C    0.081699
 Electronic spatial extent (au):  <R**2>=            980.0298
 Charge=              0.0000 electrons
 Dipole moment (field-independent basis, Debye):
    X=              1.0279    Y=              0.3782    Z=             -0.5823  Tot=              1.2404

 Test job not archived.
 1\1\GINC-SE168\SP\RHF\Aug-CC-pVDZ\C6H6O1\OHZDE\09-Apr-2025\0\\#t hf au
 g-cc-pvdz iop(5/13=1,5/36=2,99/5=2) pseudo=read geom=check guess=(read
 ,tcheck) scf=(maxcycle=1)\\title\\0,1\O,0,0.38799873,-1.06640664,2.843
 34699\C,0,1.11086918,-0.84386869,1.7077776\C,0,-1.60854753,-0.73211917
 ,-1.85412465\C,0,-0.82120065,0.2328813,-1.49145193\C,0,-0.02854003,1.2
 0153749,-1.11855305\C,0,0.98178292,0.16515115,0.89397589\C,0,0.8573035
 5,1.16534707,0.06036618\H,0,-0.25545442,-0.35997087,2.94418736\H,0,1.8
 4363629,-1.62417146,1.53883521\H,0,-2.62717951,-0.79109655,-1.48664917
 \H,0,-1.26984761,-1.50788938,-2.53179969\H,0,-0.01278445,2.10840579,-1
 .71481276\H,0,1.45013754,2.06169396,0.22627003\\Version=ES64L-G16RevC.
 01\State=1-A\HF=-305.7767172\RMSD=2.100e-02\Dipole=-0.2375987,0.329590
 1,-0.2703214\Quadrupole=0.7789474,1.3213492,-2.1002967,0.859428,-0.899
 1977,2.3519589\PG=C01 [X(C6H6O1)]\\@


 THERE IS NO SCIENCE WITHOUT FANCY, NOR ART WITHOUT FACTS.
     -- VLADIMIR NABAKOV
 Job cpu time:       0 days  0 hours  0 minutes 45.1 seconds.
 Elapsed time:       0 days  0 hours  0 minutes  3.7 seconds.
 File lengths (MBytes):  RWF=     10 Int=      0 D2E=      0 Chk=      7 Scr=      1
 Normal termination of Gaussian 16 at Wed Apr  9 18:55:41 2025.
