 Entering Gaussian System, Link 0=g16
 Input=HB300SPXx10_1088_4.12_1.25_methylamine_tetrahydrothiophene_dimer_mol1.gjf
 Output=HB300SPXx10_1088_4.12_1.25_methylamine_tetrahydrothiophene_dimer_mol1.log
 Initial command:
 /arc/software/Gaussian/g16.c01/l1.exe "/tmp/slurm/4883400/Gau-3730208.inp" -scrdir="/tmp/slurm/4883400/"
 Entering Link 1 = /arc/software/Gaussian/g16.c01/l1.exe PID=   3730209.
  
 Copyright (c) 1988-2019, Gaussian, Inc.  All Rights Reserved.
  
 This is part of the Gaussian(R) 16 program.  It is based on
 the Gaussian(R) 09 system (copyright 2009, Gaussian, Inc.),
 the Gaussian(R) 03 system (copyright 2003, Gaussian, Inc.),
 the Gaussian(R) 98 system (copyright 1998, Gaussian, Inc.),
 the Gaussian(R) 94 system (copyright 1995, Gaussian, Inc.),
 the Gaussian 92(TM) system (copyright 1992, Gaussian, Inc.),
 the Gaussian 90(TM) system (copyright 1990, Gaussian, Inc.),
 the Gaussian 88(TM) system (copyright 1988, Gaussian, Inc.),
 the Gaussian 86(TM) system (copyright 1986, Carnegie Mellon
 University), and the Gaussian 82(TM) system (copyright 1983,
 Carnegie Mellon University). Gaussian is a federally registered
 trademark of Gaussian, Inc.
  
 This software contains proprietary and confidential information,
 including trade secrets, belonging to Gaussian, Inc.
  
 This software is provided under written license and may be
 used, copied, transmitted, or stored only in accord with that
 written license.
  
 The following legend is applicable only to US Government
 contracts under FAR:
  
                    RESTRICTED RIGHTS LEGEND
  
 Use, reproduction and disclosure by the US Government is
 subject to restrictions as set forth in subparagraphs (a)
 and (c) of the Commercial Computer Software - Restricted
 Rights clause in FAR 52.227-19.
  
 Gaussian, Inc.
 340 Quinnipiac St., Bldg. 40, Wallingford CT 06492
  
  
 ---------------------------------------------------------------
 Warning -- This program may not be used in any manner that
 competes with the business of Gaussian, Inc. or will provide
 assistance to any competitor of Gaussian, Inc.  The licensee
 of this program is prohibited from giving any competitor of
 Gaussian, Inc. access to this program.  By using this program,
 the user acknowledges that Gaussian, Inc. is engaged in the
 business of creating and licensing software in the field of
 computational chemistry and represents and warrants to the
 licensee that it is not a competitor of Gaussian, Inc. and that
 it will not use this program in any manner prohibited above.
 ---------------------------------------------------------------
  

 Cite this work as:
 Gaussian 16, Revision C.01,
 M. J. Frisch, G. W. Trucks, H. B. Schlegel, G. E. Scuseria, 
 M. A. Robb, J. R. Cheeseman, G. Scalmani, V. Barone, 
 G. A. Petersson, H. Nakatsuji, X. Li, M. Caricato, A. V. Marenich, 
 J. Bloino, B. G. Janesko, R. Gomperts, B. Mennucci, H. P. Hratchian, 
 J. V. Ortiz, A. F. Izmaylov, J. L. Sonnenberg, D. Williams-Young, 
 F. Ding, F. Lipparini, F. Egidi, J. Goings, B. Peng, A. Petrone, 
 T. Henderson, D. Ranasinghe, V. G. Zakrzewski, J. Gao, N. Rega, 
 G. Zheng, W. Liang, M. Hada, M. Ehara, K. Toyota, R. Fukuda, 
 J. Hasegawa, M. Ishida, T. Nakajima, Y. Honda, O. Kitao, H. Nakai, 
 T. Vreven, K. Throssell, J. A. Montgomery, Jr., J. E. Peralta, 
 F. Ogliaro, M. J. Bearpark, J. J. Heyd, E. N. Brothers, K. N. Kudin, 
 V. N. Staroverov, T. A. Keith, R. Kobayashi, J. Normand, 
 K. Raghavachari, A. P. Rendell, J. C. Burant, S. S. Iyengar, 
 J. Tomasi, M. Cossi, J. M. Millam, M. Klene, C. Adamo, R. Cammi, 
 J. W. Ochterski, R. L. Martin, K. Morokuma, O. Farkas, 
 J. B. Foresman, and D. J. Fox, Gaussian, Inc., Wallingford CT, 2019.
 
 ******************************************
 Gaussian 16:  ES64L-G16RevC.01  3-Jul-2019
                 9-Apr-2025 
 ******************************************
 %nprocs=16
 Will use up to   16 processors via shared memory.
 %mem=30GB
 %chk=HB300SPXx10_1088_4.12_1.25_methylamine_tetrahydrothiophene_dimer_mol1.chk
 ----------------------------------------------------------------------
 #t hf aug-cc-pvdz symm=none int=(grid=ultrafine) guess=(read,tcheck) s
 table=(opt,rrhf)
 ----------------------------------------------------------------------
 -----
 title
 -----
 Symbolic Z-matrix:
 Charge =  0 Multiplicity = 1
 N                    -0.48024   2.042     1.33184 
 H                    -0.98137   1.22913   0.98882 
 H                    -1.14376   2.80346   1.38144 
 C                     0.08991   1.76982   2.6502 
 H                     0.60698   2.65694   3.01468 
 H                    -0.63523   1.46399   3.41347 
 H                     0.83383   0.97768   2.56431 
 H                     0.84129  -2.96319  -0.25578 
 H                     0.55147  -1.82058   1.05921 
 H                     2.56952  -1.30912  -0.6353 
 H                    -0.62792   0.53301  -1.82103 
 H                     1.49098   0.01538  -0.18258 
 H                    -0.95179  -0.76204  -2.98654 
 H                     1.58671   0.0268   -2.64159 
 H                     1.24909  -1.70288  -2.69129 
 S                    -1.08563  -1.56981  -0.70946 
 C                     0.58329  -1.93232  -0.02142 
 C                     1.54217  -0.94802  -0.68904 
 C                     1.06618  -0.78399  -2.13173 
 C                    -0.43432  -0.50902  -2.06515 
 
                    Distance matrix (angstroms):
                    1          2          3          4          5
     1  N    0.000000
     2  H    1.014665   0.000000
     3  H    1.011210   1.630654   0.000000
     4  C    1.461930   2.049433   2.049414   0.000000
     5  H    2.095749   2.943740   2.398753   1.089581   0.000000
     6  H    2.165943   2.460465   2.486340   1.096334   1.767838
     7  H    2.092499   2.416685   2.939985   1.090081   1.753341
     8  H    5.414689   4.737793   6.314678   5.604522   6.506664
     9  H    4.007275   3.413985   4.935521   3.954143   4.886217
    10  H    4.939701   4.657180   5.896526   5.140316   5.736164
    11  H    3.498488   2.916294   3.959402   4.694348   5.424038
    12  H    3.207225   2.992967   4.142626   3.614645   4.240488
    13  H    5.170425   4.446243   5.641706   6.266437   7.080521
    14  H    4.911353   4.606571   5.599114   5.769017   6.314341
    15  H    5.761966   5.207195   6.528401   6.475715   7.209610
    16  S    4.192683   3.275536   4.847761   4.880820   5.882146
    17  C    4.330999   3.669263   5.232426   4.592033   5.502701
    18  C    4.136941   3.731414   5.057146   4.543815   5.252419
    19  C    4.730101   4.240628   5.485979   5.508345   6.207767
    20  C    4.248447   3.556285   4.832683   5.263311   6.075547
                    6          7          8          9         10
     6  H    0.000000
     7  H    1.765142   0.000000
     8  H    5.936620   4.845972   0.000000
     9  H    4.211794   3.189878   1.766001   0.000000
    10  H    5.861157   4.298792   2.422139   2.684307   0.000000
    11  H    5.316650   4.643891   4.102687   3.902075   3.875963
    12  H    4.421628   2.983834   3.049483   2.407381   1.767069
    13  H    6.783470   6.084982   3.939196   4.443919   4.269340
    14  H    6.608047   5.345318   3.897151   4.263858   2.603038
    15  H    7.130769   5.914325   2.772434   3.816650   2.475011
    16  S    5.138620   4.570743   2.420819   2.423058   3.665188
    17  C    4.981782   3.900878   1.088206   1.086857   2.170333
    18  C    5.233497   3.846349   2.177116   2.190715   1.090294
    19  C    6.220726   5.020983   2.884216   3.394345   2.185202
    20  C    5.826524   5.024977   3.305137   3.528965   3.421647
                   11         12         13         14         15
    11  H    0.000000
    12  H    2.728042   0.000000
    13  H    1.772127   3.799168   0.000000
    14  H    2.415404   2.460900   2.680530   0.000000
    15  H    3.046272   3.050342   2.411691   1.763027   0.000000
    16  S    2.422178   3.070727   2.419808   3.663835   3.065334
    17  C    3.283825   2.154856   3.538075   3.422032   2.761189
    18  C    2.860797   1.089624   3.396011   2.182821   2.159792
    19  C    2.168180   2.149100   2.191663   1.090083   1.091302
    20  C    1.087617   2.743323   1.086625   2.168857   2.156669
                   16         17         18         19         20
    16  S    0.000000
    17  C    1.841227   0.000000
    18  C    2.700436   1.527743   0.000000
    19  C    2.696415   2.450566   1.528011   0.000000
    20  C    1.840479   2.690377   2.448033   1.526934   0.000000
 Symmetry turned off by external request.
 Rotational constants (GHZ):           2.5913998           0.9270891           0.8890249
   282 basis functions,   482 primitive gaussians,   296 cartesian basis functions
    33 alpha electrons       33 beta electrons
       nuclear repulsion energy       376.2628172993 Hartrees.
 NAtoms=   20 NActive=   20 NUniq=   20 SFac= 1.00D+00 NAtFMM=   60 NAOKFM=F Big=F
 ExpMin= 2.97D-02 ExpMax= 1.11D+05 ExpMxC= 1.07D+03 IAcc=3 IRadAn=         5 AccDes= 0.00D+00
 Harris functional with IExCor=  205 and IRadAn=       5 diagonalized for initial guess.
 HarFok:  IExCor=  205 AccDes= 0.00D+00 IRadAn=         5 IDoV= 1 UseB2=F ITyADJ=14
 ICtDFT=  3500011 ScaDFX=  1.000000  1.000000  1.000000  1.000000
 FoFCou: FMM=F IPFlag=           0 FMFlag=      100000 FMFlg1=           0
         NFxFlg=           0 DoJE=T BraDBF=F KetDBF=T FulRan=T
         wScrn=  0.000000 ICntrl=       500 IOpCl=  0 I1Cent=   200000004 NGrid=           0
         NMat0=    1 NMatS0=      1 NMatT0=    0 NMatD0=    1 NMtDS0=    0 NMtDT0=    0
 Symmetry not used in FoFCou.
 SCF Done:  E(RHF) =  -648.915225546     A.U. after   12 cycles
            NFock= 12  Conv=0.93D-08     -V/T= 2.0005

 **********************************************************************

            Population analysis using the SCF Density.

 **********************************************************************

 Alpha  occ. eigenvalues --  -91.93701 -15.54463 -11.25779 -11.25650 -11.24748
 Alpha  occ. eigenvalues --  -11.23575 -11.23444  -8.93882  -6.62065  -6.61954
 Alpha  occ. eigenvalues --   -6.61747  -1.16865  -1.12559  -0.98499  -0.96507
 Alpha  occ. eigenvalues --   -0.89519  -0.79289  -0.78168  -0.66261  -0.65316
 Alpha  occ. eigenvalues --   -0.63584  -0.60084  -0.59689  -0.55562  -0.54536
 Alpha  occ. eigenvalues --   -0.51532  -0.50268  -0.48923  -0.47817  -0.47330
 Alpha  occ. eigenvalues --   -0.41913  -0.38699  -0.33089
 Alpha virt. eigenvalues --    0.03465   0.04130   0.04365   0.04892   0.05861
 Alpha virt. eigenvalues --    0.05980   0.06220   0.06909   0.08039   0.08438
 Alpha virt. eigenvalues --    0.08821   0.09486   0.10374   0.11681   0.13565
 Alpha virt. eigenvalues --    0.14210   0.14680   0.14950   0.15196   0.15364
 Alpha virt. eigenvalues --    0.16011   0.16645   0.17028   0.17296   0.17612
 Alpha virt. eigenvalues --    0.18560   0.18776   0.19120   0.19316   0.20193
 Alpha virt. eigenvalues --    0.20202   0.20532   0.21473   0.22034   0.22373
 Alpha virt. eigenvalues --    0.23500   0.23986   0.24532   0.25422   0.26310
 Alpha virt. eigenvalues --    0.28372   0.29732   0.30880   0.31323   0.32053
 Alpha virt. eigenvalues --    0.33668   0.34559   0.35762   0.36181   0.36940
 Alpha virt. eigenvalues --    0.37829   0.38822   0.39439   0.39882   0.40711
 Alpha virt. eigenvalues --    0.41227   0.41761   0.42169   0.42661   0.43470
 Alpha virt. eigenvalues --    0.43811   0.44627   0.44936   0.45898   0.46182
 Alpha virt. eigenvalues --    0.46741   0.47364   0.48024   0.48432   0.49472
 Alpha virt. eigenvalues --    0.49994   0.50196   0.50720   0.52774   0.52889
 Alpha virt. eigenvalues --    0.53775   0.54969   0.55737   0.56763   0.57415
 Alpha virt. eigenvalues --    0.57717   0.58490   0.59430   0.60314   0.61135
 Alpha virt. eigenvalues --    0.61444   0.62265   0.62449   0.63511   0.64398
 Alpha virt. eigenvalues --    0.64492   0.65858   0.66540   0.66981   0.67314
 Alpha virt. eigenvalues --    0.68147   0.69327   0.70052   0.70316   0.71024
 Alpha virt. eigenvalues --    0.71663   0.72825   0.72887   0.73136   0.73869
 Alpha virt. eigenvalues --    0.75694   0.76531   0.77306   0.78523   0.78765
 Alpha virt. eigenvalues --    0.79908   0.81418   0.82043   0.82670   0.82815
 Alpha virt. eigenvalues --    0.83627   0.85145   0.86011   0.86286   0.87772
 Alpha virt. eigenvalues --    0.89241   0.90014   0.90412   0.91684   0.93531
 Alpha virt. eigenvalues --    0.94365   0.94597   0.96382   0.98181   0.99475
 Alpha virt. eigenvalues --    1.01196   1.03616   1.06996   1.08125   1.10060
 Alpha virt. eigenvalues --    1.10947   1.12078   1.13121   1.14443   1.16158
 Alpha virt. eigenvalues --    1.17474   1.18088   1.20637   1.22160   1.23795
 Alpha virt. eigenvalues --    1.25184   1.28405   1.28793   1.29750   1.30280
 Alpha virt. eigenvalues --    1.31981   1.35526   1.36367   1.39209   1.40513
 Alpha virt. eigenvalues --    1.41280   1.43094   1.44336   1.47854   1.49205
 Alpha virt. eigenvalues --    1.51611   1.53599   1.57298   1.61637   1.62832
 Alpha virt. eigenvalues --    1.63601   1.64823   1.65646   1.72651   1.74364
 Alpha virt. eigenvalues --    1.77234   1.79339   1.80556   1.83049   1.86261
 Alpha virt. eigenvalues --    1.86929   1.90060   1.93289   1.93802   1.94057
 Alpha virt. eigenvalues --    1.96607   1.97064   1.98837   2.00257   2.03352
 Alpha virt. eigenvalues --    2.06116   2.07249   2.07890   2.09408   2.11464
 Alpha virt. eigenvalues --    2.11873   2.13206   2.14910   2.15762   2.17744
 Alpha virt. eigenvalues --    2.18208   2.18753   2.20576   2.22189   2.23014
 Alpha virt. eigenvalues --    2.26647   2.28040   2.29356   2.31937   2.33001
 Alpha virt. eigenvalues --    2.34140   2.35345   2.35687   2.37952   2.39690
 Alpha virt. eigenvalues --    2.43942   2.44281   2.45042   2.47722   2.49120
 Alpha virt. eigenvalues --    2.50204   2.50639   2.54868   2.58082   2.62252
 Alpha virt. eigenvalues --    2.62817   2.63919   2.65387   2.66431   2.69857
 Alpha virt. eigenvalues --    2.70600   2.74208   2.75260   2.81072   2.84594
 Alpha virt. eigenvalues --    2.88223   2.89635   2.90948   2.92735   2.93412
 Alpha virt. eigenvalues --    2.95813   2.97011   3.03574   3.07371   3.10718
 Alpha virt. eigenvalues --    3.11742   3.12437   3.14330   3.21851   3.25481
 Alpha virt. eigenvalues --    3.36584   3.38313   3.48598   3.72690
          Condensed to atoms (all electrons):
 Mulliken charges:
               1
     1  N   -0.391401
     2  H    0.014763
     3  H   -0.018418
     4  C    0.848840
     5  H   -0.169054
     6  H   -0.121971
     7  H   -0.177493
     8  H   -0.123325
     9  H   -0.146379
    10  H   -0.097356
    11  H   -0.168611
    12  H   -0.217571
    13  H   -0.075533
    14  H   -0.105576
    15  H   -0.185256
    16  S    0.381737
    17  C    0.060208
    18  C    0.319683
    19  C    0.274184
    20  C    0.098529
 Sum of Mulliken charges =  -0.00000
 Mulliken charges with hydrogens summed into heavy atoms:
               1
     1  N   -0.395056
     4  C    0.380322
    16  S    0.381737
    17  C   -0.209496
    18  C    0.004756
    19  C   -0.016649
    20  C   -0.145615
 Electronic spatial extent (au):  <R**2>=           1539.0352
 Charge=             -0.0000 electrons
 Dipole moment (field-independent basis, Debye):
    X=              1.1190    Y=              0.3741    Z=              0.1171  Tot=              1.1857
 NROrb=    282 NOA=    33 NOB=    33 NVA=   249 NVB=   249

 **** Warning!!: The largest alpha MO coefficient is  0.41202230D+02

    12 initial guesses have been made.
 Iteration     1 Dimension    12 NMult     0 NNew     12
 New state      1 was old state      2
 Iteration     2 Dimension    24 NMult    12 NNew     12
 Iteration     3 Dimension    27 NMult    24 NNew      3
 Iteration     4 Dimension    30 NMult    27 NNew      3
 Iteration     5 Dimension    33 NMult    30 NNew      3
 Iteration     6 Dimension    36 NMult    33 NNew      3
 ***********************************************************************
 Stability analysis using <AA,BB:AA,BB> singles matrix:
 ***********************************************************************
 Ground to excited state transition densities written to RWF  633

 Eigenvectors of the stability matrix:
 
 Excited state symmetry could not be determined.
 Eigenvector   1:      Singlet-?Sym  Eigenvalue= 0.2164485  <S**2>=0.000
      33 -> 36         0.24193
      33 -> 41         0.21490
      33 -> 48         0.37052
      33 -> 50         0.17001
      33 -> 51        -0.12235
      33 -> 61         0.13613
      33 -> 66        -0.12376
      33 -> 67         0.12915
      33 -> 68         0.11318
      33 -> 72        -0.17756
      33 -> 73         0.10169
 The wavefunction is stable under the perturbations considered.
 The wavefunction is already stable.

 **********************************************************************

            Population analysis using the SCF Density.

 **********************************************************************

 Alpha  occ. eigenvalues --  -91.93701 -15.54463 -11.25779 -11.25650 -11.24748
 Alpha  occ. eigenvalues --  -11.23575 -11.23444  -8.93882  -6.62065  -6.61954
 Alpha  occ. eigenvalues --   -6.61747  -1.16865  -1.12559  -0.98499  -0.96507
 Alpha  occ. eigenvalues --   -0.89519  -0.79289  -0.78168  -0.66261  -0.65316
 Alpha  occ. eigenvalues --   -0.63584  -0.60084  -0.59689  -0.55562  -0.54536
 Alpha  occ. eigenvalues --   -0.51532  -0.50268  -0.48923  -0.47817  -0.47330
 Alpha  occ. eigenvalues --   -0.41913  -0.38699  -0.33089
 Alpha virt. eigenvalues --    0.03465   0.04130   0.04365   0.04892   0.05861
 Alpha virt. eigenvalues --    0.05980   0.06220   0.06909   0.08039   0.08438
 Alpha virt. eigenvalues --    0.08821   0.09486   0.10374   0.11681   0.13565
 Alpha virt. eigenvalues --    0.14210   0.14680   0.14950   0.15196   0.15364
 Alpha virt. eigenvalues --    0.16011   0.16645   0.17028   0.17296   0.17612
 Alpha virt. eigenvalues --    0.18560   0.18776   0.19120   0.19316   0.20193
 Alpha virt. eigenvalues --    0.20202   0.20532   0.21473   0.22034   0.22373
 Alpha virt. eigenvalues --    0.23500   0.23986   0.24532   0.25422   0.26310
 Alpha virt. eigenvalues --    0.28372   0.29732   0.30880   0.31323   0.32053
 Alpha virt. eigenvalues --    0.33668   0.34559   0.35762   0.36181   0.36940
 Alpha virt. eigenvalues --    0.37829   0.38822   0.39439   0.39882   0.40711
 Alpha virt. eigenvalues --    0.41227   0.41761   0.42169   0.42661   0.43470
 Alpha virt. eigenvalues --    0.43811   0.44627   0.44936   0.45898   0.46182
 Alpha virt. eigenvalues --    0.46741   0.47364   0.48024   0.48432   0.49472
 Alpha virt. eigenvalues --    0.49994   0.50196   0.50720   0.52774   0.52889
 Alpha virt. eigenvalues --    0.53775   0.54969   0.55737   0.56763   0.57415
 Alpha virt. eigenvalues --    0.57717   0.58490   0.59430   0.60314   0.61135
 Alpha virt. eigenvalues --    0.61444   0.62265   0.62449   0.63511   0.64398
 Alpha virt. eigenvalues --    0.64492   0.65858   0.66540   0.66981   0.67314
 Alpha virt. eigenvalues --    0.68147   0.69327   0.70052   0.70316   0.71024
 Alpha virt. eigenvalues --    0.71663   0.72825   0.72887   0.73136   0.73869
 Alpha virt. eigenvalues --    0.75694   0.76531   0.77306   0.78523   0.78765
 Alpha virt. eigenvalues --    0.79908   0.81418   0.82043   0.82670   0.82815
 Alpha virt. eigenvalues --    0.83627   0.85145   0.86011   0.86286   0.87772
 Alpha virt. eigenvalues --    0.89241   0.90014   0.90412   0.91684   0.93531
 Alpha virt. eigenvalues --    0.94365   0.94597   0.96382   0.98181   0.99475
 Alpha virt. eigenvalues --    1.01196   1.03616   1.06996   1.08125   1.10060
 Alpha virt. eigenvalues --    1.10947   1.12078   1.13121   1.14443   1.16158
 Alpha virt. eigenvalues --    1.17474   1.18088   1.20637   1.22160   1.23795
 Alpha virt. eigenvalues --    1.25184   1.28405   1.28793   1.29750   1.30280
 Alpha virt. eigenvalues --    1.31981   1.35526   1.36367   1.39209   1.40513
 Alpha virt. eigenvalues --    1.41280   1.43094   1.44336   1.47854   1.49205
 Alpha virt. eigenvalues --    1.51611   1.53599   1.57298   1.61637   1.62832
 Alpha virt. eigenvalues --    1.63601   1.64823   1.65646   1.72651   1.74364
 Alpha virt. eigenvalues --    1.77234   1.79339   1.80556   1.83049   1.86261
 Alpha virt. eigenvalues --    1.86929   1.90060   1.93289   1.93802   1.94057
 Alpha virt. eigenvalues --    1.96607   1.97064   1.98837   2.00257   2.03352
 Alpha virt. eigenvalues --    2.06116   2.07249   2.07890   2.09408   2.11464
 Alpha virt. eigenvalues --    2.11873   2.13206   2.14910   2.15762   2.17744
 Alpha virt. eigenvalues --    2.18208   2.18753   2.20576   2.22189   2.23014
 Alpha virt. eigenvalues --    2.26647   2.28040   2.29356   2.31937   2.33001
 Alpha virt. eigenvalues --    2.34140   2.35345   2.35687   2.37952   2.39690
 Alpha virt. eigenvalues --    2.43942   2.44281   2.45042   2.47722   2.49120
 Alpha virt. eigenvalues --    2.50204   2.50639   2.54868   2.58082   2.62252
 Alpha virt. eigenvalues --    2.62817   2.63919   2.65387   2.66431   2.69857
 Alpha virt. eigenvalues --    2.70600   2.74208   2.75260   2.81072   2.84594
 Alpha virt. eigenvalues --    2.88223   2.89635   2.90948   2.92735   2.93412
 Alpha virt. eigenvalues --    2.95813   2.97011   3.03574   3.07371   3.10718
 Alpha virt. eigenvalues --    3.11742   3.12437   3.14330   3.21851   3.25481
 Alpha virt. eigenvalues --    3.36584   3.38313   3.48598   3.72690
          Condensed to atoms (all electrons):
 Mulliken charges:
               1
     1  N   -0.391401
     2  H    0.014763
     3  H   -0.018418
     4  C    0.848840
     5  H   -0.169054
     6  H   -0.121971
     7  H   -0.177493
     8  H   -0.123325
     9  H   -0.146379
    10  H   -0.097356
    11  H   -0.168611
    12  H   -0.217571
    13  H   -0.075533
    14  H   -0.105576
    15  H   -0.185256
    16  S    0.381737
    17  C    0.060208
    18  C    0.319683
    19  C    0.274184
    20  C    0.098529
 Sum of Mulliken charges =  -0.00000
 Mulliken charges with hydrogens summed into heavy atoms:
               1
     1  N   -0.395056
     4  C    0.380322
    16  S    0.381737
    17  C   -0.209496
    18  C    0.004756
    19  C   -0.016649
    20  C   -0.145615
 Electronic spatial extent (au):  <R**2>=           1539.0352
 Charge=             -0.0000 electrons
 Dipole moment (field-independent basis, Debye):
    X=              1.1190    Y=              0.3741    Z=              0.1171  Tot=              1.1857
 Unable to Open any file for archive entry.
 1\1\GINC-SE168\Stability\RHF\Aug-CC-pVDZ\C5H13N1S1\OHZDE\09-Apr-2025\0
 \\#t hf aug-cc-pvdz symm=none int=(grid=ultrafine) guess=(read,tcheck)
  stable=(opt,rrhf)\\title\\0,1\N,0,-0.48023551,2.04199658,1.33183501\H
 ,0,-0.98136805,1.22913012,0.98881982\H,0,-1.14375731,2.80345765,1.3814
 4373\C,0,0.08991425,1.76981847,2.65020044\H,0,0.60698078,2.65693888,3.
 01468146\H,0,-0.63523497,1.46399211,3.41346792\H,0,0.83383405,0.977680
 14,2.5643137\H,0,0.84129425,-2.9631911,-0.25577851\H,0,0.55147218,-1.8
 2058145,1.05921468\H,0,2.56952397,-1.30912205,-0.63529982\H,0,-0.62792
 447,0.53300999,-1.82103148\H,0,1.49097756,0.01538276,-0.18257808\H,0,-
 0.95179021,-0.76203681,-2.98653586\H,0,1.58671117,0.02679976,-2.641589
 2\H,0,1.24909363,-1.70288425,-2.69129028\S,0,-1.08562919,-1.56981492,-
 0.70946482\C,0,0.58329204,-1.93231767,-0.02141529\C,0,1.54216692,-0.94
 802482,-0.6890421\C,0,1.06618184,-0.78398549,-2.13172937\C,0,-0.434315
 06,-0.5090238,-2.06514702\\Version=ES64L-G16RevC.01\HF=-648.9152255\RM
 SD=9.280e-09\Dipole=0.4402571,0.1471975,0.0460863\Quadrupole=-1.087464
 8,-1.7332293,2.820694,-4.8317918,-1.0432007,0.369647\PG=Unknown\\@
 The archive entry for this job was punched.


 "THE TIME HAS COME", THE WALRUS SAID,
 "TO TALK OF MANY THINGS,
 OF SHOES AND SHIPS AND SEALING WAX,
 OF CABBAGES AND KINGS,
 AND WHY THE SEA IS BOILING HOT,
 AND WHETHER PIGS HAVE WINGS."
 Job cpu time:       0 days  0 hours 12 minutes 59.9 seconds.
 Elapsed time:       0 days  0 hours  0 minutes 55.4 seconds.
 File lengths (MBytes):  RWF=    350 Int=      0 D2E=      0 Chk=     11 Scr=      1
 Normal termination of Gaussian 16 at Wed Apr  9 19:25:32 2025.
 Initial command:
 /arc/software/Gaussian/g16.c01/l1.exe "/tmp/slurm/4883400/Gau-3730208.inp" -scrdir="/tmp/slurm/4883400/"
 Entering Link 1 = /arc/software/Gaussian/g16.c01/l1.exe PID=   3730446.
  
 Copyright (c) 1988-2019, Gaussian, Inc.  All Rights Reserved.
  
 This is part of the Gaussian(R) 16 program.  It is based on
 the Gaussian(R) 09 system (copyright 2009, Gaussian, Inc.),
 the Gaussian(R) 03 system (copyright 2003, Gaussian, Inc.),
 the Gaussian(R) 98 system (copyright 1998, Gaussian, Inc.),
 the Gaussian(R) 94 system (copyright 1995, Gaussian, Inc.),
 the Gaussian 92(TM) system (copyright 1992, Gaussian, Inc.),
 the Gaussian 90(TM) system (copyright 1990, Gaussian, Inc.),
 the Gaussian 88(TM) system (copyright 1988, Gaussian, Inc.),
 the Gaussian 86(TM) system (copyright 1986, Carnegie Mellon
 University), and the Gaussian 82(TM) system (copyright 1983,
 Carnegie Mellon University). Gaussian is a federally registered
 trademark of Gaussian, Inc.
  
 This software contains proprietary and confidential information,
 including trade secrets, belonging to Gaussian, Inc.
  
 This software is provided under written license and may be
 used, copied, transmitted, or stored only in accord with that
 written license.
  
 The following legend is applicable only to US Government
 contracts under FAR:
  
                    RESTRICTED RIGHTS LEGEND
  
 Use, reproduction and disclosure by the US Government is
 subject to restrictions as set forth in subparagraphs (a)
 and (c) of the Commercial Computer Software - Restricted
 Rights clause in FAR 52.227-19.
  
 Gaussian, Inc.
 340 Quinnipiac St., Bldg. 40, Wallingford CT 06492
  
  
 ---------------------------------------------------------------
 Warning -- This program may not be used in any manner that
 competes with the business of Gaussian, Inc. or will provide
 assistance to any competitor of Gaussian, Inc.  The licensee
 of this program is prohibited from giving any competitor of
 Gaussian, Inc. access to this program.  By using this program,
 the user acknowledges that Gaussian, Inc. is engaged in the
 business of creating and licensing software in the field of
 computational chemistry and represents and warrants to the
 licensee that it is not a competitor of Gaussian, Inc. and that
 it will not use this program in any manner prohibited above.
 ---------------------------------------------------------------
  

 Cite this work as:
 Gaussian 16, Revision C.01,
 M. J. Frisch, G. W. Trucks, H. B. Schlegel, G. E. Scuseria, 
 M. A. Robb, J. R. Cheeseman, G. Scalmani, V. Barone, 
 G. A. Petersson, H. Nakatsuji, X. Li, M. Caricato, A. V. Marenich, 
 J. Bloino, B. G. Janesko, R. Gomperts, B. Mennucci, H. P. Hratchian, 
 J. V. Ortiz, A. F. Izmaylov, J. L. Sonnenberg, D. Williams-Young, 
 F. Ding, F. Lipparini, F. Egidi, J. Goings, B. Peng, A. Petrone, 
 T. Henderson, D. Ranasinghe, V. G. Zakrzewski, J. Gao, N. Rega, 
 G. Zheng, W. Liang, M. Hada, M. Ehara, K. Toyota, R. Fukuda, 
 J. Hasegawa, M. Ishida, T. Nakajima, Y. Honda, O. Kitao, H. Nakai, 
 T. Vreven, K. Throssell, J. A. Montgomery, Jr., J. E. Peralta, 
 F. Ogliaro, M. J. Bearpark, J. J. Heyd, E. N. Brothers, K. N. Kudin, 
 V. N. Staroverov, T. A. Keith, R. Kobayashi, J. Normand, 
 K. Raghavachari, A. P. Rendell, J. C. Burant, S. S. Iyengar, 
 J. Tomasi, M. Cossi, J. M. Millam, M. Klene, C. Adamo, R. Cammi, 
 J. W. Ochterski, R. L. Martin, K. Morokuma, O. Farkas, 
 J. B. Foresman, and D. J. Fox, Gaussian, Inc., Wallingford CT, 2019.
 
 ******************************************
 Gaussian 16:  ES64L-G16RevC.01  3-Jul-2019
                 9-Apr-2025 
 ******************************************
 %nprocs=16
 Will use up to   16 processors via shared memory.
 %mem=30GB
 %chk=HB300SPXx10_1088_4.12_1.25_methylamine_tetrahydrothiophene_dimer_mol1.chk
 ----------------------------------------------------------------------
 #t hf aug-cc-pvdz iop(5/13=1,5/36=2,99/5=2) pseudo=read geom=check gue
 ss=(read,tcheck) scf=(maxcycle=1)
 ----------------------------------------------------------------------
 -----
 title
 -----
 Structure from the checkpoint file:  "HB300SPXx10_1088_4.12_1.25_methylamine_tetrahydrothiophene_dimer_mol1.chk"
 Charge =  0 Multiplicity = 1
 Z-Matrix found in chk file.
 N,0,-0.48023551,2.04199658,1.33183501
 H,0,-0.98136805,1.22913012,0.98881982
 H,0,-1.14375731,2.80345765,1.38144373
 C,0,0.08991425,1.76981847,2.65020044
 H,0,0.60698078,2.65693888,3.01468146
 H,0,-0.63523497,1.46399211,3.41346792
 H,0,0.83383405,0.97768014,2.5643137
 H,0,0.84129425,-2.9631911,-0.25577851
 H,0,0.55147218,-1.82058145,1.05921468
 H,0,2.56952397,-1.30912205,-0.63529982
 H,0,-0.62792447,0.53300999,-1.82103148
 H,0,1.49097756,0.01538276,-0.18257808
 H,0,-0.95179021,-0.76203681,-2.98653586
 H,0,1.58671117,0.02679976,-2.6415892
 H,0,1.24909363,-1.70288425,-2.69129028
 S,0,-1.08562919,-1.56981492,-0.70946482
 C,0,0.58329204,-1.93231767,-0.02141529
 C,0,1.54216692,-0.94802482,-0.6890421
 C,0,1.06618184,-0.78398549,-2.13172937
 C,0,-0.43431506,-0.5090238,-2.06514702
 Recover connectivity data from disk.
                    Distance matrix (angstroms):
                    1          2          3          4          5
     1  N    0.000000
     2  H    1.014665   0.000000
     3  H    1.011210   1.630654   0.000000
     4  C    1.461930   2.049433   2.049414   0.000000
     5  H    2.095749   2.943740   2.398753   1.089581   0.000000
     6  H    2.165943   2.460465   2.486340   1.096334   1.767838
     7  H    2.092499   2.416685   2.939985   1.090081   1.753341
     8  H    5.414689   4.737793   6.314678   5.604522   6.506664
     9  H    4.007275   3.413985   4.935521   3.954143   4.886217
    10  H    4.939701   4.657180   5.896526   5.140316   5.736164
    11  H    3.498488   2.916294   3.959402   4.694348   5.424038
    12  H    3.207225   2.992967   4.142626   3.614645   4.240488
    13  H    5.170425   4.446243   5.641706   6.266437   7.080521
    14  H    4.911353   4.606571   5.599114   5.769017   6.314341
    15  H    5.761966   5.207195   6.528401   6.475715   7.209610
    16  S    4.192683   3.275536   4.847761   4.880820   5.882146
    17  C    4.330999   3.669263   5.232426   4.592033   5.502701
    18  C    4.136941   3.731414   5.057146   4.543815   5.252419
    19  C    4.730101   4.240628   5.485979   5.508345   6.207767
    20  C    4.248447   3.556285   4.832683   5.263311   6.075547
                    6          7          8          9         10
     6  H    0.000000
     7  H    1.765142   0.000000
     8  H    5.936620   4.845972   0.000000
     9  H    4.211794   3.189878   1.766001   0.000000
    10  H    5.861157   4.298792   2.422139   2.684307   0.000000
    11  H    5.316650   4.643891   4.102687   3.902075   3.875963
    12  H    4.421628   2.983834   3.049483   2.407381   1.767069
    13  H    6.783470   6.084982   3.939196   4.443919   4.269340
    14  H    6.608047   5.345318   3.897151   4.263858   2.603038
    15  H    7.130769   5.914325   2.772434   3.816650   2.475011
    16  S    5.138620   4.570743   2.420819   2.423058   3.665188
    17  C    4.981782   3.900878   1.088206   1.086857   2.170333
    18  C    5.233497   3.846349   2.177116   2.190715   1.090294
    19  C    6.220726   5.020983   2.884216   3.394345   2.185202
    20  C    5.826524   5.024977   3.305137   3.528965   3.421647
                   11         12         13         14         15
    11  H    0.000000
    12  H    2.728042   0.000000
    13  H    1.772127   3.799168   0.000000
    14  H    2.415404   2.460900   2.680530   0.000000
    15  H    3.046272   3.050342   2.411691   1.763027   0.000000
    16  S    2.422178   3.070727   2.419808   3.663835   3.065334
    17  C    3.283825   2.154856   3.538075   3.422032   2.761189
    18  C    2.860797   1.089624   3.396011   2.182821   2.159792
    19  C    2.168180   2.149100   2.191663   1.090083   1.091302
    20  C    1.087617   2.743323   1.086625   2.168857   2.156669
                   16         17         18         19         20
    16  S    0.000000
    17  C    1.841227   0.000000
    18  C    2.700436   1.527743   0.000000
    19  C    2.696415   2.450566   1.528011   0.000000
    20  C    1.840479   2.690377   2.448033   1.526934   0.000000
 Framework group  C1[X(C5H13NS)]
 Deg. of freedom    54
                         Standard orientation:                         
 ---------------------------------------------------------------------
 Center     Atomic      Atomic             Coordinates (Angstroms)
 Number     Number       Type             X           Y           Z
 ---------------------------------------------------------------------
      1          7           0        2.785700   -0.250514    0.792889
      2          1           0        2.024726   -0.835460    0.463796
      3          1           0        3.372614   -0.826393    1.381481
      4          6           0        3.549157    0.275533   -0.337441
      5          1           0        4.374307    0.884331    0.030906
      6          1           0        3.964134   -0.485028   -1.009222
      7          1           0        2.909423    0.928225   -0.931587
      8          1           0       -1.806913    0.523702   -1.968878
      9          1           0       -0.049376    0.351098   -1.974539
     10          1           0       -1.109348    2.426792   -0.642827
     11          1           0       -0.555005   -0.538378    1.791010
     12          1           0        0.179526    1.497286    0.130061
     13          1           0       -2.260778   -0.993710    1.637884
     14          1           0       -1.651987    1.613446    1.769603
     15          1           0       -2.813571    1.087551    0.552056
     16         16           0       -1.090537   -1.234102   -0.466449
     17          6           0       -0.931001    0.379082   -1.339549
     18          6           0       -0.840445    1.445987   -0.249819
     19          6           0       -1.774651    1.002601    0.875119
     20          6           0       -1.441237   -0.458908    1.165558
 ---------------------------------------------------------------------
 Rotational constants (GHZ):           2.5913998           0.9270891           0.8890249
 ======================================================================================================
                                       Pseudopotential Parameters
 ======================================================================================================
  Center     Atomic      Valence      Angular      Power
  Number     Number     Electrons     Momentum     of R      Exponent        Coefficient   SO-Coeffient
 ======================================================================================================
    1          7            7
                                      G and up 
                                                     0        0.0000010       -0.00039818    0.00000000
                                                     2        0.1200000       -0.37616123    0.00000000
                                                     2        0.1400000        2.13837358    0.00000000
                                                     2        0.1600000       -3.36562035    0.00000000
                                                     2        0.2000000        2.53463289    0.00000000
                                                     2        0.3000000       -1.98118833    0.00000000
                                                     2        0.5000000        4.06642919    0.00000000
                                                     2        0.7000000       -6.15327959    0.00000000
                                                     2        1.2000000       10.22492851    0.00000000
                                                     2        2.0000000      -14.94707511    0.00000000
                                      S - G
                                                     0        0.0000010        0.02721443    0.00000000
                                                     2        0.1200000       -0.60186009    0.00000000
                                                     2        0.1600000        1.10088134    0.00000000
                                                     2        0.2600000       -0.59857981    0.00000000
                                                     2        0.6000000        0.21288222    0.00000000
                                                     2        3.0000000        5.09059205    0.00000000
                                      P - G
                                                     0        0.0000010        0.40558062    0.00000000
                                                     2        0.1200000        0.81809854    0.00000000
                                                     2        0.1600000       -2.44952728    0.00000000
                                                     2        0.2800000        4.16638749    0.00000000
                                                     2        0.5000000       -6.02944147    0.00000000
                                                     2        1.1000000        5.78262914    0.00000000
                                      D - G
                                                     0        0.0000010       -0.62770267    0.00000000
                                                     2        0.1600000        0.91438653    0.00000000
                                                     2        0.2600000       -2.00568466    0.00000000
                                                     2        0.5000000        3.30798839    0.00000000
                                                     2        1.1000000       -3.91526108    0.00000000
                                      F - G
                                                     0        0.0000010        0.29726344    0.00000000
                                                     2        0.1200000       -0.41591527    0.00000000
                                                     2        0.1600000        0.51444439    0.00000000
                                                     2        0.4000000       -0.69401726    0.00000000
                                                     2        0.7000000        0.51478123    0.00000000
    2          1            1
                                      F and up 
                                                     0        0.0000010       -0.00007675    0.00000000
                                                     2        0.1200000        0.05352699    0.00000000
                                                     2        0.1400000       -0.25123645    0.00000000
                                                     2        0.1600000        0.32188106    0.00000000
                                                     2        0.2200000       -0.25206857    0.00000000
                                                     2        0.3000000        0.19290477    0.00000000
                                                     2        0.5000000       -0.10129770    0.00000000
                                                     2        0.9000000        0.00314995    0.00000000
                                                     2        1.5000000        0.18401192    0.00000000
                                      S - F
                                                     0        0.0000010        0.08065976    0.00000000
                                                     2        0.1200000       -0.09231673    0.00000000
                                                     2        0.1600000       -0.03278082    0.00000000
                                                     2        0.2800000        0.38423402    0.00000000
                                                     2        0.6000000       -1.09357590    0.00000000
                                                     2        1.1000000        1.53099489    0.00000000
                                                     2        3.0000000       -2.63300202    0.00000000
                                      P - F
                                                     0        0.0000010       -0.11638665    0.00000000
                                                     2        0.1200000        0.35468655    0.00000000
                                                     2        0.1600000       -0.59160923    0.00000000
                                                     2        0.3000000        0.49390547    0.00000000
                                                     2        0.6000000       -0.37949835    0.00000000
                                                     2        1.6000000        0.89304688    0.00000000
                                      D - F
                                                     0        0.0000010        0.05443663    0.00000000
                                                     2        0.1200000       -0.29679479    0.00000000
                                                     2        0.1400000        0.36849872    0.00000000
                                                     2        0.2400000        0.02793449    0.00000000
                                                     2        0.4000000       -0.46312857    0.00000000
                                                     2        0.7000000        0.97587598    0.00000000
                                                     2        1.5000000       -2.43431102    0.00000000
    3          1            1
                                      F and up 
                                                     0        0.0000010       -0.00007675    0.00000000
                                                     2        0.1200000        0.05352699    0.00000000
                                                     2        0.1400000       -0.25123645    0.00000000
                                                     2        0.1600000        0.32188106    0.00000000
                                                     2        0.2200000       -0.25206857    0.00000000
                                                     2        0.3000000        0.19290477    0.00000000
                                                     2        0.5000000       -0.10129770    0.00000000
                                                     2        0.9000000        0.00314995    0.00000000
                                                     2        1.5000000        0.18401192    0.00000000
                                      S - F
                                                     0        0.0000010        0.08065976    0.00000000
                                                     2        0.1200000       -0.09231673    0.00000000
                                                     2        0.1600000       -0.03278082    0.00000000
                                                     2        0.2800000        0.38423402    0.00000000
                                                     2        0.6000000       -1.09357590    0.00000000
                                                     2        1.1000000        1.53099489    0.00000000
                                                     2        3.0000000       -2.63300202    0.00000000
                                      P - F
                                                     0        0.0000010       -0.11638665    0.00000000
                                                     2        0.1200000        0.35468655    0.00000000
                                                     2        0.1600000       -0.59160923    0.00000000
                                                     2        0.3000000        0.49390547    0.00000000
                                                     2        0.6000000       -0.37949835    0.00000000
                                                     2        1.6000000        0.89304688    0.00000000
                                      D - F
                                                     0        0.0000010        0.05443663    0.00000000
                                                     2        0.1200000       -0.29679479    0.00000000
                                                     2        0.1400000        0.36849872    0.00000000
                                                     2        0.2400000        0.02793449    0.00000000
                                                     2        0.4000000       -0.46312857    0.00000000
                                                     2        0.7000000        0.97587598    0.00000000
                                                     2        1.5000000       -2.43431102    0.00000000
    4          6            6
                                      G and up 
                                                     0        0.0000010       -0.00007288    0.00000000
                                                     2        0.1200000        0.10466671    0.00000000
                                                     2        0.1400000       -0.65716157    0.00000000
                                                     2        0.1600000        1.18890794    0.00000000
                                                     2        0.2000000       -1.25772850    0.00000000
                                                     2        0.2600000        1.01188378    0.00000000
                                                     2        0.4000000       -1.09380874    0.00000000
                                                     2        0.5000000        0.96944888    0.00000000
                                                     2        1.0000000       -0.79256938    0.00000000
                                                     2        3.0000000        1.06443276    0.00000000
                                      S - G
                                                     0        0.0000010       -0.00635295    0.00000000
                                                     2        0.1200000        0.16918955    0.00000000
                                                     2        0.1600000       -0.38862576    0.00000000
                                                     2        0.2800000        0.25638263    0.00000000
                                                     2        0.5000000        0.29628419    0.00000000
                                                     2        0.9000000       -0.28791512    0.00000000
                                      P - G
                                                     0        0.0000010       -0.04756931    0.00000000
                                                     2        0.1200000        0.28430375    0.00000000
                                                     2        0.1600000       -0.69640032    0.00000000
                                                     2        0.2600000        1.13005668    0.00000000
                                                     2        0.4000000       -1.31433324    0.00000000
                                                     2        0.7000000        0.91526469    0.00000000
                                      D - G
                                                     0        0.0000010       -0.11496411    0.00000000
                                                     2        0.1200000        0.16620776    0.00000000
                                                     2        0.1800000       -0.30959819    0.00000000
                                                     2        0.3000000        0.16621458    0.00000000
                                                     2        0.6000000        0.27350556    0.00000000
                                      F - G
                                                     0        0.0000010        0.12037550    0.00000000
                                                     2        0.1200000       -0.48737077    0.00000000
                                                     2        0.1400000        0.58315350    0.00000000
                                                     2        0.3000000        0.00005188    0.00000000
                                                     2        0.5000000       -1.16063549    0.00000000
                                                     2        0.8000000        2.09053308    0.00000000
    5          1            1
                                      F and up 
                                                     0        0.0000010       -0.00007675    0.00000000
                                                     2        0.1200000        0.05352699    0.00000000
                                                     2        0.1400000       -0.25123645    0.00000000
                                                     2        0.1600000        0.32188106    0.00000000
                                                     2        0.2200000       -0.25206857    0.00000000
                                                     2        0.3000000        0.19290477    0.00000000
                                                     2        0.5000000       -0.10129770    0.00000000
                                                     2        0.9000000        0.00314995    0.00000000
                                                     2        1.5000000        0.18401192    0.00000000
                                      S - F
                                                     0        0.0000010        0.08065976    0.00000000
                                                     2        0.1200000       -0.09231673    0.00000000
                                                     2        0.1600000       -0.03278082    0.00000000
                                                     2        0.2800000        0.38423402    0.00000000
                                                     2        0.6000000       -1.09357590    0.00000000
                                                     2        1.1000000        1.53099489    0.00000000
                                                     2        3.0000000       -2.63300202    0.00000000
                                      P - F
                                                     0        0.0000010       -0.11638665    0.00000000
                                                     2        0.1200000        0.35468655    0.00000000
                                                     2        0.1600000       -0.59160923    0.00000000
                                                     2        0.3000000        0.49390547    0.00000000
                                                     2        0.6000000       -0.37949835    0.00000000
                                                     2        1.6000000        0.89304688    0.00000000
                                      D - F
                                                     0        0.0000010        0.05443663    0.00000000
                                                     2        0.1200000       -0.29679479    0.00000000
                                                     2        0.1400000        0.36849872    0.00000000
                                                     2        0.2400000        0.02793449    0.00000000
                                                     2        0.4000000       -0.46312857    0.00000000
                                                     2        0.7000000        0.97587598    0.00000000
                                                     2        1.5000000       -2.43431102    0.00000000
    6          1            1
                                      F and up 
                                                     0        0.0000010       -0.00007675    0.00000000
                                                     2        0.1200000        0.05352699    0.00000000
                                                     2        0.1400000       -0.25123645    0.00000000
                                                     2        0.1600000        0.32188106    0.00000000
                                                     2        0.2200000       -0.25206857    0.00000000
                                                     2        0.3000000        0.19290477    0.00000000
                                                     2        0.5000000       -0.10129770    0.00000000
                                                     2        0.9000000        0.00314995    0.00000000
                                                     2        1.5000000        0.18401192    0.00000000
                                      S - F
                                                     0        0.0000010        0.08065976    0.00000000
                                                     2        0.1200000       -0.09231673    0.00000000
                                                     2        0.1600000       -0.03278082    0.00000000
                                                     2        0.2800000        0.38423402    0.00000000
                                                     2        0.6000000       -1.09357590    0.00000000
                                                     2        1.1000000        1.53099489    0.00000000
                                                     2        3.0000000       -2.63300202    0.00000000
                                      P - F
                                                     0        0.0000010       -0.11638665    0.00000000
                                                     2        0.1200000        0.35468655    0.00000000
                                                     2        0.1600000       -0.59160923    0.00000000
                                                     2        0.3000000        0.49390547    0.00000000
                                                     2        0.6000000       -0.37949835    0.00000000
                                                     2        1.6000000        0.89304688    0.00000000
                                      D - F
                                                     0        0.0000010        0.05443663    0.00000000
                                                     2        0.1200000       -0.29679479    0.00000000
                                                     2        0.1400000        0.36849872    0.00000000
                                                     2        0.2400000        0.02793449    0.00000000
                                                     2        0.4000000       -0.46312857    0.00000000
                                                     2        0.7000000        0.97587598    0.00000000
                                                     2        1.5000000       -2.43431102    0.00000000
    7          1            1
                                      F and up 
                                                     0        0.0000010       -0.00007675    0.00000000
                                                     2        0.1200000        0.05352699    0.00000000
                                                     2        0.1400000       -0.25123645    0.00000000
                                                     2        0.1600000        0.32188106    0.00000000
                                                     2        0.2200000       -0.25206857    0.00000000
                                                     2        0.3000000        0.19290477    0.00000000
                                                     2        0.5000000       -0.10129770    0.00000000
                                                     2        0.9000000        0.00314995    0.00000000
                                                     2        1.5000000        0.18401192    0.00000000
                                      S - F
                                                     0        0.0000010        0.08065976    0.00000000
                                                     2        0.1200000       -0.09231673    0.00000000
                                                     2        0.1600000       -0.03278082    0.00000000
                                                     2        0.2800000        0.38423402    0.00000000
                                                     2        0.6000000       -1.09357590    0.00000000
                                                     2        1.1000000        1.53099489    0.00000000
                                                     2        3.0000000       -2.63300202    0.00000000
                                      P - F
                                                     0        0.0000010       -0.11638665    0.00000000
                                                     2        0.1200000        0.35468655    0.00000000
                                                     2        0.1600000       -0.59160923    0.00000000
                                                     2        0.3000000        0.49390547    0.00000000
                                                     2        0.6000000       -0.37949835    0.00000000
                                                     2        1.6000000        0.89304688    0.00000000
                                      D - F
                                                     0        0.0000010        0.05443663    0.00000000
                                                     2        0.1200000       -0.29679479    0.00000000
                                                     2        0.1400000        0.36849872    0.00000000
                                                     2        0.2400000        0.02793449    0.00000000
                                                     2        0.4000000       -0.46312857    0.00000000
                                                     2        0.7000000        0.97587598    0.00000000
                                                     2        1.5000000       -2.43431102    0.00000000
    8          1            1
                                      F and up 
                                                     0        0.0000010       -0.00007675    0.00000000
                                                     2        0.1200000        0.05352699    0.00000000
                                                     2        0.1400000       -0.25123645    0.00000000
                                                     2        0.1600000        0.32188106    0.00000000
                                                     2        0.2200000       -0.25206857    0.00000000
                                                     2        0.3000000        0.19290477    0.00000000
                                                     2        0.5000000       -0.10129770    0.00000000
                                                     2        0.9000000        0.00314995    0.00000000
                                                     2        1.5000000        0.18401192    0.00000000
                                      S - F
                                                     0        0.0000010        0.08065976    0.00000000
                                                     2        0.1200000       -0.09231673    0.00000000
                                                     2        0.1600000       -0.03278082    0.00000000
                                                     2        0.2800000        0.38423402    0.00000000
                                                     2        0.6000000       -1.09357590    0.00000000
                                                     2        1.1000000        1.53099489    0.00000000
                                                     2        3.0000000       -2.63300202    0.00000000
                                      P - F
                                                     0        0.0000010       -0.11638665    0.00000000
                                                     2        0.1200000        0.35468655    0.00000000
                                                     2        0.1600000       -0.59160923    0.00000000
                                                     2        0.3000000        0.49390547    0.00000000
                                                     2        0.6000000       -0.37949835    0.00000000
                                                     2        1.6000000        0.89304688    0.00000000
                                      D - F
                                                     0        0.0000010        0.05443663    0.00000000
                                                     2        0.1200000       -0.29679479    0.00000000
                                                     2        0.1400000        0.36849872    0.00000000
                                                     2        0.2400000        0.02793449    0.00000000
                                                     2        0.4000000       -0.46312857    0.00000000
                                                     2        0.7000000        0.97587598    0.00000000
                                                     2        1.5000000       -2.43431102    0.00000000
    9          1            1
                                      F and up 
                                                     0        0.0000010       -0.00007675    0.00000000
                                                     2        0.1200000        0.05352699    0.00000000
                                                     2        0.1400000       -0.25123645    0.00000000
                                                     2        0.1600000        0.32188106    0.00000000
                                                     2        0.2200000       -0.25206857    0.00000000
                                                     2        0.3000000        0.19290477    0.00000000
                                                     2        0.5000000       -0.10129770    0.00000000
                                                     2        0.9000000        0.00314995    0.00000000
                                                     2        1.5000000        0.18401192    0.00000000
                                      S - F
                                                     0        0.0000010        0.08065976    0.00000000
                                                     2        0.1200000       -0.09231673    0.00000000
                                                     2        0.1600000       -0.03278082    0.00000000
                                                     2        0.2800000        0.38423402    0.00000000
                                                     2        0.6000000       -1.09357590    0.00000000
                                                     2        1.1000000        1.53099489    0.00000000
                                                     2        3.0000000       -2.63300202    0.00000000
                                      P - F
                                                     0        0.0000010       -0.11638665    0.00000000
                                                     2        0.1200000        0.35468655    0.00000000
                                                     2        0.1600000       -0.59160923    0.00000000
                                                     2        0.3000000        0.49390547    0.00000000
                                                     2        0.6000000       -0.37949835    0.00000000
                                                     2        1.6000000        0.89304688    0.00000000
                                      D - F
                                                     0        0.0000010        0.05443663    0.00000000
                                                     2        0.1200000       -0.29679479    0.00000000
                                                     2        0.1400000        0.36849872    0.00000000
                                                     2        0.2400000        0.02793449    0.00000000
                                                     2        0.4000000       -0.46312857    0.00000000
                                                     2        0.7000000        0.97587598    0.00000000
                                                     2        1.5000000       -2.43431102    0.00000000
   10          1            1
                                      F and up 
                                                     0        0.0000010       -0.00007675    0.00000000
                                                     2        0.1200000        0.05352699    0.00000000
                                                     2        0.1400000       -0.25123645    0.00000000
                                                     2        0.1600000        0.32188106    0.00000000
                                                     2        0.2200000       -0.25206857    0.00000000
                                                     2        0.3000000        0.19290477    0.00000000
                                                     2        0.5000000       -0.10129770    0.00000000
                                                     2        0.9000000        0.00314995    0.00000000
                                                     2        1.5000000        0.18401192    0.00000000
                                      S - F
                                                     0        0.0000010        0.08065976    0.00000000
                                                     2        0.1200000       -0.09231673    0.00000000
                                                     2        0.1600000       -0.03278082    0.00000000
                                                     2        0.2800000        0.38423402    0.00000000
                                                     2        0.6000000       -1.09357590    0.00000000
                                                     2        1.1000000        1.53099489    0.00000000
                                                     2        3.0000000       -2.63300202    0.00000000
                                      P - F
                                                     0        0.0000010       -0.11638665    0.00000000
                                                     2        0.1200000        0.35468655    0.00000000
                                                     2        0.1600000       -0.59160923    0.00000000
                                                     2        0.3000000        0.49390547    0.00000000
                                                     2        0.6000000       -0.37949835    0.00000000
                                                     2        1.6000000        0.89304688    0.00000000
                                      D - F
                                                     0        0.0000010        0.05443663    0.00000000
                                                     2        0.1200000       -0.29679479    0.00000000
                                                     2        0.1400000        0.36849872    0.00000000
                                                     2        0.2400000        0.02793449    0.00000000
                                                     2        0.4000000       -0.46312857    0.00000000
                                                     2        0.7000000        0.97587598    0.00000000
                                                     2        1.5000000       -2.43431102    0.00000000
   11          1            1
                                      F and up 
                                                     0        0.0000010       -0.00007675    0.00000000
                                                     2        0.1200000        0.05352699    0.00000000
                                                     2        0.1400000       -0.25123645    0.00000000
                                                     2        0.1600000        0.32188106    0.00000000
                                                     2        0.2200000       -0.25206857    0.00000000
                                                     2        0.3000000        0.19290477    0.00000000
                                                     2        0.5000000       -0.10129770    0.00000000
                                                     2        0.9000000        0.00314995    0.00000000
                                                     2        1.5000000        0.18401192    0.00000000
                                      S - F
                                                     0        0.0000010        0.08065976    0.00000000
                                                     2        0.1200000       -0.09231673    0.00000000
                                                     2        0.1600000       -0.03278082    0.00000000
                                                     2        0.2800000        0.38423402    0.00000000
                                                     2        0.6000000       -1.09357590    0.00000000
                                                     2        1.1000000        1.53099489    0.00000000
                                                     2        3.0000000       -2.63300202    0.00000000
                                      P - F
                                                     0        0.0000010       -0.11638665    0.00000000
                                                     2        0.1200000        0.35468655    0.00000000
                                                     2        0.1600000       -0.59160923    0.00000000
                                                     2        0.3000000        0.49390547    0.00000000
                                                     2        0.6000000       -0.37949835    0.00000000
                                                     2        1.6000000        0.89304688    0.00000000
                                      D - F
                                                     0        0.0000010        0.05443663    0.00000000
                                                     2        0.1200000       -0.29679479    0.00000000
                                                     2        0.1400000        0.36849872    0.00000000
                                                     2        0.2400000        0.02793449    0.00000000
                                                     2        0.4000000       -0.46312857    0.00000000
                                                     2        0.7000000        0.97587598    0.00000000
                                                     2        1.5000000       -2.43431102    0.00000000
   12          1            1
                                      F and up 
                                                     0        0.0000010       -0.00007675    0.00000000
                                                     2        0.1200000        0.05352699    0.00000000
                                                     2        0.1400000       -0.25123645    0.00000000
                                                     2        0.1600000        0.32188106    0.00000000
                                                     2        0.2200000       -0.25206857    0.00000000
                                                     2        0.3000000        0.19290477    0.00000000
                                                     2        0.5000000       -0.10129770    0.00000000
                                                     2        0.9000000        0.00314995    0.00000000
                                                     2        1.5000000        0.18401192    0.00000000
                                      S - F
                                                     0        0.0000010        0.08065976    0.00000000
                                                     2        0.1200000       -0.09231673    0.00000000
                                                     2        0.1600000       -0.03278082    0.00000000
                                                     2        0.2800000        0.38423402    0.00000000
                                                     2        0.6000000       -1.09357590    0.00000000
                                                     2        1.1000000        1.53099489    0.00000000
                                                     2        3.0000000       -2.63300202    0.00000000
                                      P - F
                                                     0        0.0000010       -0.11638665    0.00000000
                                                     2        0.1200000        0.35468655    0.00000000
                                                     2        0.1600000       -0.59160923    0.00000000
                                                     2        0.3000000        0.49390547    0.00000000
                                                     2        0.6000000       -0.37949835    0.00000000
                                                     2        1.6000000        0.89304688    0.00000000
                                      D - F
                                                     0        0.0000010        0.05443663    0.00000000
                                                     2        0.1200000       -0.29679479    0.00000000
                                                     2        0.1400000        0.36849872    0.00000000
                                                     2        0.2400000        0.02793449    0.00000000
                                                     2        0.4000000       -0.46312857    0.00000000
                                                     2        0.7000000        0.97587598    0.00000000
                                                     2        1.5000000       -2.43431102    0.00000000
   13          1            1
                                      F and up 
                                                     0        0.0000010       -0.00007675    0.00000000
                                                     2        0.1200000        0.05352699    0.00000000
                                                     2        0.1400000       -0.25123645    0.00000000
                                                     2        0.1600000        0.32188106    0.00000000
                                                     2        0.2200000       -0.25206857    0.00000000
                                                     2        0.3000000        0.19290477    0.00000000
                                                     2        0.5000000       -0.10129770    0.00000000
                                                     2        0.9000000        0.00314995    0.00000000
                                                     2        1.5000000        0.18401192    0.00000000
                                      S - F
                                                     0        0.0000010        0.08065976    0.00000000
                                                     2        0.1200000       -0.09231673    0.00000000
                                                     2        0.1600000       -0.03278082    0.00000000
                                                     2        0.2800000        0.38423402    0.00000000
                                                     2        0.6000000       -1.09357590    0.00000000
                                                     2        1.1000000        1.53099489    0.00000000
                                                     2        3.0000000       -2.63300202    0.00000000
                                      P - F
                                                     0        0.0000010       -0.11638665    0.00000000
                                                     2        0.1200000        0.35468655    0.00000000
                                                     2        0.1600000       -0.59160923    0.00000000
                                                     2        0.3000000        0.49390547    0.00000000
                                                     2        0.6000000       -0.37949835    0.00000000
                                                     2        1.6000000        0.89304688    0.00000000
                                      D - F
                                                     0        0.0000010        0.05443663    0.00000000
                                                     2        0.1200000       -0.29679479    0.00000000
                                                     2        0.1400000        0.36849872    0.00000000
                                                     2        0.2400000        0.02793449    0.00000000
                                                     2        0.4000000       -0.46312857    0.00000000
                                                     2        0.7000000        0.97587598    0.00000000
                                                     2        1.5000000       -2.43431102    0.00000000
   14          1            1
                                      F and up 
                                                     0        0.0000010       -0.00007675    0.00000000
                                                     2        0.1200000        0.05352699    0.00000000
                                                     2        0.1400000       -0.25123645    0.00000000
                                                     2        0.1600000        0.32188106    0.00000000
                                                     2        0.2200000       -0.25206857    0.00000000
                                                     2        0.3000000        0.19290477    0.00000000
                                                     2        0.5000000       -0.10129770    0.00000000
                                                     2        0.9000000        0.00314995    0.00000000
                                                     2        1.5000000        0.18401192    0.00000000
                                      S - F
                                                     0        0.0000010        0.08065976    0.00000000
                                                     2        0.1200000       -0.09231673    0.00000000
                                                     2        0.1600000       -0.03278082    0.00000000
                                                     2        0.2800000        0.38423402    0.00000000
                                                     2        0.6000000       -1.09357590    0.00000000
                                                     2        1.1000000        1.53099489    0.00000000
                                                     2        3.0000000       -2.63300202    0.00000000
                                      P - F
                                                     0        0.0000010       -0.11638665    0.00000000
                                                     2        0.1200000        0.35468655    0.00000000
                                                     2        0.1600000       -0.59160923    0.00000000
[...]
                                                     2        1.0000000       -0.79256938    0.00000000
                                                     2        3.0000000        1.06443276    0.00000000
                                      S - G
                                                     0        0.0000010       -0.00635295    0.00000000
                                                     2        0.1200000        0.16918955    0.00000000
                                                     2        0.1600000       -0.38862576    0.00000000
                                                     2        0.2800000        0.25638263    0.00000000
                                                     2        0.5000000        0.29628419    0.00000000
                                                     2        0.9000000       -0.28791512    0.00000000
                                      P - G
                                                     0        0.0000010       -0.04756931    0.00000000
                                                     2        0.1200000        0.28430375    0.00000000
                                                     2        0.1600000       -0.69640032    0.00000000
                                                     2        0.2600000        1.13005668    0.00000000
                                                     2        0.4000000       -1.31433324    0.00000000
                                                     2        0.7000000        0.91526469    0.00000000
                                      D - G
                                                     0        0.0000010       -0.11496411    0.00000000
                                                     2        0.1200000        0.16620776    0.00000000
                                                     2        0.1800000       -0.30959819    0.00000000
                                                     2        0.3000000        0.16621458    0.00000000
                                                     2        0.6000000        0.27350556    0.00000000
                                      F - G
                                                     0        0.0000010        0.12037550    0.00000000
                                                     2        0.1200000       -0.48737077    0.00000000
                                                     2        0.1400000        0.58315350    0.00000000
                                                     2        0.3000000        0.00005188    0.00000000
                                                     2        0.5000000       -1.16063549    0.00000000
                                                     2        0.8000000        2.09053308    0.00000000
   19          6            6
                                      G and up 
                                                     0        0.0000010       -0.00007288    0.00000000
                                                     2        0.1200000        0.10466671    0.00000000
                                                     2        0.1400000       -0.65716157    0.00000000
                                                     2        0.1600000        1.18890794    0.00000000
                                                     2        0.2000000       -1.25772850    0.00000000
                                                     2        0.2600000        1.01188378    0.00000000
                                                     2        0.4000000       -1.09380874    0.00000000
                                                     2        0.5000000        0.96944888    0.00000000
                                                     2        1.0000000       -0.79256938    0.00000000
                                                     2        3.0000000        1.06443276    0.00000000
                                      S - G
                                                     0        0.0000010       -0.00635295    0.00000000
                                                     2        0.1200000        0.16918955    0.00000000
                                                     2        0.1600000       -0.38862576    0.00000000
                                                     2        0.2800000        0.25638263    0.00000000
                                                     2        0.5000000        0.29628419    0.00000000
                                                     2        0.9000000       -0.28791512    0.00000000
                                      P - G
                                                     0        0.0000010       -0.04756931    0.00000000
                                                     2        0.1200000        0.28430375    0.00000000
                                                     2        0.1600000       -0.69640032    0.00000000
                                                     2        0.2600000        1.13005668    0.00000000
                                                     2        0.4000000       -1.31433324    0.00000000
                                                     2        0.7000000        0.91526469    0.00000000
                                      D - G
                                                     0        0.0000010       -0.11496411    0.00000000
                                                     2        0.1200000        0.16620776    0.00000000
                                                     2        0.1800000       -0.30959819    0.00000000
                                                     2        0.3000000        0.16621458    0.00000000
                                                     2        0.6000000        0.27350556    0.00000000
                                      F - G
                                                     0        0.0000010        0.12037550    0.00000000
                                                     2        0.1200000       -0.48737077    0.00000000
                                                     2        0.1400000        0.58315350    0.00000000
                                                     2        0.3000000        0.00005188    0.00000000
                                                     2        0.5000000       -1.16063549    0.00000000
                                                     2        0.8000000        2.09053308    0.00000000
   20          6            6
                                      G and up 
                                                     0        0.0000010       -0.00007288    0.00000000
                                                     2        0.1200000        0.10466671    0.00000000
                                                     2        0.1400000       -0.65716157    0.00000000
                                                     2        0.1600000        1.18890794    0.00000000
                                                     2        0.2000000       -1.25772850    0.00000000
                                                     2        0.2600000        1.01188378    0.00000000
                                                     2        0.4000000       -1.09380874    0.00000000
                                                     2        0.5000000        0.96944888    0.00000000
                                                     2        1.0000000       -0.79256938    0.00000000
                                                     2        3.0000000        1.06443276    0.00000000
                                      S - G
                                                     0        0.0000010       -0.00635295    0.00000000
                                                     2        0.1200000        0.16918955    0.00000000
                                                     2        0.1600000       -0.38862576    0.00000000
                                                     2        0.2800000        0.25638263    0.00000000
                                                     2        0.5000000        0.29628419    0.00000000
                                                     2        0.9000000       -0.28791512    0.00000000
                                      P - G
                                                     0        0.0000010       -0.04756931    0.00000000
                                                     2        0.1200000        0.28430375    0.00000000
                                                     2        0.1600000       -0.69640032    0.00000000
                                                     2        0.2600000        1.13005668    0.00000000
                                                     2        0.4000000       -1.31433324    0.00000000
                                                     2        0.7000000        0.91526469    0.00000000
                                      D - G
                                                     0        0.0000010       -0.11496411    0.00000000
                                                     2        0.1200000        0.16620776    0.00000000
                                                     2        0.1800000       -0.30959819    0.00000000
                                                     2        0.3000000        0.16621458    0.00000000
                                                     2        0.6000000        0.27350556    0.00000000
                                      F - G
                                                     0        0.0000010        0.12037550    0.00000000
                                                     2        0.1200000       -0.48737077    0.00000000
                                                     2        0.1400000        0.58315350    0.00000000
                                                     2        0.3000000        0.00005188    0.00000000
                                                     2        0.5000000       -1.16063549    0.00000000
                                                     2        0.8000000        2.09053308    0.00000000
 ======================================================================================================
   282 basis functions,   482 primitive gaussians,   296 cartesian basis functions
    33 alpha electrons       33 beta electrons
       nuclear repulsion energy       376.2628172993 Hartrees.
 NAtoms=   20 NActive=   20 NUniq=   20 SFac= 1.00D+00 NAtFMM=   60 NAOKFM=F Big=F
   1 Symmetry operations used in ECPInt.
 ECPInt:  NShTT=    8515 NPrTT=   37559 LenC2=    8480 LenP2D=   28657.
 LDataN:  DoStor=T MaxTD1= 6 Len=  172
 Initial guess from the checkpoint file:  "HB300SPXx10_1088_4.12_1.25_methylamine_tetrahydrothiophene_dimer_mol1.chk"
 B after Tr=     0.767511    0.023220    0.240810
         Rot=   -0.306586    0.610095    0.679076    0.269528 Ang= 215.71 deg.
 >>>>>>>>>> Convergence criterion not met.
 SCF Done:  E(RHF) =  -649.256293450     A.U. after    2 cycles
            NFock=  1  Conv=0.81D-02     -V/T= 2.0009

 **********************************************************************

            Population analysis using the SCF Density.

 **********************************************************************

 Orbital symmetries:
       Occupied  (A) (A) (A) (A) (A) (A) (A) (A) (A) (A) (A) (A)
                 (A) (A) (A) (A) (A) (A) (A) (A) (A) (A) (A) (A)
                 (A) (A) (A) (A) (A) (A) (A) (A) (A)
       Virtual   (A) (A) (A) (A) (A) (A) (A) (A) (A) (A) (A) (A)
                 (A) (A) (A) (A) (A) (A) (A) (A) (A) (A) (A) (A)
                 (A) (A) (A) (A) (A) (A) (A) (A) (A) (A) (A) (A)
                 (A) (A) (A) (A) (A) (A) (A) (A) (A) (A) (A) (A)
                 (A) (A) (A) (A) (A) (A) (A) (A) (A) (A) (A) (A)
                 (A) (A) (A) (A) (A) (A) (A) (A) (A) (A) (A) (A)
                 (A) (A) (A) (A) (A) (A) (A) (A) (A) (A) (A) (A)
                 (A) (A) (A) (A) (A) (A) (A) (A) (A) (A) (A) (A)
                 (A) (A) (A) (A) (A) (A) (A) (A) (A) (A) (A) (A)
                 (A) (A) (A) (A) (A) (A) (A) (A) (A) (A) (A) (A)
                 (A) (A) (A) (A) (A) (A) (A) (A) (A) (A) (A) (A)
                 (A) (A) (A) (A) (A) (A) (A) (A) (A) (A) (A) (A)
                 (A) (A) (A) (A) (A) (A) (A) (A) (A) (A) (A) (A)
                 (A) (A) (A) (A) (A) (A) (A) (A) (A) (A) (A) (A)
                 (A) (A) (A) (A) (A) (A) (A) (A) (A) (A) (A) (A)
                 (A) (A) (A) (A) (A) (A) (A) (A) (A) (A) (A) (A)
                 (A) (A) (A) (A) (A) (A) (A) (A) (A) (A) (A) (A)
                 (A) (A) (A) (A) (A) (A) (A) (A) (A) (A) (A) (A)
                 (A) (A) (A) (A) (A) (A) (A) (A) (A) (A) (A) (A)
                 (A) (A) (A) (A) (A) (A) (A) (A) (A) (A) (A) (A)
                 (A) (A) (A) (A) (A) (A) (A) (A) (A)
 The electronic state is 1-A.
 Alpha  occ. eigenvalues --  -93.92947 -15.47866 -11.26046 -11.25916 -11.24980
 Alpha  occ. eigenvalues --  -11.23805 -11.23685  -8.21065  -6.18870  -6.18751
 Alpha  occ. eigenvalues --   -6.18522  -1.16743  -1.13628  -0.98815  -0.98153
 Alpha  occ. eigenvalues --   -0.90339  -0.79773  -0.79453  -0.69098  -0.66370
 Alpha  occ. eigenvalues --   -0.64864  -0.62649  -0.60572  -0.57857  -0.55470
 Alpha  occ. eigenvalues --   -0.52991  -0.51329  -0.50031  -0.48587  -0.48444
 Alpha  occ. eigenvalues --   -0.42912  -0.42408  -0.33872
 Alpha virt. eigenvalues --    0.03571   0.03634   0.03841   0.04332   0.05669
 Alpha virt. eigenvalues --    0.05719   0.05806   0.06753   0.07727   0.07964
 Alpha virt. eigenvalues --    0.08608   0.09069   0.10379   0.11573   0.13479
 Alpha virt. eigenvalues --    0.14140   0.14632   0.14951   0.15013   0.15409
 Alpha virt. eigenvalues --    0.15938   0.16636   0.17023   0.17412   0.17559
 Alpha virt. eigenvalues --    0.18495   0.18722   0.19086   0.19259   0.20146
 Alpha virt. eigenvalues --    0.20209   0.20432   0.21436   0.21930   0.22408
 Alpha virt. eigenvalues --    0.23035   0.23874   0.24381   0.25079   0.26386
 Alpha virt. eigenvalues --    0.27819   0.29583   0.30468   0.30970   0.31649
 Alpha virt. eigenvalues --    0.33148   0.34225   0.35383   0.35949   0.36603
 Alpha virt. eigenvalues --    0.37443   0.38520   0.38973   0.39635   0.40387
 Alpha virt. eigenvalues --    0.41032   0.41474   0.41887   0.42473   0.42939
 Alpha virt. eigenvalues --    0.43542   0.44431   0.44647   0.45645   0.45906
 Alpha virt. eigenvalues --    0.46549   0.47151   0.47653   0.48272   0.49311
 Alpha virt. eigenvalues --    0.49785   0.50125   0.50568   0.52620   0.52724
 Alpha virt. eigenvalues --    0.53595   0.54762   0.55474   0.56639   0.57316
 Alpha virt. eigenvalues --    0.57534   0.58365   0.59441   0.60291   0.61041
 Alpha virt. eigenvalues --    0.61189   0.62235   0.62276   0.63433   0.64110
 Alpha virt. eigenvalues --    0.64397   0.65847   0.66468   0.66760   0.67185
 Alpha virt. eigenvalues --    0.68220   0.69179   0.70040   0.70248   0.70998
 Alpha virt. eigenvalues --    0.71579   0.72744   0.72947   0.73203   0.73760
 Alpha virt. eigenvalues --    0.75454   0.76560   0.77063   0.78716   0.78749
 Alpha virt. eigenvalues --    0.79747   0.81580   0.82096   0.82553   0.83009
 Alpha virt. eigenvalues --    0.83681   0.85319   0.86092   0.86503   0.87777
 Alpha virt. eigenvalues --    0.89274   0.89964   0.90414   0.91650   0.93820
 Alpha virt. eigenvalues --    0.94004   0.94660   0.96548   0.98490   0.99335
 Alpha virt. eigenvalues --    1.01629   1.04293   1.07269   1.08685   1.11096
 Alpha virt. eigenvalues --    1.11837   1.12530   1.13604   1.15701   1.17398
 Alpha virt. eigenvalues --    1.18287   1.19930   1.22960   1.24271   1.25730
 Alpha virt. eigenvalues --    1.27841   1.29740   1.30198   1.31876   1.33897
 Alpha virt. eigenvalues --    1.35189   1.37281   1.38418   1.40299   1.42676
 Alpha virt. eigenvalues --    1.43423   1.45626   1.46219   1.50203   1.50799
 Alpha virt. eigenvalues --    1.52458   1.55431   1.59597   1.62251   1.63418
 Alpha virt. eigenvalues --    1.64552   1.65354   1.67204   1.72259   1.76198
 Alpha virt. eigenvalues --    1.76537   1.80314   1.82637   1.84005   1.86516
 Alpha virt. eigenvalues --    1.87950   1.90860   1.91661   1.94567   1.96567
 Alpha virt. eigenvalues --    1.97242   1.97762   1.99929   2.01236   2.04332
 Alpha virt. eigenvalues --    2.06413   2.09215   2.09535   2.10659   2.11820
 Alpha virt. eigenvalues --    2.13790   2.14528   2.14557   2.16373   2.17762
 Alpha virt. eigenvalues --    2.18618   2.20889   2.22091   2.23288   2.23693
 Alpha virt. eigenvalues --    2.26689   2.30186   2.31001   2.31710   2.32997
 Alpha virt. eigenvalues --    2.33514   2.35169   2.35501   2.38523   2.39991
 Alpha virt. eigenvalues --    2.41761   2.42154   2.43920   2.47348   2.47988
 Alpha virt. eigenvalues --    2.49027   2.49873   2.52551   2.53269   2.56886
 Alpha virt. eigenvalues --    2.57668   2.64895   2.65844   2.66950   2.68895
 Alpha virt. eigenvalues --    2.71129   2.73035   2.74472   2.77333   2.80073
 Alpha virt. eigenvalues --    2.81489   2.84033   2.86901   2.95493   2.96443
 Alpha virt. eigenvalues --    2.97427   3.00389   3.03628   3.06188   3.07950
 Alpha virt. eigenvalues --    3.11719   3.18741   3.20776   3.25082   3.28539
 Alpha virt. eigenvalues --    3.33568   3.37517   3.42692   3.57122
          Condensed to atoms (all electrons):
 Mulliken charges:
               1
     1  N    0.034103
     2  H    0.053316
     3  H    0.150062
     4  C   -0.441793
     5  H    0.070343
     6  H    0.103125
     7  H    0.052481
     8  H    0.156870
     9  H    0.127260
    10  H    0.150826
    11  H    0.131726
    12  H    0.129788
    13  H    0.168064
    14  H    0.138959
    15  H    0.098427
    16  S    0.477440
    17  C   -0.627223
    18  C   -0.193126
    19  C   -0.271684
    20  C   -0.508965
 Sum of Mulliken charges =  -0.00000
 Mulliken charges with hydrogens summed into heavy atoms:
               1
     1  N    0.237481
     4  C   -0.215844
    16  S    0.477440
    17  C   -0.343093
    18  C    0.087487
    19  C   -0.034297
    20  C   -0.209175
 Electronic spatial extent (au):  <R**2>=           1494.2639
 Charge=              0.0000 electrons
 Dipole moment (field-independent basis, Debye):
    X=              0.2846    Y=              1.1396    Z=              0.0286  Tot=              1.1750

 Test job not archived.
 1\1\GINC-SE168\SP\RHF\Aug-CC-pVDZ\C5H13N1S1\OHZDE\09-Apr-2025\0\\#t hf
  aug-cc-pvdz iop(5/13=1,5/36=2,99/5=2) pseudo=read geom=check guess=(r
 ead,tcheck) scf=(maxcycle=1)\\title\\0,1\N,0,-0.48023551,2.04199658,1.
 33183501\H,0,-0.98136805,1.22913012,0.98881982\H,0,-1.14375731,2.80345
 765,1.38144373\C,0,0.08991425,1.76981847,2.65020044\H,0,0.60698078,2.6
 5693888,3.01468146\H,0,-0.63523497,1.46399211,3.41346792\H,0,0.8338340
 5,0.97768014,2.5643137\H,0,0.84129425,-2.9631911,-0.25577851\H,0,0.551
 47218,-1.82058145,1.05921468\H,0,2.56952397,-1.30912205,-0.63529982\H,
 0,-0.62792447,0.53300999,-1.82103148\H,0,1.49097756,0.01538276,-0.1825
 7808\H,0,-0.95179021,-0.76203681,-2.98653586\H,0,1.58671117,0.02679976
 ,-2.6415892\H,0,1.24909363,-1.70288425,-2.69129028\S,0,-1.08562919,-1.
 56981492,-0.70946482\C,0,0.58329204,-1.93231767,-0.02141529\C,0,1.5421
 6692,-0.94802482,-0.6890421\C,0,1.06618184,-0.78398549,-2.13172937\C,0
 ,-0.43431506,-0.5090238,-2.06514702\\Version=ES64L-G16RevC.01\State=1-
 A\HF=-649.2562934\RMSD=8.127e-03\Dipole=0.437063,0.1320427,0.0723459\Q
 uadrupole=-1.2278634,-1.7971706,3.025034,-4.5412255,-0.8154421,0.47635
 31\PG=C01 [X(C5H13N1S1)]\\@


 MAN IS THE MEASURE OF ALL THINGS.
  -- PROTAGORAS (5TH CENTURY B.C.)
 Job cpu time:       0 days  0 hours  1 minutes 53.3 seconds.
 Elapsed time:       0 days  0 hours  0 minutes  8.2 seconds.
 File lengths (MBytes):  RWF=     14 Int=      0 D2E=      0 Chk=     11 Scr=      1
 Normal termination of Gaussian 16 at Wed Apr  9 19:25:40 2025.
